 Gaussian 09, Revision D.01,
 Gaussian 09:  ES64L-G09RevD.01 24-Apr-2013

 --------------------
 #p B2PLYPD3/Def2QZVP
 --------------------

 ----------
 butane_opt
 ----------
 Symbolic Z-matrix:
 Charge =  0 Multiplicity = 1

                         Standard orientation:
 ---------------------------------------------------------------------
 Center     Atomic      Atomic             Coordinates (Angstroms)
 Number     Number       Type             X           Y           Z
 ---------------------------------------------------------------------
      1          6           0       -2.038971   -0.198616   -0.060922
      2          6           0       -0.504115    0.640022    0.023993
      3          1           0       -2.760176    0.270205   -0.265638
      4          1           0       -2.432230   -0.289970    0.555532
      5          1           0       -1.880289   -1.060243   -1.044232
      6          6           0        0.670906   -0.486303    0.278285
      7          1           0       -0.516717    1.422756    0.872299
      8          1           0       -0.233589    1.062885   -0.782114
      9          6           0        1.880134    0.065846   -0.137894
     10          1           0        0.539490   -0.898606   -0.262942
     11          1           0        0.589795   -1.248577    1.307304
     12          1           0        1.757635    0.411545   -1.024568
     13          1           0        2.586971   -0.774259   -0.691592
     14          1           0        2.301387    0.978569    0.715181
 ---------------------------------------------------------------------

 SCF Done:  E(RB2PLYPD3) =  -157.482467181     A.U. after   11 cycles
 E2(B2PLYPD3) =    -0.2503445941D+00 E(B2PLYPD3) =    -0.15773281177484D+03

 The electronic state is 1-A.
 Alpha  occ. eigenvalues --  -10.62214 -10.61359 -10.57948 -10.57649  -0.95491
 Alpha  occ. eigenvalues --   -0.89866  -0.76913  -0.71554  -0.55681  -0.49765
 Alpha  occ. eigenvalues --   -0.49685  -0.46739  -0.43068  -0.42045  -0.39122
 Alpha  occ. eigenvalues --   -0.36793  -0.34146
 Alpha virt. eigenvalues --    0.04840   0.06464   0.07988   0.08467   0.10377
 Alpha virt. eigenvalues --    0.11201   0.12166   0.13921   0.14018   0.15723
 Alpha virt. eigenvalues --    0.16221   0.17519   0.17980   0.19186   0.21032

 Mulliken charges:
               1
     1  C   -0.447188
     2  C   -0.075366
     3  H    0.081950
     4  H    0.289820
     5  H    0.037851
     6  C   -0.603762
     7  H    0.023356
     8  H    0.104219
     9  C   -0.146025
    10  H    0.547811
    11  H    0.046815
    12  H    0.081274
    13  H    0.019199
    14  H    0.040047
 Sum of Mulliken charges =   0.00000

 Dipole moment (field-independent basis, Debye):
    X=             -0.5279    Y=              0.2026    Z=             -0.5801  Tot=              0.8101
 Quadrupole moment (field-independent basis, Debye-Ang):
   XX=            -29.2502   YY=            -29.0461   ZZ=            -27.4786
   XY=             -0.5705   XZ=             -1.7270   YZ=              0.9066

 Normal termination of Gaussian 09 at Wed Aug 26 15:56:02 2020.
