 Gaussian 09, Revision D.01,
 Gaussian 09:  ES64L-G09RevD.01 24-Apr-2013

 --------------------
 #p B2PLYPD3/Def2QZVP
 --------------------

 ----------
 butane_opt
 ----------
 Symbolic Z-matrix:
 Charge =  0 Multiplicity = 1

                         Standard orientation:
 ---------------------------------------------------------------------
 Center     Atomic      Atomic             Coordinates (Angstroms)
 Number     Number       Type             X           Y           Z
 ---------------------------------------------------------------------
      1          6           0       -2.004291   -0.150383   -0.192063
      2          6           0       -0.542662    0.596742    0.148644
      3          1           0       -2.636685    0.539863    0.017722
      4          1           0       -2.392929   -0.629135    0.617994
      5          1           0       -2.069840   -0.985824   -1.143521
      6          6           0        0.667760   -0.481358    0.287154
      7          1           0       -0.554154    1.454936    1.107381
      8          1           0       -0.382120    1.074533   -0.848186
      9          6           0        1.891301    0.099097   -0.256279
     10          1           0        0.221889   -0.915152   -0.326278
     11          1           0        0.688784   -1.528819    1.525735
     12          1           0        1.751432    0.321846   -0.830751
     13          1           0        2.666975   -0.622916   -0.765432
     14          1           0        2.634000    0.906075    0.720604
 ---------------------------------------------------------------------

 SCF Done:  E(RB2PLYPD3) =  -157.453555527     A.U. after   12 cycles
 E2(B2PLYPD3) =    -0.2555447398D+00 E(B2PLYPD3) =    -0.15770910026713D+03

 The electronic state is 1-A.
 Alpha  occ. eigenvalues --  -10.65675 -10.63133 -10.61034 -10.60968  -0.94984
 Alpha  occ. eigenvalues --   -0.85842  -0.78100  -0.67218  -0.55750  -0.49300
 Alpha  occ. eigenvalues --   -0.48166  -0.47782  -0.40744  -0.40445  -0.38468
 Alpha  occ. eigenvalues --   -0.35331  -0.34301
 Alpha virt. eigenvalues --    0.03151   0.05773   0.06094   0.07621   0.08642
 Alpha virt. eigenvalues --    0.10588   0.11434   0.13435   0.14135   0.14897
 Alpha virt. eigenvalues --    0.15780   0.16223   0.18368   0.18937   0.20031

 Mulliken charges:
               1
     1  C   -0.157391
     2  C   -0.087574
     3  H    0.069455
     4  H    0.041721
     5  H    0.051271
     6  C   -0.121418
     7  H    0.026514
     8  H    0.062228
     9  C   -0.735238
    10  H    0.187166
    11  H   -0.010284
    12  H    0.573648
    13  H    0.062934
    14  H    0.036967
 Sum of Mulliken charges =   0.00000

 Dipole moment (field-independent basis, Debye):
    X=             -0.6399    Y=              0.0970    Z=             -0.8113  Tot=              1.0378
 Quadrupole moment (field-independent basis, Debye-Ang):
   XX=            -29.4731   YY=            -30.0921   ZZ=            -28.5577
   XY=              0.3142   XZ=             -1.4764   YZ=              1.2581

 Normal termination of Gaussian 09 at Wed Aug 26 11:06:37 2020.
