 Gaussian 09, Revision D.01,
 Gaussian 09:  ES64L-G09RevD.01 24-Apr-2013

 --------------------
 #p B2PLYPD3/Def2QZVP
 --------------------

 ----------
 butane_opt
 ----------
 Symbolic Z-matrix:
 Charge =  0 Multiplicity = 1

                         Standard orientation:
 ---------------------------------------------------------------------
 Center     Atomic      Atomic             Coordinates (Angstroms)
 Number     Number       Type             X           Y           Z
 ---------------------------------------------------------------------
      1          6           0        2.003610   -0.150673   -0.069928
      2          6           0        0.565045    0.570419    0.070715
      3          1           0        2.624140    0.532321   -0.475413
      4          1           0        1.998720   -0.982144   -1.059486
      5          1           0        2.457031   -0.571757    0.677998
      6          6           0       -0.616335   -0.487049    0.254533
      7          1           0        0.121612    1.015632   -0.696221
      8          1           0        0.517546    1.536716    1.043849
      9          6           0       -1.842431    0.077119   -0.203750
     10          1           0       -0.645492   -1.391191    1.420054
     11          1           0       -0.627368   -0.965213   -0.374279
     12          1           0       -2.727658    1.130471    0.763010
     13          1           0       -2.720500   -0.901260   -0.592587
     14          1           0       -1.657364    0.537529   -1.016345
 ---------------------------------------------------------------------

 SCF Done:  E(RB2PLYPD3) =  -157.728929332     A.U. after   12 cycles
 E2(B2PLYPD3) =    -0.2554258165D+00 E(B2PLYPD3) =    -0.15798435514838D+03

 The electronic state is 1-A.
 Alpha  occ. eigenvalues --  -10.66290 -10.64987 -10.61789 -10.61750  -0.96403
 Alpha  occ. eigenvalues --   -0.84691  -0.73727  -0.69561  -0.53396  -0.51188
 Alpha  occ. eigenvalues --   -0.49605  -0.46473  -0.43999  -0.40859  -0.37435
 Alpha  occ. eigenvalues --   -0.35742  -0.33195
 Alpha virt. eigenvalues --    0.02299   0.05614   0.06414   0.07141   0.07527
 Alpha virt. eigenvalues --    0.10657   0.11774   0.12680   0.13963   0.14861
 Alpha virt. eigenvalues --    0.15588   0.16410   0.18459   0.18502   0.19831

 Mulliken charges:
               1
     1  C   -0.127542
     2  C   -0.082398
     3  H    0.056123
     4  H    0.000810
     5  H    0.082458
     6  C   -0.335679
     7  H    0.088020
     8  H    0.018818
     9  C   -0.191917
    10  H    0.014799
    11  H    0.366507
    12  H   -0.030542
    13  H    0.026941
    14  H    0.113603
 Sum of Mulliken charges =   0.00000

 Dipole moment (field-independent basis, Debye):
    X=              1.0723    Y=             -0.2882    Z=             -1.0481  Tot=              1.5269
 Quadrupole moment (field-independent basis, Debye-Ang):
   XX=            -31.6386   YY=            -30.1397   ZZ=            -29.2419
   XY=              1.0650   XZ=              1.7481   YZ=             -0.2394

 Normal termination of Gaussian 09 at Wed Aug 26 16:13:04 2020.
