 Gaussian 09, Revision D.01,
 Gaussian 09:  ES64L-G09RevD.01 24-Apr-2013

 --------------------
 #p B2PLYPD3/Def2QZVP
 --------------------

 ----------
 butane_opt
 ----------
 Symbolic Z-matrix:
 Charge =  0 Multiplicity = 1

                         Standard orientation:
 ---------------------------------------------------------------------
 Center     Atomic      Atomic             Coordinates (Angstroms)
 Number     Number       Type             X           Y           Z
 ---------------------------------------------------------------------
      1          6           0       -1.931152   -0.096520    0.127241
      2          6           0       -0.612296    0.471185   -0.106509
      3          1           0       -2.799870    0.734520   -0.185949
      4          1           0       -2.154887   -0.717166    1.062544
      5          1           0       -2.122613   -0.672233   -0.736372
      6          6           0        0.521065   -0.542994   -0.040985
      7          1           0       -0.472313    0.983423    0.614033
      8          1           0       -0.592453    1.249244   -1.091619
      9          6           0        2.046762    0.149146    0.054584
     10          1           0        0.479361   -1.214956   -0.823750
     11          1           0        0.383069   -1.113872    0.788719
     12          1           0        2.025852    0.316242   -0.565361
     13          1           0        2.717044   -0.546936   -0.370936
     14          1           0        2.390532    1.096833    1.102705
 ---------------------------------------------------------------------

 SCF Done:  E(RB2PLYPD3) =  -157.599101043     A.U. after   11 cycles
 E2(B2PLYPD3) =    -0.2500526346D+00 E(B2PLYPD3) =    -0.15784915367779D+03

 The electronic state is 1-A.
 Alpha  occ. eigenvalues --  -10.61022 -10.60132 -10.59486 -10.59254  -0.93651
 Alpha  occ. eigenvalues --   -0.88689  -0.76445  -0.68738  -0.54451  -0.48615
 Alpha  occ. eigenvalues --   -0.48235  -0.47052  -0.43131  -0.41211  -0.38512
 Alpha  occ. eigenvalues --   -0.37103  -0.36334
 Alpha virt. eigenvalues --    0.05055   0.05782   0.07724   0.08018   0.10695
 Alpha virt. eigenvalues --    0.11272   0.12099   0.12893   0.14524   0.15761
 Alpha virt. eigenvalues --    0.16326   0.16485   0.18580   0.19337   0.21131

 Mulliken charges:
               1
     1  C   -0.155441
     2  C   -0.100180
     3  H    0.025455
     4  H    0.054965
     5  H    0.041384
     6  C   -0.018220
     7  H    0.122687
     8  H    0.005096
     9  C   -0.766519
    10  H    0.033098
    11  H    0.044173
    12  H    0.590059
    13  H    0.051014
    14  H    0.072428
 Sum of Mulliken charges =   0.00000

 Dipole moment (field-independent basis, Debye):
    X=              0.0087    Y=             -0.1152    Z=             -0.2884  Tot=              0.3107
 Quadrupole moment (field-independent basis, Debye-Ang):
   XX=            -30.2004   YY=            -28.8200   ZZ=            -27.3924
   XY=              0.4462   XZ=             -0.7827   YZ=              0.5398

 Normal termination of Gaussian 09 at Wed Aug 26 15:20:13 2020.
