 Gaussian 09, Revision D.01,
 Gaussian 09:  ES64L-G09RevD.01 24-Apr-2013

 --------------------
 #p B2PLYPD3/Def2QZVP
 --------------------

 ----------
 butane_opt
 ----------
 Symbolic Z-matrix:
 Charge =  0 Multiplicity = 1

                         Standard orientation:
 ---------------------------------------------------------------------
 Center     Atomic      Atomic             Coordinates (Angstroms)
 Number     Number       Type             X           Y           Z
 ---------------------------------------------------------------------
      1          6           0        1.975993   -0.190329    0.154957
      2          6           0        0.543873    0.584454   -0.177222
      3          1           0        2.791726    0.535857   -0.113617
      4          1           0        2.165357   -0.559072   -0.560485
      5          1           0        2.105927   -0.961439    1.278001
      6          6           0       -0.568918   -0.526205   -0.144916
      7          1           0        0.622011    1.465887   -1.234007
      8          1           0        0.430110    1.159697    0.625260
      9          6           0       -1.920063    0.104663    0.109819
     10          1           0       -0.636118   -1.031086    0.736549
     11          1           0       -0.566760   -1.189589   -1.088395
     12          1           0       -2.141818    1.223993    1.392601
     13          1           0       -2.674388   -0.724181   -0.269702
     14          1           0       -2.281361    0.244440   -0.422038
 ---------------------------------------------------------------------

 SCF Done:  E(RB2PLYPD3) =  -157.445022475     A.U. after   12 cycles
 E2(B2PLYPD3) =    -0.2567756547D+00 E(B2PLYPD3) =    -0.15770179812948D+03

 The electronic state is 1-A.
 Alpha  occ. eigenvalues --  -10.63520 -10.61840 -10.61667 -10.60241  -0.93886
 Alpha  occ. eigenvalues --   -0.86742  -0.78831  -0.69306  -0.54306  -0.48871
 Alpha  occ. eigenvalues --   -0.46949  -0.44792  -0.40164  -0.39788  -0.37215
 Alpha  occ. eigenvalues --   -0.36898  -0.33648
 Alpha virt. eigenvalues --    0.00778   0.05254   0.05741   0.06711   0.10106
 Alpha virt. eigenvalues --    0.10295   0.12433   0.12530   0.13441   0.15769
 Alpha virt. eigenvalues --    0.15961   0.16140   0.18024   0.18735   0.20861

 Mulliken charges:
               1
     1  C   -0.309960
     2  C   -0.082014
     3  H    0.028913
     4  H    0.190986
     5  H    0.055708
     6  C   -0.030116
     7  H    0.010140
     8  H    0.087438
     9  C   -0.668431
    10  H    0.100696
    11  H    0.034809
    12  H    0.035898
    13  H    0.013729
    14  H    0.532205
 Sum of Mulliken charges =   0.00000

 Dipole moment (field-independent basis, Debye):
    X=             -0.0459    Y=             -0.2077    Z=             -0.6999  Tot=              0.7315
 Quadrupole moment (field-independent basis, Debye-Ang):
   XX=            -30.6131   YY=            -29.3975   ZZ=            -28.0154
   XY=             -0.0357   XZ=              0.9256   YZ=              0.5545

 Normal termination of Gaussian 09 at Wed Aug 26 09:54:32 2020.
