 Gaussian 09, Revision D.01,
 Gaussian 09:  ES64L-G09RevD.01 24-Apr-2013

 --------------------
 #p B2PLYPD3/Def2QZVP
 --------------------

 ----------
 butane_opt
 ----------
 Symbolic Z-matrix:
 Charge =  0 Multiplicity = 1

                         Standard orientation:
 ---------------------------------------------------------------------
 Center     Atomic      Atomic             Coordinates (Angstroms)
 Number     Number       Type             X           Y           Z
 ---------------------------------------------------------------------
      1          6           0        2.003889   -0.175852   -0.092041
      2          6           0        0.590314    0.636141    0.106708
      3          1           0        2.734002    0.301544   -0.493506
      4          1           0        1.783050   -0.677231   -0.714479
      5          1           0        2.518266   -0.913912    0.942317
      6          6           0       -0.640756   -0.432960    0.096741
      7          1           0        0.390350    1.215798   -0.652496
      8          1           0        0.376144    1.184853    0.815796
      9          6           0       -1.988685    0.075492   -0.093049
     10          1           0       -0.777849   -1.016303    1.079058
     11          1           0       -0.278397   -1.259094   -0.815307
     12          1           0       -1.770832    0.803607    0.738152
     13          1           0       -2.775518   -0.805505   -0.128030
     14          1           0       -1.987793    0.549322   -0.881653
 ---------------------------------------------------------------------

 SCF Done:  E(RB2PLYPD3) =  -157.872701983     A.U. after   11 cycles
 E2(B2PLYPD3) =    -0.2487351207D+00 E(B2PLYPD3) =    -0.15812143710397D+03

 The electronic state is 1-A.
 Alpha  occ. eigenvalues --  -10.62682 -10.59479 -10.59240 -10.59126  -0.92271
 Alpha  occ. eigenvalues --   -0.86170  -0.77396  -0.66248  -0.55291  -0.50864
 Alpha  occ. eigenvalues --   -0.50072  -0.48805  -0.44281  -0.40751  -0.38628
 Alpha  occ. eigenvalues --   -0.37674  -0.34529
 Alpha virt. eigenvalues --    0.05380   0.06354   0.08150   0.09058   0.10635
 Alpha virt. eigenvalues --    0.11614   0.12533   0.12850   0.14291   0.16028
 Alpha virt. eigenvalues --    0.16592   0.16767   0.18688   0.19627   0.21670

 Mulliken charges:
               1
     1  C   -0.282286
     2  C   -0.086807
     3  H    0.047703
     4  H    0.203206
     5  H    0.026126
     6  C   -0.039999
     7  H    0.050562
     8  H    0.068027
     9  C   -0.175337
    10  H    0.039634
    11  H   -0.027582
    12  H    0.040996
    13  H    0.059842
    14  H    0.075914
 Sum of Mulliken charges =   0.00000

 Dipole moment (field-independent basis, Debye):
    X=             -0.0306    Y=              0.4210    Z=             -0.4102  Tot=              0.5886
 Quadrupole moment (field-independent basis, Debye-Ang):
   XX=            -29.4228   YY=            -29.0809   ZZ=            -28.1694
   XY=              0.7045   XZ=             -0.5581   YZ=             -0.2496

 Normal termination of Gaussian 09 at Wed Aug 26 16:35:54 2020.
