 Gaussian 09, Revision D.01,
 Gaussian 09:  ES64L-G09RevD.01 24-Apr-2013

 --------------------
 #p B2PLYPD3/Def2QZVP
 --------------------

 ----------
 butane_opt
 ----------
 Symbolic Z-matrix:
 Charge =  0 Multiplicity = 1

                         Standard orientation:
 ---------------------------------------------------------------------
 Center     Atomic      Atomic             Coordinates (Angstroms)
 Number     Number       Type             X           Y           Z
 ---------------------------------------------------------------------
      1          6           0       -1.931535   -0.190861   -0.112665
      2          6           0       -0.524241    0.533277    0.109607
      3          1           0       -2.691049    0.503803   -0.359027
      4          1           0       -2.233255   -0.514015    0.739757
      5          1           0       -1.892498   -1.147915   -1.129412
      6          6           0        0.516104   -0.342853    0.329853
      7          1           0       -0.675222    1.369230    0.759087
      8          1           0       -0.072987    1.184383   -0.969724
      9          6           0        1.904783    0.087070   -0.228113
     10          1           0        0.156044   -0.969317   -0.273729
     11          1           0        0.796579   -1.035153    1.533016
     12          1           0        1.391622    0.167100   -0.851523
     13          1           0        2.948033   -1.040540   -0.596404
     14          1           0        2.482064    0.962624    0.555868
 ---------------------------------------------------------------------

 SCF Done:  E(RB2PLYPD3) =  -157.732433997     A.U. after   11 cycles
 E2(B2PLYPD3) =    -0.2568490314D+00 E(B2PLYPD3) =    -0.15798928302841D+03

 The electronic state is 1-A.
 Alpha  occ. eigenvalues --  -10.64121 -10.63660 -10.62780 -10.62093  -0.97468
 Alpha  occ. eigenvalues --   -0.85321  -0.75742  -0.66537  -0.55397  -0.50052
 Alpha  occ. eigenvalues --   -0.49174  -0.48030  -0.41353  -0.40791  -0.38572
 Alpha  occ. eigenvalues --   -0.35101  -0.33055
 Alpha virt. eigenvalues --    0.03589   0.04806   0.05598   0.07479   0.08827
 Alpha virt. eigenvalues --    0.10569   0.12033   0.12711   0.13297   0.14720
 Alpha virt. eigenvalues --    0.14998   0.16136   0.17981   0.19186   0.19951

 Mulliken charges:
               1
     1  C   -0.152171
     2  C   -0.037734
     3  H    0.049680
     4  H    0.089953
     5  H    0.019105
     6  C   -0.077987
     7  H    0.046728
     8  H   -0.010797
     9  C   -0.348761
    10  H    0.111946
    11  H   -0.004448
    12  H    0.237861
    13  H    0.002275
    14  H    0.074351
 Sum of Mulliken charges =   0.00000

 Dipole moment (field-independent basis, Debye):
    X=             -0.9853    Y=              0.4855    Z=              0.1920  Tot=              1.1151
 Quadrupole moment (field-independent basis, Debye-Ang):
   XX=            -30.3399   YY=            -30.1538   ZZ=            -30.0082
   XY=              0.0078   XZ=              0.2965   YZ=              1.3663

 Normal termination of Gaussian 09 at Wed Aug 26 10:56:34 2020.
