 Gaussian 09, Revision D.01,
 Gaussian 09:  ES64L-G09RevD.01 24-Apr-2013

 --------------------
 #p B2PLYPD3/Def2QZVP
 --------------------

 ----------
 butane_opt
 ----------
 Symbolic Z-matrix:
 Charge =  0 Multiplicity = 1

                         Standard orientation:
 ---------------------------------------------------------------------
 Center     Atomic      Atomic             Coordinates (Angstroms)
 Number     Number       Type             X           Y           Z
 ---------------------------------------------------------------------
      1          6           0       -1.994373   -0.210243    0.120713
      2          6           0       -0.434786    0.560381   -0.137337
      3          1           0       -2.808445    0.475257    0.381997
      4          1           0       -1.645114   -1.022085    1.010635
      5          1           0       -2.527046   -0.504165   -0.690666
      6          6           0        0.601742   -0.378082   -0.256207
      7          1           0       -0.319658    0.879637    0.705468
      8          1           0       -0.448909    1.542086   -1.058690
      9          6           0        1.853670    0.061852    0.181908
     10          1           0        0.654805   -0.745296   -1.193135
     11          1           0        0.240646   -1.185648    0.452550
     12          1           0        2.137582    0.296705   -0.342739
     13          1           0        2.859389   -0.850823   -0.036065
     14          1           0        1.699231    0.910889    1.316184
 ---------------------------------------------------------------------

 SCF Done:  E(RB2PLYPD3) =  -157.542117341     A.U. after   12 cycles
 E2(B2PLYPD3) =    -0.2531370090D+00 E(B2PLYPD3) =    -0.15779525434973D+03

 The electronic state is 1-A.
 Alpha  occ. eigenvalues --  -10.62301 -10.61828 -10.61078 -10.58764  -0.97089
 Alpha  occ. eigenvalues --   -0.85681  -0.77033  -0.68547  -0.57612  -0.52252
 Alpha  occ. eigenvalues --   -0.48055  -0.44962  -0.42850  -0.41302  -0.39165
 Alpha  occ. eigenvalues --   -0.35692  -0.34464
 Alpha virt. eigenvalues --    0.03795   0.06150   0.06904   0.07233   0.09662
 Alpha virt. eigenvalues --    0.11113   0.12177   0.14027   0.14203   0.14533
 Alpha virt. eigenvalues --    0.15350   0.16474   0.17035   0.19899   0.20935

 Mulliken charges:
               1
     1  C   -0.143936
     2  C   -0.148248
     3  H    0.036389
     4  H    0.044259
     5  H    0.055867
     6  C    0.046694
     7  H    0.133416
     8  H    0.003850
     9  C   -0.729563
    10  H    0.043122
    11  H    0.035825
    12  H    0.559371
    13  H    0.014346
    14  H    0.048607
 Sum of Mulliken charges =   0.00000

 Dipole moment (field-independent basis, Debye):
    X=             -0.2611    Y=              0.1825    Z=             -0.4248  Tot=              0.5310
 Quadrupole moment (field-independent basis, Debye-Ang):
   XX=            -29.5555   YY=            -30.2289   ZZ=            -28.3260
   XY=              0.0771   XZ=             -1.0129   YZ=              0.3706

 Normal termination of Gaussian 09 at Wed Aug 26 12:52:57 2020.
