 Gaussian 09, Revision D.01,
 Gaussian 09:  ES64L-G09RevD.01 24-Apr-2013

 --------------------
 #p B2PLYPD3/Def2QZVP
 --------------------

 ----------
 butane_opt
 ----------
 Symbolic Z-matrix:
 Charge =  0 Multiplicity = 1

                         Standard orientation:
 ---------------------------------------------------------------------
 Center     Atomic      Atomic             Coordinates (Angstroms)
 Number     Number       Type             X           Y           Z
 ---------------------------------------------------------------------
      1          6           0        1.899968   -0.164733   -0.133412
      2          6           0        0.436640    0.572111   -0.026530
      3          1           0        2.652770    0.494691    0.031328
      4          1           0        2.105637   -1.286929   -0.955019
      5          1           0        2.234583   -0.423846    0.590007
      6          6           0       -0.551892   -0.432511    0.340418
      7          1           0        0.429611    0.780839   -0.721080
      8          1           0        0.524629    1.791130    0.818523
      9          6           0       -1.857142    0.067489   -0.189660
     10          1           0       -0.475233   -1.116364    1.527157
     11          1           0       -0.296867   -0.848245   -0.198728
     12          1           0       -2.436729    0.861424    0.623657
     13          1           0       -2.755827   -1.076747   -0.587520
     14          1           0       -1.548018    0.569912   -1.073218
 ---------------------------------------------------------------------

 SCF Done:  E(RB2PLYPD3) =  -157.427839054     A.U. after   12 cycles
 E2(B2PLYPD3) =    -0.2546795494D+00 E(B2PLYPD3) =    -0.15768251860336D+03

 The electronic state is 1-A.
 Alpha  occ. eigenvalues --  -10.65599 -10.62396 -10.59919 -10.59835  -0.98792
 Alpha  occ. eigenvalues --   -0.86589  -0.78035  -0.72252  -0.55395  -0.50284
 Alpha  occ. eigenvalues --   -0.48704  -0.44959  -0.41419  -0.40912  -0.39481
 Alpha  occ. eigenvalues --   -0.36398  -0.34767
 Alpha virt. eigenvalues --    0.03646   0.05015   0.05723   0.07577   0.09356
 Alpha virt. eigenvalues --    0.10826   0.11250   0.13605   0.14366   0.15169
 Alpha virt. eigenvalues --    0.15406   0.15882   0.18186   0.18944   0.19965

 Mulliken charges:
               1
     1  C   -0.270552
     2  C   -0.484468
     3  H    0.050361
     4  H    0.032876
     5  H    0.162189
     6  C   -0.500056
     7  H    0.462698
     8  H   -0.013174
     9  C   -0.152679
    10  H    0.043278
    11  H    0.532971
    12  H    0.055556
    13  H    0.002162
    14  H    0.078840
 Sum of Mulliken charges =   0.00000

 Dipole moment (field-independent basis, Debye):
    X=              0.6785    Y=             -0.1163    Z=              0.0188  Tot=              0.6886
 Quadrupole moment (field-independent basis, Debye-Ang):
   XX=            -30.9965   YY=            -29.4612   ZZ=            -28.9139
   XY=             -0.8298   XZ=              0.9202   YZ=              0.2202

 Normal termination of Gaussian 09 at Wed Aug 26 16:12:20 2020.
