 Gaussian 09, Revision D.01,
 Gaussian 09:  ES64L-G09RevD.01 24-Apr-2013

 --------------------
 #p B2PLYPD3/Def2QZVP
 --------------------

 ----------
 butane_opt
 ----------
 Symbolic Z-matrix:
 Charge =  0 Multiplicity = 1

                         Standard orientation:
 ---------------------------------------------------------------------
 Center     Atomic      Atomic             Coordinates (Angstroms)
 Number     Number       Type             X           Y           Z
 ---------------------------------------------------------------------
      1          6           0       -1.954980    0.079909    0.030708
      2          6           0       -0.473024   -0.565514    0.011365
      3          1           0       -2.591613   -0.590288   -0.779468
      4          1           0       -1.597578    0.457396   -0.538621
      5          1           0       -2.402434    1.127071    1.256464
      6          6           0        0.514681    0.523103   -0.053478
      7          1           0       -0.084694   -1.225394   -0.891638
      8          1           0       -0.491735   -0.949437    0.713780
      9          6           0        1.848412   -0.131752    0.078053
     10          1           0        0.575326    0.896222    0.723133
     11          1           0        0.453413    1.475212   -1.181156
     12          1           0        1.791347   -0.898383    1.078378
     13          1           0        2.604074    0.761068   -0.087434
     14          1           0        2.133360   -0.487942   -0.693325
 ---------------------------------------------------------------------

 SCF Done:  E(RB2PLYPD3) =  -157.539661166     A.U. after   12 cycles
 E2(B2PLYPD3) =    -0.2564294731D+00 E(B2PLYPD3) =    -0.15779609063951D+03

 The electronic state is 1-A.
 Alpha  occ. eigenvalues --  -10.61699 -10.60777 -10.60591 -10.59507  -0.96435
 Alpha  occ. eigenvalues --   -0.87174  -0.76030  -0.70914  -0.58242  -0.50445
 Alpha  occ. eigenvalues --   -0.48346  -0.43930  -0.41273  -0.39220  -0.38114
 Alpha  occ. eigenvalues --   -0.37040  -0.34961
 Alpha virt. eigenvalues --    0.00711   0.04717   0.05958   0.07631   0.09929
 Alpha virt. eigenvalues --    0.11107   0.11931   0.12119   0.13635   0.14812
 Alpha virt. eigenvalues --    0.15338   0.17169   0.17933   0.18926   0.21224

 Mulliken charges:
               1
     1  C   -0.516290
     2  C   -0.280844
     3  H    0.049635
     4  H    0.386046
     5  H    0.049502
     6  C   -0.144765
     7  H    0.058247
     8  H    0.235176
     9  C   -0.188542
    10  H    0.181773
    11  H    0.000183
    12  H    0.061015
    13  H    0.024014
    14  H    0.084851
 Sum of Mulliken charges =   0.00000

 Dipole moment (field-independent basis, Debye):
    X=              0.7758    Y=             -0.1364    Z=             -0.1384  Tot=              0.7997
 Quadrupole moment (field-independent basis, Debye-Ang):
   XX=            -32.5687   YY=            -29.4927   ZZ=            -27.4647
   XY=             -0.4280   XZ=             -0.5196   YZ=              0.5479

 Normal termination of Gaussian 09 at Wed Aug 26 12:07:31 2020.
