 Gaussian 09, Revision D.01,
 Gaussian 09:  ES64L-G09RevD.01 24-Apr-2013

 --------------------
 #p B2PLYPD3/Def2QZVP
 --------------------

 ----------
 butane_opt
 ----------
 Symbolic Z-matrix:
 Charge =  0 Multiplicity = 1

                         Standard orientation:
 ---------------------------------------------------------------------
 Center     Atomic      Atomic             Coordinates (Angstroms)
 Number     Number       Type             X           Y           Z
 ---------------------------------------------------------------------
      1          6           0       -1.900342    0.018822    0.152345
      2          6           0       -0.568866   -0.454908   -0.254849
      3          1           0       -2.721754   -0.613871   -0.286427
      4          1           0       -2.005740    0.171622   -0.354749
      5          1           0       -2.486530    0.852606    1.362299
      6          6           0        0.525108    0.612913    0.009241
      7          1           0       -0.690761   -1.153811   -1.325835
      8          1           0       -0.611942   -0.950331    0.298072
      9          6           0        2.031921   -0.181257    0.124429
     10          1           0        0.112133    0.909205    0.842572
     11          1           0        0.559255    1.881711   -0.930674
     12          1           0        2.728790   -1.502527    1.237079
     13          1           0        2.780330    0.535233   -0.621410
     14          1           0        1.809291   -0.103255   -0.407923
 ---------------------------------------------------------------------

 SCF Done:  E(RB2PLYPD3) =  -156.182161072     A.U. after   14 cycles
 E2(B2PLYPD3) =    -0.2693393331D+00 E(B2PLYPD3) =    -0.15645150040514D+03

 The electronic state is 1-A.
 Alpha  occ. eigenvalues --  -10.67286 -10.64324 -10.62303 -10.60427  -1.00395
 Alpha  occ. eigenvalues --   -0.94406  -0.83409  -0.71873  -0.53755  -0.48726
 Alpha  occ. eigenvalues --   -0.45698  -0.43722  -0.41647  -0.38449  -0.37758
 Alpha  occ. eigenvalues --   -0.35569  -0.31346
 Alpha virt. eigenvalues --   -0.04055   0.02336   0.03236   0.05682   0.07199
 Alpha virt. eigenvalues --    0.10324   0.11351   0.12826   0.14001   0.15510
 Alpha virt. eigenvalues --    0.15800   0.16207   0.16829   0.18684   0.19810

 Mulliken charges:
               1
     1  C   -0.981222
     2  C   -0.406335
     3  H    0.041199
     4  H    0.775225
     5  H    0.070273
     6  C   -0.086620
     7  H    0.027911
     8  H    0.459731
     9  C   -1.006538
    10  H    0.111397
    11  H    0.017978
    12  H    0.094055
    13  H    0.044287
    14  H    0.838656
 Sum of Mulliken charges =   0.00000

 Dipole moment (field-independent basis, Debye):
    X=             -0.9967    Y=             -0.3805    Z=             -0.5010  Tot=              1.1787
 Quadrupole moment (field-independent basis, Debye-Ang):
   XX=            -30.1168   YY=            -29.3630   ZZ=            -27.6460
   XY=             -1.8220   XZ=              0.0636   YZ=             -0.9332

 Normal termination of Gaussian 09 at Wed Aug 26 23:51:14 2020.
