 Gaussian 09, Revision D.01,
 Gaussian 09:  ES64L-G09RevD.01 24-Apr-2013

 --------------------
 #p B2PLYPD3/Def2QZVP
 --------------------

 ----------
 butane_opt
 ----------
 Symbolic Z-matrix:
 Charge =  0 Multiplicity = 1

                         Standard orientation:
 ---------------------------------------------------------------------
 Center     Atomic      Atomic             Coordinates (Angstroms)
 Number     Number       Type             X           Y           Z
 ---------------------------------------------------------------------
      1          6           0       -1.955460   -0.210648    0.168526
      2          6           0       -0.496755    0.582270   -0.124383
      3          1           0       -2.753329    0.401409    0.497652
      4          1           0       -1.598176   -0.761629    0.870829
      5          1           0       -2.585818   -0.617895   -0.807487
      6          6           0        0.597039   -0.389743   -0.284193
      7          1           0       -0.326289    0.880022    0.615892
      8          1           0       -0.283189    1.697979   -1.190686
      9          6           0        1.911205    0.037979    0.162546
     10          1           0        0.386159   -0.883025   -1.279932
     11          1           0        0.226916   -1.338089    0.625914
     12          1           0        2.097929    0.476640   -0.410083
     13          1           0        2.902519   -0.852701    0.035752
     14          1           0        1.597105    0.878139    1.507169
 ---------------------------------------------------------------------

 SCF Done:  E(RB2PLYPD3) =  -157.616761654     A.U. after   12 cycles
 E2(B2PLYPD3) =    -0.2564740528D+00 E(B2PLYPD3) =    -0.15787323570650D+03

 The electronic state is 1-A.
 Alpha  occ. eigenvalues --  -10.63765 -10.63550 -10.62759 -10.61698  -0.95080
 Alpha  occ. eigenvalues --   -0.86125  -0.76435  -0.67592  -0.55260  -0.53049
 Alpha  occ. eigenvalues --   -0.47657  -0.45535  -0.41206  -0.40304  -0.38831
 Alpha  occ. eigenvalues --   -0.36487  -0.32974
 Alpha virt. eigenvalues --    0.01743   0.04223   0.06043   0.06414   0.09342
 Alpha virt. eigenvalues --    0.10999   0.11896   0.12693   0.13497   0.14802
 Alpha virt. eigenvalues --    0.15724   0.16081   0.17102   0.19351   0.19935

 Mulliken charges:
               1
     1  C   -0.130917
     2  C   -0.295380
     3  H    0.041354
     4  H    0.099347
     5  H    0.037402
     6  C   -0.012233
     7  H    0.267249
     8  H   -0.024019
     9  C   -0.467879
    10  H    0.061993
    11  H   -0.020225
    12  H    0.378797
    13  H    0.054732
    14  H    0.009778
 Sum of Mulliken charges =   0.00000

 Dipole moment (field-independent basis, Debye):
    X=             -0.1552    Y=             -0.1488    Z=             -0.1550  Tot=              0.2651
 Quadrupole moment (field-independent basis, Debye-Ang):
   XX=            -28.5489   YY=            -31.5411   ZZ=            -29.0585
   XY=             -0.2208   XZ=             -1.8117   YZ=              0.6876

 Normal termination of Gaussian 09 at Wed Aug 26 19:11:23 2020.
