 Gaussian 09, Revision D.01,
 Gaussian 09:  ES64L-G09RevD.01 24-Apr-2013

 --------------------
 #p B2PLYPD3/Def2QZVP
 --------------------

 ----------
 butane_opt
 ----------
 Symbolic Z-matrix:
 Charge =  0 Multiplicity = 1

                         Standard orientation:
 ---------------------------------------------------------------------
 Center     Atomic      Atomic             Coordinates (Angstroms)
 Number     Number       Type             X           Y           Z
 ---------------------------------------------------------------------
      1          6           0        1.852509   -0.015124    0.125620
      2          6           0        0.600378    0.453897   -0.195252
      3          1           0        2.787884    0.679198   -0.333448
      4          1           0        2.263968   -0.469997   -0.570087
      5          1           0        2.198657   -0.726403    1.252283
      6          6           0       -0.524007   -0.625545    0.097133
      7          1           0        0.579256    1.162896   -1.263993
      8          1           0        0.526423    0.929223    0.540497
      9          6           0       -2.021297    0.126637    0.062020
     10          1           0        0.087283   -0.839485    0.828378
     11          1           0       -0.559079   -1.420335   -0.816520
     12          1           0       -2.880672    1.595861    1.124302
     13          1           0       -2.697536   -0.655136   -0.755430
     14          1           0       -1.751684    0.104991   -0.543106
 ---------------------------------------------------------------------

 SCF Done:  E(RB2PLYPD3) =  -157.292766500     A.U. after   13 cycles
 E2(B2PLYPD3) =    -0.2663672742D+00 E(B2PLYPD3) =    -0.15755913377393D+03

 The electronic state is 1-A.
 Alpha  occ. eigenvalues --  -10.64634 -10.64390 -10.62018 -10.60328  -0.97287
 Alpha  occ. eigenvalues --   -0.91143  -0.77752  -0.69499  -0.55024  -0.49944
 Alpha  occ. eigenvalues --   -0.46897  -0.44974  -0.40681  -0.40062  -0.38185
 Alpha  occ. eigenvalues --   -0.34004  -0.31372
 Alpha virt. eigenvalues --   -0.05490   0.04335   0.04770   0.06115   0.09839
 Alpha virt. eigenvalues --    0.10216   0.11735   0.12534   0.13849   0.15728
 Alpha virt. eigenvalues --    0.15887   0.16587   0.17187   0.18035   0.19491

 Mulliken charges:
               1
     1  C   -0.209818
     2  C   -0.183607
     3  H    0.025910
     4  H    0.085729
     5  H    0.042292
     6  C   -0.064596
     7  H    0.018368
     8  H    0.206639
     9  C   -0.810743
    10  H    0.101264
    11  H    0.024550
    12  H    0.063593
    13  H    0.026333
    14  H    0.674084
 Sum of Mulliken charges =   0.00000

 Dipole moment (field-independent basis, Debye):
    X=              1.0666    Y=              0.0629    Z=             -0.8948  Tot=              1.3937
 Quadrupole moment (field-independent basis, Debye-Ang):
   XX=            -31.4956   YY=            -30.3324   ZZ=            -28.0547
   XY=             -2.0779   XZ=              0.2524   YZ=              1.2118

 Normal termination of Gaussian 09 at Wed Aug 26 23:01:10 2020.
