 Gaussian 09, Revision D.01,
 Gaussian 09:  ES64L-G09RevD.01 24-Apr-2013

 --------------------
 #p B2PLYPD3/Def2QZVP
 --------------------

 ----------
 butane_opt
 ----------
 Symbolic Z-matrix:
 Charge =  0 Multiplicity = 1

                         Standard orientation:
 ---------------------------------------------------------------------
 Center     Atomic      Atomic             Coordinates (Angstroms)
 Number     Number       Type             X           Y           Z
 ---------------------------------------------------------------------
      1          6           0        1.945401    0.090516   -0.044828
      2          6           0        0.626626   -0.522595    0.056939
      3          1           0        2.647794   -0.563670   -0.377526
      4          1           0        2.131594    1.026128    0.969508
      5          1           0        1.970838    0.480322   -0.686838
      6          6           0       -0.546399    0.572198   -0.004555
      7          1           0        0.547229   -1.317704    1.055387
      8          1           0        0.417034   -1.090822   -0.736652
      9          6           0       -1.999677   -0.136044   -0.002982
     10          1           0       -0.376702    1.149309   -0.857775
     11          1           0       -0.477783    1.246188    0.755011
     12          1           0       -2.088733   -0.754772   -0.879223
     13          1           0       -2.743679    0.530188   -0.127057
     14          1           0       -2.183301   -0.729615    0.857721
 ---------------------------------------------------------------------

 SCF Done:  E(RB2PLYPD3) =  -157.889089169     A.U. after   11 cycles
 E2(B2PLYPD3) =    -0.2466597214D+00 E(B2PLYPD3) =    -0.15813574889018D+03

 The electronic state is 1-A.
 Alpha  occ. eigenvalues --  -10.61157 -10.60053 -10.58771 -10.57745  -0.92653
 Alpha  occ. eigenvalues --   -0.85192  -0.75480  -0.68871  -0.54049  -0.50356
 Alpha  occ. eigenvalues --   -0.50288  -0.46937  -0.43887  -0.40926  -0.39421
 Alpha  occ. eigenvalues --   -0.37301  -0.36777
 Alpha virt. eigenvalues --    0.05230   0.06738   0.08096   0.08707   0.10916
 Alpha virt. eigenvalues --    0.11852   0.12843   0.13591   0.14592   0.15466
 Alpha virt. eigenvalues --    0.16238   0.16859   0.19114   0.19714   0.21466

 Mulliken charges:
               1
     1  C   -0.437193
     2  C   -0.018937
     3  H    0.046598
     4  H    0.030757
     5  H    0.307824
     6  C   -0.057439
     7  H    0.004930
     8  H    0.055467
     9  C   -0.136060
    10  H    0.034999
    11  H    0.039813
    12  H    0.028695
    13  H    0.044231
    14  H    0.056315
 Sum of Mulliken charges =   0.00000

 Dipole moment (field-independent basis, Debye):
    X=             -0.1282    Y=              0.1403    Z=             -0.7403  Tot=              0.7643
 Quadrupole moment (field-independent basis, Debye-Ang):
   XX=            -29.3560   YY=            -28.5584   ZZ=            -27.8828
   XY=             -0.3368   XZ=             -1.4334   YZ=              0.3679

 Normal termination of Gaussian 09 at Wed Aug 26 09:37:34 2020.
