 Gaussian 09, Revision D.01,
 Gaussian 09:  ES64L-G09RevD.01 24-Apr-2013

 --------------------
 #p B2PLYPD3/Def2QZVP
 --------------------

 ----------
 butane_opt
 ----------
 Symbolic Z-matrix:
 Charge =  0 Multiplicity = 1

                         Standard orientation:
 ---------------------------------------------------------------------
 Center     Atomic      Atomic             Coordinates (Angstroms)
 Number     Number       Type             X           Y           Z
 ---------------------------------------------------------------------
      1          6           0        1.914364   -0.141630   -0.086110
      2          6           0        0.470677    0.569055    0.182204
      3          1           0        2.605284    0.175950   -0.934859
      4          1           0        1.807494   -0.425549   -0.763015
      5          1           0        2.551287   -0.922985    1.044354
      6          6           0       -0.533186   -0.440658    0.116868
      7          1           0        0.457350    1.083689   -0.592277
      8          1           0        0.260571    1.485321    1.050364
      9          6           0       -1.889337    0.033788   -0.117620
     10          1           0       -0.656472   -0.810425    0.937194
     11          1           0       -0.403105   -1.218097   -0.670702
     12          1           0       -1.979804    0.480603    0.608219
     13          1           0       -2.720446   -0.735189   -0.085701
     14          1           0       -1.697268    0.763351   -1.165632
 ---------------------------------------------------------------------

 SCF Done:  E(RB2PLYPD3) =  -157.638673126     A.U. after   11 cycles
 E2(B2PLYPD3) =    -0.2522756397D+00 E(B2PLYPD3) =    -0.15789094876558D+03

 The electronic state is 1-A.
 Alpha  occ. eigenvalues --  -10.61747 -10.61365 -10.58988 -10.57301  -0.96358
 Alpha  occ. eigenvalues --   -0.89923  -0.78539  -0.69341  -0.57200  -0.51874
 Alpha  occ. eigenvalues --   -0.49757  -0.46141  -0.43841  -0.38794  -0.38006
 Alpha  occ. eigenvalues --   -0.36295  -0.34447
 Alpha virt. eigenvalues --    0.04289   0.05818   0.06939   0.07887   0.10249
 Alpha virt. eigenvalues --    0.10901   0.12003   0.12807   0.14498   0.15270
 Alpha virt. eigenvalues --    0.16769   0.17557   0.18239   0.18886   0.21193

 Mulliken charges:
               1
     1  C   -0.586842
     2  C   -0.096387
     3  H    0.043133
     4  H    0.460297
     5  H    0.037746
     6  C   -0.048505
     7  H    0.104754
     8  H    0.021629
     9  C   -0.240488
    10  H    0.076150
    11  H    0.025309
    12  H    0.142591
    13  H    0.047631
    14  H    0.012984
 Sum of Mulliken charges =   0.00000

 Dipole moment (field-independent basis, Debye):
    X=             -0.4051    Y=             -0.3175    Z=             -0.4021  Tot=              0.6532
 Quadrupole moment (field-independent basis, Debye-Ang):
   XX=            -31.3396   YY=            -29.8278   ZZ=            -26.9622
   XY=              0.0700   XZ=             -2.9238   YZ=             -0.1173

 Normal termination of Gaussian 09 at Wed Aug 26 18:52:46 2020.
