 Gaussian 09, Revision D.01,
 Gaussian 09:  ES64L-G09RevD.01 24-Apr-2013

 --------------------
 #p B2PLYPD3/Def2QZVP
 --------------------

 ----------
 butane_opt
 ----------
 Symbolic Z-matrix:
 Charge =  0 Multiplicity = 1

                         Standard orientation:
 ---------------------------------------------------------------------
 Center     Atomic      Atomic             Coordinates (Angstroms)
 Number     Number       Type             X           Y           Z
 ---------------------------------------------------------------------
      1          6           0       -1.917825   -0.180732    0.095417
      2          6           0       -0.455854    0.627530    0.043019
      3          1           0       -2.652460    0.706935   -0.766234
      4          1           0       -2.673738   -1.609776    1.287772
      5          1           0       -2.021351   -0.083313   -0.455452
      6          6           0        0.589272   -0.472248   -0.193655
      7          1           0       -0.153406    0.847635    0.777131
      8          1           0       -0.511175    1.613899   -0.940635
      9          6           0        1.879978    0.022912    0.094226
     10          1           0        0.320696   -1.190480   -1.285381
     11          1           0        0.556512   -0.697593    0.403268
     12          1           0        1.962085    0.242539   -0.429607
     13          1           0        2.704813   -0.804177   -0.283434
     14          1           0        1.894600    0.989562    1.458533
 ---------------------------------------------------------------------

 SCF Done:  E(RB2PLYPD3) =  -155.984964132     A.U. after   15 cycles
 E2(B2PLYPD3) =    -0.2723377595D+00 E(B2PLYPD3) =    -0.15625730189169D+03

 The electronic state is 1-A.
 Alpha  occ. eigenvalues --  -10.66546 -10.63512 -10.62586 -10.58793  -1.01672
 Alpha  occ. eigenvalues --   -0.93327  -0.85191  -0.74557  -0.56069  -0.50007
 Alpha  occ. eigenvalues --   -0.46628  -0.44285  -0.41871  -0.40843  -0.35959
 Alpha  occ. eigenvalues --   -0.35189  -0.29414
 Alpha virt. eigenvalues --   -0.06437   0.00447   0.01238   0.05454   0.08234
 Alpha virt. eigenvalues --    0.09611   0.11189   0.12658   0.13315   0.14547
 Alpha virt. eigenvalues --    0.15606   0.15727   0.17993   0.18781   0.19782

 Mulliken charges:
               1
     1  C   -0.926671
     2  C   -0.175843
     3  H   -0.004264
     4  H    0.088794
     5  H    0.768393
     6  C   -0.809651
     7  H    0.256140
     8  H    0.019366
     9  C   -0.856202
    10  H    0.063964
    11  H    0.765369
    12  H    0.684766
    13  H    0.077601
    14  H    0.048237
 Sum of Mulliken charges =   0.00000

 Dipole moment (field-independent basis, Debye):
    X=              0.7169    Y=             -0.5121    Z=             -0.6315  Tot=              1.0840
 Quadrupole moment (field-independent basis, Debye-Ang):
   XX=            -33.1948   YY=            -29.3990   ZZ=            -26.7522
   XY=              2.4894   XZ=             -0.1060   YZ=             -0.8138

 Normal termination of Gaussian 09 at Wed Aug 26 11:40:07 2020.
