 Gaussian 09, Revision D.01,
 Gaussian 09:  ES64L-G09RevD.01 24-Apr-2013

 --------------------
 #p B2PLYPD3/Def2QZVP
 --------------------

 ----------
 butane_opt
 ----------
 Symbolic Z-matrix:
 Charge =  0 Multiplicity = 1

                         Standard orientation:
 ---------------------------------------------------------------------
 Center     Atomic      Atomic             Coordinates (Angstroms)
 Number     Number       Type             X           Y           Z
 ---------------------------------------------------------------------
      1          6           0        1.887795    0.035639    0.150786
      2          6           0        0.553747   -0.403664   -0.259899
      3          1           0        2.763808   -0.892964    0.220600
      4          1           0        1.553708    0.823285    1.274624
      5          1           0        2.019948    0.731176   -0.670311
      6          6           0       -0.453899    0.566575   -0.107481
      7          1           0        0.260514   -1.269270    0.709206
      8          1           0        0.671482   -1.039534   -1.192482
      9          6           0       -1.906769   -0.122738    0.146310
     10          1           0       -0.386961    1.421618   -0.898294
     11          1           0       -0.180954    1.015607    0.617102
     12          1           0       -2.592360   -0.638498   -0.876855
     13          1           0       -2.681186    0.344317    0.291187
     14          1           0       -1.913244   -0.950605    0.946925
 ---------------------------------------------------------------------

 SCF Done:  E(RB2PLYPD3) =  -157.898692090     A.U. after   11 cycles
 E2(B2PLYPD3) =    -0.2534472767D+00 E(B2PLYPD3) =    -0.15815213936702D+03

 The electronic state is 1-A.
 Alpha  occ. eigenvalues --  -10.64703 -10.62414 -10.61820 -10.60625  -0.94706
 Alpha  occ. eigenvalues --   -0.82736  -0.75279  -0.65276  -0.54576  -0.51081
 Alpha  occ. eigenvalues --   -0.49701  -0.45586  -0.42084  -0.40586  -0.37858
 Alpha  occ. eigenvalues --   -0.37128  -0.33501
 Alpha virt. eigenvalues --    0.04217   0.05709   0.07023   0.07706   0.10132
 Alpha virt. eigenvalues --    0.11536   0.11841   0.12865   0.14705   0.15083
 Alpha virt. eigenvalues --    0.15402   0.16104   0.18397   0.19970   0.20944

 Mulliken charges:
               1
     1  C   -0.178596
     2  C    0.004639
     3  H    0.067044
     4  H    0.007083
     5  H    0.061937
     6  C   -0.090018
     7  H   -0.021398
     8  H    0.049534
     9  C   -0.173379
    10  H    0.015044
    11  H    0.124591
    12  H   -0.005122
    13  H    0.090020
    14  H    0.048620
 Sum of Mulliken charges =   0.00000

 Dipole moment (field-independent basis, Debye):
    X=             -0.0654    Y=              0.3050    Z=             -0.1599  Tot=              0.3506
 Quadrupole moment (field-independent basis, Debye-Ang):
   XX=            -29.6218   YY=            -29.8132   ZZ=            -29.4926
   XY=             -1.4492   XZ=             -1.5400   YZ=             -0.2805

 Normal termination of Gaussian 09 at Wed Aug 26 19:01:07 2020.
