 Gaussian 09, Revision D.01,
 Gaussian 09:  ES64L-G09RevD.01 24-Apr-2013

 --------------------
 #p B2PLYPD3/Def2QZVP
 --------------------

 ----------
 butane_opt
 ----------
 Symbolic Z-matrix:
 Charge =  0 Multiplicity = 1

                         Standard orientation:
 ---------------------------------------------------------------------
 Center     Atomic      Atomic             Coordinates (Angstroms)
 Number     Number       Type             X           Y           Z
 ---------------------------------------------------------------------
      1          6           0        1.907618    0.106870   -0.221476
      2          6           0        0.590036   -0.454393    0.220067
      3          1           0        2.813025   -0.871912   -0.167508
      4          1           0        2.083004    0.464553    0.461718
      5          1           0        1.727633    0.947619   -1.154342
      6          6           0       -0.505670    0.491229    0.262954
      7          1           0        0.446870   -1.002016    1.138243
      8          1           0        0.112558   -1.184483   -0.658568
      9          6           0       -1.911086   -0.196529   -0.129093
     10          1           0       -0.470565    1.210007   -0.615117
     11          1           0       -0.257450    1.454244    1.347416
     12          1           0       -1.641976   -0.720077   -0.986881
     13          1           0       -2.751984    0.675725   -0.842139
     14          1           0       -2.546503   -0.656724    0.682473
 ---------------------------------------------------------------------

 SCF Done:  E(RB2PLYPD3) =  -157.830162266     A.U. after   11 cycles
 E2(B2PLYPD3) =    -0.2552683836D+00 E(B2PLYPD3) =    -0.15808543064968D+03

 The electronic state is 1-A.
 Alpha  occ. eigenvalues --  -10.65060 -10.64529 -10.61909 -10.61303  -0.93575
 Alpha  occ. eigenvalues --   -0.84216  -0.74014  -0.64306  -0.55111  -0.50413
 Alpha  occ. eigenvalues --   -0.47644  -0.46835  -0.42758  -0.39940  -0.37549
 Alpha  occ. eigenvalues --   -0.36291  -0.33707
 Alpha virt. eigenvalues --    0.04452   0.05060   0.06071   0.07589   0.09499
 Alpha virt. eigenvalues --    0.10912   0.12019   0.12517   0.13772   0.15018
 Alpha virt. eigenvalues --    0.15795   0.16424   0.17242   0.18705   0.20062

 Mulliken charges:
               1
     1  C   -0.390423
     2  C   -0.020486
     3  H    0.036410
     4  H    0.288902
     5  H    0.061680
     6  C   -0.053077
     7  H    0.060729
     8  H   -0.000723
     9  C   -0.165920
    10  H    0.034424
    11  H   -0.017338
    12  H    0.091334
    13  H   -0.000655
    14  H    0.075144
 Sum of Mulliken charges =   0.00000

 Dipole moment (field-independent basis, Debye):
    X=              0.1620    Y=             -0.3023    Z=             -0.0144  Tot=              0.3433
 Quadrupole moment (field-independent basis, Debye-Ang):
   XX=            -31.1415   YY=            -30.4698   ZZ=            -29.0094
   XY=              1.1646   XZ=              1.0770   YZ=             -1.2670

 Normal termination of Gaussian 09 at Wed Aug 26 23:30:05 2020.
