 Gaussian 09, Revision D.01,
 Gaussian 09:  ES64L-G09RevD.01 24-Apr-2013

 --------------------
 #p B2PLYPD3/Def2QZVP
 --------------------

 ----------
 butane_opt
 ----------
 Symbolic Z-matrix:
 Charge =  0 Multiplicity = 1

                         Standard orientation:
 ---------------------------------------------------------------------
 Center     Atomic      Atomic             Coordinates (Angstroms)
 Number     Number       Type             X           Y           Z
 ---------------------------------------------------------------------
      1          6           0        1.834011   -0.012570    0.144619
      2          6           0        0.618401    0.430282   -0.210865
      3          1           0        2.610996    0.711561    0.129907
      4          1           0        2.058832   -0.647838   -0.717677
      5          1           0        1.776577   -0.720747    1.320859
      6          6           0       -0.499350   -0.598278    0.016786
      7          1           0        0.615005    1.205451   -1.313079
      8          1           0        0.663142    0.898617    0.451347
      9          6           0       -1.959781    0.135273    0.041607
     10          1           0       -0.372205   -0.898918    0.741720
     11          1           0       -0.133624   -1.402973   -0.710037
     12          1           0       -2.687129    1.417244    1.153353
     13          1           0       -2.696266   -0.580969   -0.554003
     14          1           0       -1.795015    0.290332   -0.455273
 ---------------------------------------------------------------------

 SCF Done:  E(RB2PLYPD3) =  -156.949924773     A.U. after   13 cycles
 E2(B2PLYPD3) =    -0.2577059186D+00 E(B2PLYPD3) =    -0.15720763069158D+03

 The electronic state is 1-A.
 Alpha  occ. eigenvalues --  -10.64345 -10.61782 -10.59875 -10.58190  -0.98530
 Alpha  occ. eigenvalues --   -0.92048  -0.79284  -0.68776  -0.57832  -0.50775
 Alpha  occ. eigenvalues --   -0.48421  -0.46923  -0.42961  -0.39175  -0.37124
 Alpha  occ. eigenvalues --   -0.35995  -0.35064
 Alpha virt. eigenvalues --   -0.02240   0.05403   0.05793   0.07569   0.09964
 Alpha virt. eigenvalues --    0.10995   0.11751   0.12390   0.14161   0.15411
 Alpha virt. eigenvalues --    0.15522   0.16714   0.18040   0.19225   0.20447

 Mulliken charges:
               1
     1  C   -0.163104
     2  C   -0.252471
     3  H    0.065791
     4  H    0.024234
     5  H    0.020810
     6  C   -0.240298
     7  H    0.008806
     8  H    0.271743
     9  C   -1.014428
    10  H    0.273224
    11  H    0.054209
    12  H    0.053634
    13  H    0.084913
    14  H    0.812937
 Sum of Mulliken charges =   0.00000

 Dipole moment (field-independent basis, Debye):
    X=              0.4793    Y=              0.2795    Z=             -0.2233  Tot=              0.5981
 Quadrupole moment (field-independent basis, Debye-Ang):
   XX=            -30.5572   YY=            -28.9386   ZZ=            -27.9477
   XY=              0.3719   XZ=              0.3923   YZ=              0.8195

 Normal termination of Gaussian 09 at Wed Aug 26 19:52:35 2020.
