 Gaussian 09, Revision D.01,
 Gaussian 09:  ES64L-G09RevD.01 24-Apr-2013

 --------------------
 #p B2PLYPD3/Def2QZVP
 --------------------

 ----------
 butane_opt
 ----------
 Symbolic Z-matrix:
 Charge =  0 Multiplicity = 1

                         Standard orientation:
 ---------------------------------------------------------------------
 Center     Atomic      Atomic             Coordinates (Angstroms)
 Number     Number       Type             X           Y           Z
 ---------------------------------------------------------------------
      1          6           0        1.966649    0.135158   -0.159537
      2          6           0        0.541665   -0.509708    0.188967
      3          1           0        2.850919   -0.854520   -0.667378
      4          1           0        2.540938    1.212196    0.866733
      5          1           0        2.067911    0.386954   -0.871690
      6          6           0       -0.666188    0.466575    0.120942
      7          1           0        0.565321   -1.254373    1.457131
      8          1           0        0.421814   -0.709285   -0.367073
      9          6           0       -1.927208   -0.115495   -0.173142
     10          1           0       -0.317844    1.014917   -0.758509
     11          1           0       -0.688730    1.239091    1.008633
     12          1           0       -1.877888   -0.783410   -1.002716
     13          1           0       -2.846088    0.600004   -0.303543
     14          1           0       -2.205857   -0.710755    0.775030
 ---------------------------------------------------------------------

 SCF Done:  E(RB2PLYPD3) =  -157.317119674     A.U. after   12 cycles
 E2(B2PLYPD3) =    -0.2548774410D+00 E(B2PLYPD3) =    -0.15757199711526D+03

 The electronic state is 1-A.
 Alpha  occ. eigenvalues --  -10.64910 -10.62795 -10.61816 -10.61288  -0.97010
 Alpha  occ. eigenvalues --   -0.86504  -0.78696  -0.68091  -0.55502  -0.51747
 Alpha  occ. eigenvalues --   -0.49866  -0.46060  -0.41663  -0.40117  -0.37699
 Alpha  occ. eigenvalues --   -0.37146  -0.33908
 Alpha virt. eigenvalues --    0.02141   0.05578   0.06365   0.07399   0.08847
 Alpha virt. eigenvalues --    0.10286   0.11597   0.11829   0.13801   0.15150
 Alpha virt. eigenvalues --    0.15761   0.16531   0.17764   0.19116   0.20044

 Mulliken charges:
               1
     1  C   -0.419745
     2  C   -0.893026
     3  H    0.003480
     4  H    0.027038
     5  H    0.350178
     6  C    0.009469
     7  H    0.034771
     8  H    0.826536
     9  C   -0.138237
    10  H    0.029191
    11  H    0.034869
    12  H    0.048723
    13  H    0.047889
    14  H    0.038864
 Sum of Mulliken charges =   0.00000

 Dipole moment (field-independent basis, Debye):
    X=             -0.7648    Y=              0.1975    Z=             -0.7701  Tot=              1.1032
 Quadrupole moment (field-independent basis, Debye-Ang):
   XX=            -31.5798   YY=            -30.3221   ZZ=            -27.7618
   XY=              0.1747   XZ=             -1.3002   YZ=              0.5901

 Normal termination of Gaussian 09 at Wed Aug 26 12:02:30 2020.
