 Gaussian 09, Revision D.01,
 Gaussian 09:  ES64L-G09RevD.01 24-Apr-2013

 --------------------
 #p B2PLYPD3/Def2QZVP
 --------------------

 ----------
 butane_opt
 ----------
 Symbolic Z-matrix:
 Charge =  0 Multiplicity = 1

                         Standard orientation:
 ---------------------------------------------------------------------
 Center     Atomic      Atomic             Coordinates (Angstroms)
 Number     Number       Type             X           Y           Z
 ---------------------------------------------------------------------
      1          6           0        1.929440   -0.107897   -0.062878
      2          6           0        0.611561    0.501014    0.059744
      3          1           0        2.642781    0.589437   -0.372205
      4          1           0        1.975011   -0.528243   -0.847407
      5          1           0        2.137621   -0.862290    0.992387
      6          6           0       -0.567375   -0.560498    0.039441
      7          1           0        0.523179    1.046226   -0.660497
      8          1           0        0.602455    1.328889    1.113856
      9          6           0       -1.986370    0.120888   -0.037569
     10          1           0       -0.460628   -1.132109    0.825155
     11          1           0       -0.301295   -1.175581   -0.779849
     12          1           0       -2.214708    0.701371    0.774192
     13          1           0       -2.683137   -0.500510   -0.072363
     14          1           0       -2.144816    0.811764   -0.965694
 ---------------------------------------------------------------------

 SCF Done:  E(RB2PLYPD3) =  -157.960377785     A.U. after   11 cycles
 E2(B2PLYPD3) =    -0.2461100965D+00 E(B2PLYPD3) =    -0.15820648788113D+03

 The electronic state is 1-A.
 Alpha  occ. eigenvalues --  -10.60135 -10.59678 -10.58704 -10.58382  -0.92395
 Alpha  occ. eigenvalues --   -0.85280  -0.75480  -0.69114  -0.54548  -0.50727
 Alpha  occ. eigenvalues --   -0.49884  -0.47459  -0.43559  -0.41192  -0.39584
 Alpha  occ. eigenvalues --   -0.38386  -0.35718
 Alpha virt. eigenvalues --    0.05403   0.06811   0.08058   0.08790   0.11065
 Alpha virt. eigenvalues --    0.12116   0.12724   0.13841   0.14670   0.15105
 Alpha virt. eigenvalues --    0.16332   0.16895   0.19196   0.19938   0.21617

 Mulliken charges:
               1
     1  C   -0.186395
     2  C   -0.064712
     3  H    0.038433
     4  H    0.084862
     5  H    0.033030
     6  C   -0.058547
     7  H    0.089832
     8  H   -0.014159
     9  C   -0.132390
    10  H    0.056384
    11  H    0.032812
    12  H    0.048147
    13  H    0.057041
    14  H    0.015662
 Sum of Mulliken charges =   0.00000

 Dipole moment (field-independent basis, Debye):
    X=             -0.1498    Y=             -0.2120    Z=             -0.5545  Tot=              0.6122
 Quadrupole moment (field-independent basis, Debye-Ang):
   XX=            -28.9125   YY=            -28.9852   ZZ=            -27.7910
   XY=              0.4444   XZ=             -1.5595   YZ=             -0.7353

 Normal termination of Gaussian 09 at Wed Aug 26 14:21:44 2020.
