 Gaussian 09, Revision D.01,
 Gaussian 09:  ES64L-G09RevD.01 24-Apr-2013

 --------------------
 #p B2PLYPD3/Def2QZVP
 --------------------

 ----------
 butane_opt
 ----------
 Symbolic Z-matrix:
 Charge =  0 Multiplicity = 1

                         Standard orientation:
 ---------------------------------------------------------------------
 Center     Atomic      Atomic             Coordinates (Angstroms)
 Number     Number       Type             X           Y           Z
 ---------------------------------------------------------------------
      1          6           0       -1.995553    0.053503    0.034090
      2          6           0       -0.615422   -0.447394   -0.000628
      3          1           0       -2.821517   -0.799671   -0.376646
      4          1           0       -1.767314    0.464145   -0.682617
      5          1           0       -2.186670    1.308236    1.312025
      6          6           0        0.544377    0.503584   -0.067904
      7          1           0       -0.599586   -1.333395   -0.833554
      8          1           0       -0.233304   -1.025890    0.798126
      9          6           0        1.991185   -0.083150    0.110717
     10          1           0        0.309538    1.001984    0.559844
     11          1           0        0.502548    1.314940   -1.241551
     12          1           0        2.414370   -0.815112    1.079486
     13          1           0        2.723412    0.488998   -0.489601
     14          1           0        2.111003   -0.763488   -0.583171
 ---------------------------------------------------------------------

 SCF Done:  E(RB2PLYPD3) =  -157.729473772     A.U. after   12 cycles
 E2(B2PLYPD3) =    -0.2563314693D+00 E(B2PLYPD3) =    -0.15798580524121D+03

 The electronic state is 1-A.
 Alpha  occ. eigenvalues --  -10.64539 -10.62514 -10.62369 -10.61815  -0.95205
 Alpha  occ. eigenvalues --   -0.86180  -0.76985  -0.68089  -0.52825  -0.50808
 Alpha  occ. eigenvalues --   -0.48409  -0.44834  -0.43740  -0.41503  -0.38380
 Alpha  occ. eigenvalues --   -0.35958  -0.33298
 Alpha virt. eigenvalues --   -0.00210   0.04970   0.05738   0.06620   0.10329
 Alpha virt. eigenvalues --    0.11302   0.12073   0.12443   0.13221   0.14953
 Alpha virt. eigenvalues --    0.15698   0.15910   0.17731   0.19312   0.20359

 Mulliken charges:
               1
     1  C   -0.287861
     2  C   -0.000691
     3  H    0.065947
     4  H    0.220288
     5  H   -0.022180
     6  C   -0.182764
     7  H   -0.001375
     8  H    0.027463
     9  C   -0.158758
    10  H    0.208904
    11  H   -0.030050
    12  H    0.043390
    13  H    0.049349
    14  H    0.068340
 Sum of Mulliken charges =   0.00000

 Dipole moment (field-independent basis, Debye):
    X=              0.5434    Y=             -0.9180    Z=             -0.6868  Tot=              1.2688
 Quadrupole moment (field-independent basis, Debye-Ang):
   XX=            -30.7569   YY=            -29.9405   ZZ=            -29.5095
   XY=              0.3721   XZ=              1.0202   YZ=              0.2720

 Normal termination of Gaussian 09 at Wed Aug 26 16:09:19 2020.
