 Gaussian 09, Revision D.01,
 Gaussian 09:  ES64L-G09RevD.01 24-Apr-2013

 --------------------
 #p B2PLYPD3/Def2QZVP
 --------------------

 ----------
 butane_opt
 ----------
 Symbolic Z-matrix:
 Charge =  0 Multiplicity = 1

                         Standard orientation:
 ---------------------------------------------------------------------
 Center     Atomic      Atomic             Coordinates (Angstroms)
 Number     Number       Type             X           Y           Z
 ---------------------------------------------------------------------
      1          6           0       -1.846157    0.020208    0.126962
      2          6           0       -0.599257   -0.487003   -0.163892
      3          1           0       -2.597125   -0.620366    0.061270
      4          1           0       -1.848638    0.365631   -0.459121
      5          1           0       -1.924825    0.930669    1.273164
      6          6           0        0.474693    0.577754   -0.036737
      7          1           0       -0.696586   -1.341796   -1.347936
      8          1           0       -0.249848   -0.890327    0.529839
      9          6           0        1.978811   -0.156233    0.103460
     10          1           0        0.026843    1.108588    0.648837
     11          1           0        0.271802    1.686144   -1.102792
     12          1           0        2.577849   -1.110138    1.223697
     13          1           0        2.675195    0.531106   -0.519424
     14          1           0        1.716791   -0.387867   -0.486296
 ---------------------------------------------------------------------

 SCF Done:  E(RB2PLYPD3) =  -157.202812576     A.U. after   12 cycles
 E2(B2PLYPD3) =    -0.2585471306D+00 E(B2PLYPD3) =    -0.15746135970705D+03

 The electronic state is 1-A.
 Alpha  occ. eigenvalues --  -10.65461 -10.62522 -10.61469 -10.57552  -0.99148
 Alpha  occ. eigenvalues --   -0.90832  -0.80064  -0.68486  -0.56245  -0.51251
 Alpha  occ. eigenvalues --   -0.48430  -0.46259  -0.41894  -0.40308  -0.38777
 Alpha  occ. eigenvalues --   -0.36488  -0.33809
 Alpha virt. eigenvalues --    0.00795   0.03603   0.04702   0.07301   0.09699
 Alpha virt. eigenvalues --    0.10878   0.11532   0.12993   0.14120   0.15086
 Alpha virt. eigenvalues --    0.15831   0.16157   0.17324   0.18997   0.19472

 Mulliken charges:
               1
     1  C   -0.621224
     2  C   -0.134577
     3  H    0.075390
     4  H    0.499314
     5  H    0.013549
     6  C   -0.109863
     7  H   -0.004161
     8  H    0.192830
     9  C   -0.743841
    10  H    0.106014
    11  H   -0.038915
    12  H    0.085573
    13  H    0.082051
    14  H    0.597861
 Sum of Mulliken charges =   0.00000

 Dipole moment (field-independent basis, Debye):
    X=             -0.2379    Y=             -0.6681    Z=              0.0974  Tot=              0.7158
 Quadrupole moment (field-independent basis, Debye-Ang):
   XX=            -29.0581   YY=            -30.0864   ZZ=            -28.7185
   XY=             -0.7319   XZ=              0.7578   YZ=             -0.3013

 Normal termination of Gaussian 09 at Wed Aug 26 19:02:37 2020.
