 Gaussian 09, Revision D.01,
 Gaussian 09:  ES64L-G09RevD.01 24-Apr-2013

 --------------------
 #p B2PLYPD3/Def2QZVP
 --------------------

 ----------
 butane_opt
 ----------
 Symbolic Z-matrix:
 Charge =  0 Multiplicity = 1

                         Standard orientation:
 ---------------------------------------------------------------------
 Center     Atomic      Atomic             Coordinates (Angstroms)
 Number     Number       Type             X           Y           Z
 ---------------------------------------------------------------------
      1          6           0        1.988657   -0.160978   -0.071013
      2          6           0        0.442115    0.575697   -0.051580
      3          1           0        2.693354    0.325133   -0.347949
      4          1           0        2.217221   -0.970198   -0.811673
      5          1           0        1.981172   -0.544514    0.943569
      6          6           0       -0.623832   -0.326318    0.389814
      7          1           0        0.147309    0.833330   -1.059552
      8          1           0        0.307698    1.801506    0.788032
      9          6           0       -1.821783   -0.046153   -0.224802
     10          1           0       -0.619500   -0.792489    1.562017
     11          1           0       -0.221862   -1.117370   -0.246746
     12          1           0       -2.449914    1.122754    0.522181
     13          1           0       -2.485457   -1.002092   -0.580585
     14          1           0       -1.480958    0.090460   -1.023809
 ---------------------------------------------------------------------

 SCF Done:  E(RB2PLYPD3) =  -157.834304250     A.U. after   12 cycles
 E2(B2PLYPD3) =    -0.2546169850D+00 E(B2PLYPD3) =    -0.15808892123520D+03

 The electronic state is 1-A.
 Alpha  occ. eigenvalues --  -10.65811 -10.62079 -10.61866 -10.60205  -0.96648
 Alpha  occ. eigenvalues --   -0.84328  -0.75375  -0.65276  -0.54489  -0.53295
 Alpha  occ. eigenvalues --   -0.49062  -0.45932  -0.44431  -0.39294  -0.38210
 Alpha  occ. eigenvalues --   -0.37456  -0.32465
 Alpha virt. eigenvalues --    0.03875   0.06064   0.06736   0.07359   0.08188
 Alpha virt. eigenvalues --    0.10947   0.11959   0.13091   0.13451   0.15084
 Alpha virt. eigenvalues --    0.16034   0.16785   0.18426   0.18879   0.19780

 Mulliken charges:
               1
     1  C   -0.157582
     2  C   -0.084589
     3  H    0.089575
     4  H    0.013825
     5  H    0.073893
     6  C   -0.022164
     7  H    0.064662
     8  H   -0.027389
     9  C   -0.243190
    10  H    0.028427
    11  H    0.058382
    12  H    0.010192
    13  H    0.044457
    14  H    0.151499
 Sum of Mulliken charges =   0.00000

 Dipole moment (field-independent basis, Debye):
    X=              0.6439    Y=             -0.9118    Z=             -0.8099  Tot=              1.3791
 Quadrupole moment (field-independent basis, Debye-Ang):
   XX=            -30.7304   YY=            -30.9806   ZZ=            -28.2283
   XY=              0.2147   XZ=             -0.4579   YZ=              0.4203

 Normal termination of Gaussian 09 at Wed Aug 26 11:44:14 2020.
