 Gaussian 09, Revision D.01,
 Gaussian 09:  ES64L-G09RevD.01 24-Apr-2013

 --------------------
 #p B2PLYPD3/Def2QZVP
 --------------------

 ----------
 butane_opt
 ----------
 Symbolic Z-matrix:
 Charge =  0 Multiplicity = 1

                         Standard orientation:
 ---------------------------------------------------------------------
 Center     Atomic      Atomic             Coordinates (Angstroms)
 Number     Number       Type             X           Y           Z
 ---------------------------------------------------------------------
      1          6           0        1.930214    0.119949   -0.041364
      2          6           0        0.466876   -0.548688    0.042704
      3          1           0        2.667681   -0.493548    0.144082
      4          1           0        2.146593    0.382862    0.613899
      5          1           0        2.248829    1.179585   -1.107466
      6          6           0       -0.570086    0.481186    0.125025
      7          1           0        0.342046   -1.368936    1.111487
      8          1           0        0.692217   -1.158006   -0.873293
      9          6           0       -1.913890   -0.120747   -0.152978
     10          1           0       -0.317533    1.083914   -0.659150
     11          1           0       -0.387127    1.237383    1.207155
     12          1           0       -1.944251   -0.744990   -0.910463
     13          1           0       -2.762311    0.795036    0.163763
     14          1           0       -2.164827   -0.503495    0.469663
 ---------------------------------------------------------------------

 SCF Done:  E(RB2PLYPD3) =  -157.619421554     A.U. after   11 cycles
 E2(B2PLYPD3) =    -0.2521110024D+00 E(B2PLYPD3) =    -0.15787153255643D+03

 The electronic state is 1-A.
 Alpha  occ. eigenvalues --  -10.64230 -10.61917 -10.58995 -10.57167  -0.93603
 Alpha  occ. eigenvalues --   -0.88621  -0.79293  -0.67095  -0.55416  -0.52329
 Alpha  occ. eigenvalues --   -0.49779  -0.44328  -0.42834  -0.40700  -0.37958
 Alpha  occ. eigenvalues --   -0.36501  -0.35023
 Alpha virt. eigenvalues --    0.04192   0.05050   0.06925   0.07351   0.10081
 Alpha virt. eigenvalues --    0.11114   0.12216   0.13041   0.14258   0.15388
 Alpha virt. eigenvalues --    0.15894   0.16902   0.18516   0.19245   0.21556

 Mulliken charges:
               1
     1  C   -0.437451
     2  C   -0.051424
     3  H    0.049445
     4  H    0.321445
     5  H    0.019562
     6  C   -0.006393
     7  H   -0.003473
     8  H    0.060654
     9  C   -0.390495
    10  H    0.071003
    11  H    0.011124
    12  H    0.063018
    13  H    0.018409
    14  H    0.274576
 Sum of Mulliken charges =   0.00000

 Dipole moment (field-independent basis, Debye):
    X=              0.1876    Y=             -0.3554    Z=              0.3901  Tot=              0.5601
 Quadrupole moment (field-independent basis, Debye-Ang):
   XX=            -29.5298   YY=            -29.4267   ZZ=            -28.3979
   XY=              0.5586   XZ=              0.2917   YZ=              0.2930

 Normal termination of Gaussian 09 at Wed Aug 26 15:26:03 2020.
