 Gaussian 09, Revision D.01,
 Gaussian 09:  ES64L-G09RevD.01 24-Apr-2013

 --------------------
 #p B2PLYPD3/Def2QZVP
 --------------------

 ----------
 butane_opt
 ----------
 Symbolic Z-matrix:
 Charge =  0 Multiplicity = 1

                         Standard orientation:
 ---------------------------------------------------------------------
 Center     Atomic      Atomic             Coordinates (Angstroms)
 Number     Number       Type             X           Y           Z
 ---------------------------------------------------------------------
      1          6           0        1.846607    0.039346   -0.176293
      2          6           0        0.679989   -0.324043    0.323323
      3          1           0        2.641261   -0.866265   -0.278602
      4          1           0        2.430737    0.724943    0.364587
      5          1           0        1.375415    0.272660   -1.138183
      6          6           0       -0.507978    0.569107    0.013176
      7          1           0        0.480517   -0.716657    1.401529
      8          1           0        0.614919   -1.089717   -0.302640
      9          6           0       -2.017907   -0.192777   -0.077611
     10          1           0       -0.226903    0.908566   -1.013724
     11          1           0       -0.400891    1.419947    0.767214
     12          1           0       -2.116973   -1.294287   -0.965542
     13          1           0       -2.722279    0.503400   -0.138728
     14          1           0       -2.080069   -0.412393    0.808516
 ---------------------------------------------------------------------

 SCF Done:  E(RB2PLYPD3) =  -157.932538950     A.U. after   11 cycles
 E2(B2PLYPD3) =    -0.2507779300D+00 E(B2PLYPD3) =    -0.15818331687974D+03

 The electronic state is 1-A.
 Alpha  occ. eigenvalues --  -10.62317 -10.61263 -10.59598 -10.58210  -0.96153
 Alpha  occ. eigenvalues --   -0.84423  -0.74010  -0.65549  -0.58181  -0.50401
 Alpha  occ. eigenvalues --   -0.49628  -0.47430  -0.43301  -0.40711  -0.37898
 Alpha  occ. eigenvalues --   -0.36793  -0.34415
 Alpha virt. eigenvalues --    0.05235   0.06110   0.07914   0.08351   0.10535
 Alpha virt. eigenvalues --    0.11187   0.12086   0.13677   0.14323   0.15487
 Alpha virt. eigenvalues --    0.15971   0.16320   0.18505   0.19585   0.21503

 Mulliken charges:
               1
     1  C   -0.135169
     2  C   -0.052801
     3  H    0.023528
     4  H    0.038222
     5  H    0.058698
     6  C   -0.067443
     7  H    0.000601
     8  H    0.074633
     9  C   -0.209550
    10  H    0.027037
    11  H    0.036064
    12  H    0.037023
    13  H    0.063743
    14  H    0.105414
 Sum of Mulliken charges =   0.00000

 Dipole moment (field-independent basis, Debye):
    X=             -0.1862    Y=             -0.0095    Z=              0.2049  Tot=              0.2771
 Quadrupole moment (field-independent basis, Debye-Ang):
   XX=            -29.5408   YY=            -29.4744   ZZ=            -28.6052
   XY=             -0.5471   XZ=             -0.1190   YZ=              1.1589

 Normal termination of Gaussian 09 at Wed Aug 26 21:29:18 2020.
