 Gaussian 09, Revision D.01,
 Gaussian 09:  ES64L-G09RevD.01 24-Apr-2013

 --------------------
 #p B2PLYPD3/Def2QZVP
 --------------------

 ----------
 butane_opt
 ----------
 Symbolic Z-matrix:
 Charge =  0 Multiplicity = 1

                         Standard orientation:
 ---------------------------------------------------------------------
 Center     Atomic      Atomic             Coordinates (Angstroms)
 Number     Number       Type             X           Y           Z
 ---------------------------------------------------------------------
      1          6           0       -1.979693   -0.229768   -0.109243
      2          6           0       -0.490991    0.573521    0.040812
      3          1           0       -2.676683    0.358957   -0.443549
      4          1           0       -1.931640   -0.485336    0.873498
      5          1           0       -2.013765   -0.979007   -0.842243
      6          6           0        0.547171   -0.342113    0.379658
      7          1           0       -0.744124    1.398120    0.649164
      8          1           0       -0.134415    1.087019   -1.061823
      9          6           0        1.947292    0.014699   -0.188888
     10          1           0        0.366527   -1.014672   -0.373276
     11          1           0        0.404916   -0.705778    1.364892
     12          1           0        1.362420    0.209057   -0.944589
     13          1           0        2.874996   -1.057258   -0.579240
     14          1           0        2.349092    1.090870    0.623138
 ---------------------------------------------------------------------

 SCF Done:  E(RB2PLYPD3) =  -157.900430239     A.U. after   11 cycles
 E2(B2PLYPD3) =    -0.2542787623D+00 E(B2PLYPD3) =    -0.15815470900133D+03

 The electronic state is 1-A.
 Alpha  occ. eigenvalues --  -10.65134 -10.62752 -10.59977 -10.58788  -0.94791
 Alpha  occ. eigenvalues --   -0.83807  -0.73820  -0.65980  -0.56934  -0.52904
 Alpha  occ. eigenvalues --   -0.48213  -0.45825  -0.42518  -0.41214  -0.38813
 Alpha  occ. eigenvalues --   -0.36308  -0.33179
 Alpha virt. eigenvalues --    0.03489   0.06264   0.07963   0.08137   0.09610
 Alpha virt. eigenvalues --    0.10590   0.12393   0.13065   0.14323   0.15205
 Alpha virt. eigenvalues --    0.15624   0.16019   0.18292   0.19410   0.21105

 Mulliken charges:
               1
     1  C   -0.140199
     2  C   -0.079003
     3  H    0.052564
     4  H    0.082001
     5  H    0.035431
     6  C   -0.082071
     7  H    0.050428
     8  H   -0.009346
     9  C   -0.195938
    10  H    0.081157
    11  H    0.038492
    12  H    0.105975
    13  H    0.037451
    14  H    0.023058
 Sum of Mulliken charges =   0.00000

 Dipole moment (field-independent basis, Debye):
    X=             -0.8476    Y=             -0.2252    Z=              0.0435  Tot=              0.8781
 Quadrupole moment (field-independent basis, Debye-Ang):
   XX=            -31.5609   YY=            -29.7670   ZZ=            -28.2883
   XY=             -1.1672   XZ=              0.3810   YZ=              1.2952

 Normal termination of Gaussian 09 at Wed Aug 26 10:47:34 2020.
