 Gaussian 09, Revision D.01,
 Gaussian 09:  ES64L-G09RevD.01 24-Apr-2013

 --------------------
 #p B2PLYPD3/Def2QZVP
 --------------------

 ----------
 butane_opt
 ----------
 Symbolic Z-matrix:
 Charge =  0 Multiplicity = 1

                         Standard orientation:
 ---------------------------------------------------------------------
 Center     Atomic      Atomic             Coordinates (Angstroms)
 Number     Number       Type             X           Y           Z
 ---------------------------------------------------------------------
      1          6           0       -1.916918    0.061490   -0.202596
      2          6           0       -0.587326   -0.343714    0.289849
      3          1           0       -2.870896   -1.107362   -0.715358
      4          1           0       -1.220743    0.396763   -0.962403
      5          1           0       -2.367591    1.074989    0.672715
      6          6           0        0.494452    0.580053    0.021134
      7          1           0       -0.225030   -0.967233   -0.328417
      8          1           0       -0.796225   -1.124905    1.682535
      9          6           0        1.925583   -0.241449   -0.153199
     10          1           0        0.665421    1.576986    0.826453
     11          1           0        0.266126    0.915180   -0.721273
     12          1           0        2.253699   -0.765514    0.905609
     13          1           0        2.714047    0.697246   -0.150106
     14          1           0        2.086447   -1.034426   -0.940883
 ---------------------------------------------------------------------

 SCF Done:  E(RB2PLYPD3) =  -157.734272043     A.U. after   12 cycles
 E2(B2PLYPD3) =    -0.2602620672D+00 E(B2PLYPD3) =    -0.15799453411000D+03

 The electronic state is 1-A.
 Alpha  occ. eigenvalues --  -10.67469 -10.65042 -10.63973 -10.62909  -0.98214
 Alpha  occ. eigenvalues --   -0.82651  -0.72876  -0.67644  -0.55183  -0.49231
 Alpha  occ. eigenvalues --   -0.47255  -0.46283  -0.41504  -0.40887  -0.38084
 Alpha  occ. eigenvalues --   -0.35787  -0.31706
 Alpha virt. eigenvalues --    0.01106   0.04587   0.05663   0.07184   0.08330
 Alpha virt. eigenvalues --    0.10236   0.11598   0.11849   0.13157   0.14493
 Alpha virt. eigenvalues --    0.14711   0.16129   0.17723   0.18866   0.19620

 Mulliken charges:
               1
     1  C   -0.176080
     2  C   -0.070577
     3  H    0.046519
     4  H    0.045978
     5  H    0.054210
     6  C   -0.176135
     7  H    0.135681
     8  H   -0.058504
     9  C   -0.174962
    10  H    0.020330
    11  H    0.192937
    12  H    0.055696
    13  H    0.043027
    14  H    0.061880
 Sum of Mulliken charges =   0.00000

 Dipole moment (field-independent basis, Debye):
    X=              0.6889    Y=              0.2787    Z=             -0.9791  Tot=              1.2292
 Quadrupole moment (field-independent basis, Debye-Ang):
   XX=            -31.8558   YY=            -29.7873   ZZ=            -30.9803
   XY=              0.1667   XZ=             -0.2169   YZ=              2.1042

 Normal termination of Gaussian 09 at Wed Aug 26 12:19:25 2020.
