 Gaussian 09, Revision D.01,
 Gaussian 09:  ES64L-G09RevD.01 24-Apr-2013

 --------------------
 #p B2PLYPD3/Def2QZVP
 --------------------

 ----------
 butane_opt
 ----------
 Symbolic Z-matrix:
 Charge =  0 Multiplicity = 1

                         Standard orientation:
 ---------------------------------------------------------------------
 Center     Atomic      Atomic             Coordinates (Angstroms)
 Number     Number       Type             X           Y           Z
 ---------------------------------------------------------------------
      1          6           0       -1.894881   -0.047038    0.056341
      2          6           0       -0.552321    0.424320   -0.178542
      3          1           0       -2.862665    0.847606   -0.156559
      4          1           0       -1.974339   -0.670526    1.257890
      5          1           0       -2.153809   -0.762170   -0.733113
      6          6           0        0.531765   -0.493061    0.187413
      7          1           0       -0.549553    0.845511    0.438440
      8          1           0       -0.091913    0.951297   -1.291964
      9          6           0        1.941648    0.133889    0.045230
     10          1           0        0.434129   -1.447156   -0.734656
     11          1           0        0.347682   -0.779735    0.825315
     12          1           0        1.763641    0.199804   -0.621545
     13          1           0        2.604030   -0.713377   -0.687510
     14          1           0        2.325531    1.420084    1.041052
 ---------------------------------------------------------------------

 SCF Done:  E(RB2PLYPD3) =  -157.237607200     A.U. after   12 cycles
 E2(B2PLYPD3) =    -0.2580204799D+00 E(B2PLYPD3) =    -0.15749562767989D+03

 The electronic state is 1-A.
 Alpha  occ. eigenvalues --  -10.65323 -10.62632 -10.59996 -10.58431  -0.98763
 Alpha  occ. eigenvalues --   -0.89675  -0.78294  -0.70165  -0.57659  -0.49357
 Alpha  occ. eigenvalues --   -0.47004  -0.44647  -0.42703  -0.39595  -0.39052
 Alpha  occ. eigenvalues --   -0.36883  -0.33503
 Alpha virt. eigenvalues --    0.00361   0.04223   0.04910   0.07151   0.09903
 Alpha virt. eigenvalues --    0.10818   0.11180   0.11809   0.13665   0.14528
 Alpha virt. eigenvalues --    0.15700   0.16198   0.18305   0.19360   0.20466

 Mulliken charges:
               1
     1  C   -0.159744
     2  C   -0.424771
     3  H    0.040746
     4  H    0.037234
     5  H    0.050914
     6  C   -0.379103
     7  H    0.440498
     8  H    0.037913
     9  C   -0.707729
    10  H   -0.013105
    11  H    0.378861
    12  H    0.598926
    13  H    0.041746
    14  H    0.057614
 Sum of Mulliken charges =   0.00000

 Dipole moment (field-independent basis, Debye):
    X=             -0.4846    Y=              0.2519    Z=             -0.1750  Tot=              0.5735
 Quadrupole moment (field-independent basis, Debye-Ang):
   XX=            -32.4117   YY=            -30.0344   ZZ=            -27.5882
   XY=              0.7345   XZ=             -1.0543   YZ=              1.0905

 Normal termination of Gaussian 09 at Wed Aug 26 22:46:17 2020.
