 Gaussian 09, Revision D.01,
 Gaussian 09:  ES64L-G09RevD.01 24-Apr-2013

 --------------------
 #p B2PLYPD3/Def2QZVP
 --------------------

 ----------
 butane_opt
 ----------
 Symbolic Z-matrix:
 Charge =  0 Multiplicity = 1

                         Standard orientation:
 ---------------------------------------------------------------------
 Center     Atomic      Atomic             Coordinates (Angstroms)
 Number     Number       Type             X           Y           Z
 ---------------------------------------------------------------------
      1          6           0       -1.942042   -0.170008   -0.062820
      2          6           0       -0.468986    0.627422    0.040325
      3          1           0       -2.738062    0.491090   -0.539301
      4          1           0       -2.406782   -0.768704    0.948848
      5          1           0       -1.792511   -0.870649   -0.943477
      6          6           0        0.518399   -0.408764    0.283264
      7          1           0       -0.181636    1.430873    0.734694
      8          1           0       -0.268207    1.038842   -0.780270
      9          6           0        1.859784   -0.000057   -0.096132
     10          1           0        0.483809   -1.438689   -0.592829
     11          1           0        0.607644   -0.869573    1.280381
     12          1           0        1.445938    0.577476   -1.112553
     13          1           0        2.735402   -0.834550   -0.726408
     14          1           0        2.311475    0.952325    0.743090
 ---------------------------------------------------------------------

 SCF Done:  E(RB2PLYPD3) =  -157.932532242     A.U. after   11 cycles
 E2(B2PLYPD3) =    -0.2555811225D+00 E(B2PLYPD3) =    -0.15818811336430D+03

 The electronic state is 1-A.
 Alpha  occ. eigenvalues --  -10.65910 -10.64252 -10.62771 -10.60831  -0.93618
 Alpha  occ. eigenvalues --   -0.80962  -0.72340  -0.64873  -0.53893  -0.49382
 Alpha  occ. eigenvalues --   -0.47392  -0.45195  -0.41922  -0.41303  -0.38395
 Alpha  occ. eigenvalues --   -0.35460  -0.33745
 Alpha virt. eigenvalues --    0.04061   0.05737   0.06630   0.08223   0.09616
 Alpha virt. eigenvalues --    0.10961   0.11756   0.12267   0.14174   0.15043
 Alpha virt. eigenvalues --    0.15636   0.17181   0.18532   0.18701   0.20109

 Mulliken charges:
               1
     1  C   -0.170328
     2  C   -0.086331
     3  H    0.036636
     4  H    0.056694
     5  H    0.062436
     6  C    0.010601
     7  H    0.040390
     8  H    0.096580
     9  C   -0.185154
    10  H   -0.008304
    11  H    0.051019
    12  H    0.017947
    13  H    0.060350
    14  H    0.017465
 Sum of Mulliken charges =   0.00000

 Dipole moment (field-independent basis, Debye):
    X=             -0.3411    Y=              0.1382    Z=             -0.1891  Tot=              0.4138
 Quadrupole moment (field-independent basis, Debye-Ang):
   XX=            -31.7610   YY=            -30.0353   ZZ=            -28.6244
   XY=             -0.4256   XZ=              0.2939   YZ=              0.2871

 Normal termination of Gaussian 09 at Wed Aug 26 11:45:09 2020.
