 Gaussian 09, Revision D.01,
 Gaussian 09:  ES64L-G09RevD.01 24-Apr-2013

 --------------------
 #p B2PLYPD3/Def2QZVP
 --------------------

 ----------
 butane_opt
 ----------
 Symbolic Z-matrix:
 Charge =  0 Multiplicity = 1

                         Standard orientation:
 ---------------------------------------------------------------------
 Center     Atomic      Atomic             Coordinates (Angstroms)
 Number     Number       Type             X           Y           Z
 ---------------------------------------------------------------------
      1          6           0       -1.969717    0.041204   -0.201689
      2          6           0       -0.670405   -0.382869    0.395560
      3          1           0       -2.947811   -1.010690   -0.687852
      4          1           0       -1.425242    0.298183   -1.013324
      5          1           0       -2.739960    0.974035    0.444043
      6          6           0        0.584592    0.616094   -0.027660
      7          1           0       -0.284665   -0.939353   -0.134799
      8          1           0       -0.613839   -0.829515    1.547521
      9          6           0        2.034259   -0.230383   -0.042218
     10          1           0        0.620379    1.643749    0.761797
     11          1           0        0.386051    0.827256   -0.963411
     12          1           0        2.233663   -0.327469    0.551317
     13          1           0        2.780648    0.355843   -0.316467
     14          1           0        2.118401   -1.256316   -0.932790
 ---------------------------------------------------------------------

 SCF Done:  E(RB2PLYPD3) =  -157.477357811     A.U. after   11 cycles
 E2(B2PLYPD3) =    -0.2540577648D+00 E(B2PLYPD3) =    -0.15773141557622D+03

 The electronic state is 1-A.
 Alpha  occ. eigenvalues --  -10.65596 -10.64501 -10.60797 -10.59562  -0.93379
 Alpha  occ. eigenvalues --   -0.88503  -0.75385  -0.68086  -0.54265  -0.52291
 Alpha  occ. eigenvalues --   -0.47388  -0.45033  -0.43759  -0.40906  -0.38759
 Alpha  occ. eigenvalues --   -0.38312  -0.32869
 Alpha virt. eigenvalues --    0.03938   0.05590   0.07234   0.08019   0.08914
 Alpha virt. eigenvalues --    0.10138   0.11801   0.13780   0.14032   0.15082
 Alpha virt. eigenvalues --    0.15726   0.16884   0.17872   0.18609   0.20429

 Mulliken charges:
               1
     1  C   -0.183512
     2  C   -0.209780
     3  H    0.007499
     4  H    0.092490
     5  H    0.047696
     6  C   -0.095103
     7  H    0.220806
     8  H    0.023032
     9  C   -0.604996
    10  H    0.019943
    11  H    0.105749
    12  H    0.472718
    13  H    0.066363
    14  H    0.037096
 Sum of Mulliken charges =   0.00000

 Dipole moment (field-independent basis, Debye):
    X=              0.9889    Y=              0.1948    Z=             -0.1916  Tot=              1.0260
 Quadrupole moment (field-independent basis, Debye-Ang):
   XX=            -29.8210   YY=            -29.9850   ZZ=            -28.6876
   XY=             -0.4047   XZ=             -0.2852   YZ=              0.7672

 Normal termination of Gaussian 09 at Wed Aug 26 18:59:21 2020.
