 Gaussian 09, Revision D.01,
 Gaussian 09:  ES64L-G09RevD.01 24-Apr-2013

 --------------------
 #p B2PLYPD3/Def2QZVP
 --------------------

 ----------
 butane_opt
 ----------
 Symbolic Z-matrix:
 Charge =  0 Multiplicity = 1

                         Standard orientation:
 ---------------------------------------------------------------------
 Center     Atomic      Atomic             Coordinates (Angstroms)
 Number     Number       Type             X           Y           Z
 ---------------------------------------------------------------------
      1          6           0        1.953289   -0.099837   -0.107145
      2          6           0        0.540752    0.418816    0.029754
      3          1           0        2.825553    0.761495   -0.025844
      4          1           0        1.859117   -0.924868   -1.049443
      5          1           0        1.830669   -0.555347    0.711409
      6          6           0       -0.543648   -0.490637    0.252737
      7          1           0        0.302426    0.910512   -0.763910
      8          1           0        0.626970    1.454895    0.961080
      9          6           0       -1.926440    0.124606   -0.119919
     10          1           0       -0.610666   -1.263502    1.212609
     11          1           0       -0.055921   -1.138252   -0.580808
     12          1           0       -2.247224    1.007027    0.918930
     13          1           0       -2.704160   -0.730010   -0.460977
     14          1           0       -1.970480    0.760365   -1.255606
 ---------------------------------------------------------------------

 SCF Done:  E(RB2PLYPD3) =  -157.905695816     A.U. after   11 cycles
 E2(B2PLYPD3) =    -0.2556413687D+00 E(B2PLYPD3) =    -0.15816133718516D+03

 The electronic state is 1-A.
 Alpha  occ. eigenvalues --  -10.67275 -10.63989 -10.61840 -10.61661  -0.94366
 Alpha  occ. eigenvalues --   -0.82615  -0.71689  -0.65299  -0.53459  -0.50905
 Alpha  occ. eigenvalues --   -0.47934  -0.44874  -0.42597  -0.39290  -0.38641
 Alpha  occ. eigenvalues --   -0.37183  -0.32845
 Alpha virt. eigenvalues --    0.04476   0.05757   0.06550   0.07229   0.10177
 Alpha virt. eigenvalues --    0.10557   0.11639   0.12703   0.13425   0.14196
 Alpha virt. eigenvalues --    0.15140   0.15712   0.19064   0.19509   0.20323

 Mulliken charges:
               1
     1  C   -0.194086
     2  C   -0.041268
     3  H    0.066971
     4  H    0.020545
     5  H    0.114897
     6  C   -0.017887
     7  H    0.091662
     8  H   -0.062873
     9  C   -0.188779
    10  H    0.041823
    11  H    0.024924
    12  H    0.057579
    13  H    0.058348
    14  H    0.028145
 Sum of Mulliken charges =   0.00000

 Dipole moment (field-independent basis, Debye):
    X=             -0.0568    Y=             -0.4138    Z=             -0.3724  Tot=              0.5596
 Quadrupole moment (field-independent basis, Debye-Ang):
   XX=            -31.0046   YY=            -30.5142   ZZ=            -29.2310
   XY=              1.0570   XZ=              0.5670   YZ=             -0.3308

 Normal termination of Gaussian 09 at Wed Aug 26 19:30:28 2020.
