 Gaussian 09, Revision D.01,
 Gaussian 09:  ES64L-G09RevD.01 24-Apr-2013

 --------------------
 #p B2PLYPD3/Def2QZVP
 --------------------

 ----------
 butane_opt
 ----------
 Symbolic Z-matrix:
 Charge =  0 Multiplicity = 1

                         Standard orientation:
 ---------------------------------------------------------------------
 Center     Atomic      Atomic             Coordinates (Angstroms)
 Number     Number       Type             X           Y           Z
 ---------------------------------------------------------------------
      1          6           0       -1.882369   -0.089414    0.055873
      2          6           0       -0.618155    0.376551   -0.034193
      3          1           0       -2.811467    1.040665   -0.083017
      4          1           0       -1.848014   -0.918110    1.002451
      5          1           0       -1.839926   -0.717020   -0.776858
      6          6           0        0.532105   -0.538783   -0.097163
      7          1           0       -0.577374    1.211105    0.838374
      8          1           0       -0.501887    1.199585   -1.014442
      9          6           0        1.955478    0.158052    0.026794
     10          1           0        0.271001   -0.898990   -0.765661
     11          1           0        0.293358   -1.389054    0.897589
     12          1           0        2.077068    0.532321   -0.743788
     13          1           0        2.653657   -0.595096   -0.204455
     14          1           0        2.361236    1.096154    1.141940
 ---------------------------------------------------------------------

 SCF Done:  E(RB2PLYPD3) =  -157.740619321     A.U. after   11 cycles
 E2(B2PLYPD3) =    -0.2551119404D+00 E(B2PLYPD3) =    -0.15799573126085D+03

 The electronic state is 1-A.
 Alpha  occ. eigenvalues --  -10.63594 -10.62074 -10.62034 -10.61231  -0.96073
 Alpha  occ. eigenvalues --   -0.86469  -0.77349  -0.64559  -0.55043  -0.50273
 Alpha  occ. eigenvalues --   -0.49129  -0.47023  -0.41583  -0.40725  -0.38351
 Alpha  occ. eigenvalues --   -0.35739  -0.33361
 Alpha virt. eigenvalues --    0.03530   0.04102   0.06103   0.07884   0.09852
 Alpha virt. eigenvalues --    0.10113   0.11856   0.12598   0.14474   0.14762
 Alpha virt. eigenvalues --    0.15166   0.15750   0.18610   0.19780   0.21023

 Mulliken charges:
               1
     1  C   -0.166241
     2  C    0.025696
     3  H    0.049898
     4  H    0.038975
     5  H    0.056326
     6  C   -0.291818
     7  H    0.000153
     8  H   -0.018510
     9  C   -0.225352
    10  H    0.285031
    11  H   -0.003341
    12  H    0.146311
    13  H    0.049891
    14  H    0.052981
 Sum of Mulliken charges =   0.00000

 Dipole moment (field-independent basis, Debye):
    X=              0.5014    Y=             -0.1051    Z=             -0.7386  Tot=              0.8989
 Quadrupole moment (field-independent basis, Debye-Ang):
   XX=            -30.7088   YY=            -29.6400   ZZ=            -29.1032
   XY=             -0.3342   XZ=             -0.6242   YZ=              0.5792

 Normal termination of Gaussian 09 at Wed Aug 26 11:21:14 2020.
