 Gaussian 09, Revision D.01,
 Gaussian 09:  ES64L-G09RevD.01 24-Apr-2013

 --------------------
 #p B2PLYPD3/Def2QZVP
 --------------------

 ----------
 butane_opt
 ----------
 Symbolic Z-matrix:
 Charge =  0 Multiplicity = 1

                         Standard orientation:
 ---------------------------------------------------------------------
 Center     Atomic      Atomic             Coordinates (Angstroms)
 Number     Number       Type             X           Y           Z
 ---------------------------------------------------------------------
      1          6           0       -1.971250    0.068089    0.046667
      2          6           0       -0.576276   -0.448270    0.032925
      3          1           0       -2.857752   -0.834797   -0.629517
      4          1           0       -1.869713    0.279281   -0.574925
      5          1           0       -2.226230    1.243877    1.177995
      6          6           0        0.535952    0.514809   -0.137682
      7          1           0       -0.657546   -0.941455   -0.620270
      8          1           0       -0.454846   -1.280177    0.982496
      9          6           0        2.035667   -0.072031    0.050598
     10          1           0        0.455978    1.316233    0.786138
     11          1           0        0.393340    1.261626   -1.179638
     12          1           0        2.350332   -0.797281    1.066981
     13          1           0        2.661790    0.406646   -0.228638
     14          1           0        2.060081   -1.029539   -0.735665
 ---------------------------------------------------------------------

 SCF Done:  E(RB2PLYPD3) =  -157.431871505     A.U. after   12 cycles
 E2(B2PLYPD3) =    -0.2566369062D+00 E(B2PLYPD3) =    -0.15768850841123D+03

 The electronic state is 1-A.
 Alpha  occ. eigenvalues --  -10.65913 -10.63383 -10.62222 -10.60269  -0.97142
 Alpha  occ. eigenvalues --   -0.85848  -0.77278  -0.68381  -0.54017  -0.51882
 Alpha  occ. eigenvalues --   -0.48282  -0.44250  -0.43268  -0.39626  -0.37284
 Alpha  occ. eigenvalues --   -0.35795  -0.35150
 Alpha virt. eigenvalues --    0.00764   0.05542   0.06027   0.06607   0.09168
 Alpha virt. eigenvalues --    0.10197   0.11519   0.12375   0.13271   0.14282
 Alpha virt. eigenvalues --    0.15858   0.16907   0.17574   0.19212   0.20448

 Mulliken charges:
               1
     1  C   -0.777187
     2  C   -0.179651
     3  H    0.028536
     4  H    0.649663
     5  H    0.029936
     6  C   -0.016518
     7  H    0.227370
     8  H    0.020176
     9  C   -0.241302
    10  H    0.018769
    11  H    0.019183
    12  H    0.052161
    13  H    0.167486
    14  H    0.001376
 Sum of Mulliken charges =   0.00000

 Dipole moment (field-independent basis, Debye):
    X=              0.6735    Y=              0.0516    Z=             -0.8251  Tot=              1.0663
 Quadrupole moment (field-independent basis, Debye-Ang):
   XX=            -31.4746   YY=            -29.5094   ZZ=            -28.7856
   XY=              0.3958   XZ=              1.6426   YZ=              0.4073

 Normal termination of Gaussian 09 at Wed Aug 26 10:03:48 2020.
