 Gaussian 09, Revision D.01,
 Gaussian 09:  ES64L-G09RevD.01 24-Apr-2013

 --------------------
 #p B2PLYPD3/Def2QZVP
 --------------------

 ----------
 butane_opt
 ----------
 Symbolic Z-matrix:
 Charge =  0 Multiplicity = 1

                         Standard orientation:
 ---------------------------------------------------------------------
 Center     Atomic      Atomic             Coordinates (Angstroms)
 Number     Number       Type             X           Y           Z
 ---------------------------------------------------------------------
      1          6           0       -1.895710   -0.118698    0.128049
      2          6           0       -0.535819    0.483840    0.032894
      3          1           0       -2.725359    0.919523   -0.370977
      4          1           0       -2.175454   -1.368156    1.175939
      5          1           0       -1.797378   -0.423983   -0.584523
      6          6           0        0.554929   -0.426471   -0.213230
      7          1           0       -0.242642    0.716907    0.658372
      8          1           0       -0.565599    1.526959   -0.926388
      9          6           0        1.904493    0.034124    0.137997
     10          1           0        0.216993   -1.109576   -1.413499
     11          1           0        0.462501   -1.079427    0.534599
     12          1           0        1.887056    0.591597   -0.588730
     13          1           0        2.591424   -0.450874   -0.451132
     14          1           0        2.181102    0.840257    1.452081
 ---------------------------------------------------------------------

 SCF Done:  E(RB2PLYPD3) =  -157.410658127     A.U. after   12 cycles
 E2(B2PLYPD3) =    -0.2601068430D+00 E(B2PLYPD3) =    -0.15767076497036D+03

 The electronic state is 1-A.
 Alpha  occ. eigenvalues --  -10.63665 -10.62604 -10.61537 -10.59962  -0.98490
 Alpha  occ. eigenvalues --   -0.88837  -0.79298  -0.68952  -0.55241  -0.50474
 Alpha  occ. eigenvalues --   -0.47212  -0.44340  -0.43260  -0.39429  -0.36943
 Alpha  occ. eigenvalues --   -0.35934  -0.33951
 Alpha virt. eigenvalues --    0.00656   0.01736   0.03824   0.06542   0.10000
 Alpha virt. eigenvalues --    0.10689   0.11049   0.12303   0.12931   0.14393
 Alpha virt. eigenvalues --    0.15530   0.16080   0.17818   0.18797   0.20872

 Mulliken charges:
               1
     1  C   -0.428238
     2  C   -0.431202
     3  H    0.036746
     4  H    0.030102
     5  H    0.362176
     6  C   -0.066090
     7  H    0.426526
     8  H   -0.011103
     9  C   -0.272162
    10  H   -0.006425
    11  H    0.079498
    12  H    0.139137
    13  H    0.074644
    14  H    0.066389
 Sum of Mulliken charges =   0.00000

 Dipole moment (field-independent basis, Debye):
    X=              0.7618    Y=              0.0723    Z=             -0.3131  Tot=              0.8268
 Quadrupole moment (field-independent basis, Debye-Ang):
   XX=            -31.9220   YY=            -30.2390   ZZ=            -28.2799
   XY=              0.6785   XZ=              0.7092   YZ=             -0.3108

 Normal termination of Gaussian 09 at Wed Aug 26 14:57:51 2020.
