 Gaussian 09, Revision D.01,
 Gaussian 09:  ES64L-G09RevD.01 24-Apr-2013

 --------------------
 #p B2PLYPD3/Def2QZVP
 --------------------

 ----------
 butane_opt
 ----------
 Symbolic Z-matrix:
 Charge =  0 Multiplicity = 1

                         Standard orientation:
 ---------------------------------------------------------------------
 Center     Atomic      Atomic             Coordinates (Angstroms)
 Number     Number       Type             X           Y           Z
 ---------------------------------------------------------------------
      1          6           0        1.988651    0.045501   -0.218976
      2          6           0        0.669030   -0.366759    0.228233
      3          1           0        2.869159   -0.937710   -0.022859
      4          1           0        2.034532    0.742223    0.574292
      5          1           0        1.904849    0.541855   -1.170239
      6          6           0       -0.597933    0.616641    0.078908
      7          1           0        0.925619   -1.089376    1.448475
      8          1           0        0.265797   -0.910640   -0.415095
      9          6           0       -2.036679   -0.153569   -0.171819
     10          1           0       -0.283898    0.798078   -0.527668
     11          1           0       -0.546105    1.746150    1.104695
     12          1           0       -1.798707   -1.068671   -1.055270
     13          1           0       -2.691806    0.203547   -0.594347
     14          1           0       -2.817855   -0.876339    1.159940
 ---------------------------------------------------------------------

 SCF Done:  E(RB2PLYPD3) =  -157.530912406     A.U. after   12 cycles
 E2(B2PLYPD3) =    -0.2582460693D+00 E(B2PLYPD3) =    -0.15778915847557D+03

 The electronic state is 1-A.
 Alpha  occ. eigenvalues --  -10.66902 -10.64426 -10.62883 -10.62277  -0.95896
 Alpha  occ. eigenvalues --   -0.85186  -0.78016  -0.67802  -0.54731  -0.52909
 Alpha  occ. eigenvalues --   -0.47606  -0.46051  -0.41975  -0.39854  -0.36695
 Alpha  occ. eigenvalues --   -0.35585  -0.33645
 Alpha virt. eigenvalues --    0.01461   0.03678   0.05531   0.07408   0.08498
 Alpha virt. eigenvalues --    0.10529   0.11557   0.11961   0.13707   0.14231
 Alpha virt. eigenvalues --    0.15474   0.15736   0.18231   0.18353   0.19592

 Mulliken charges:
               1
     1  C   -0.171091
     2  C   -0.097076
     3  H    0.062382
     4  H    0.075033
     5  H    0.051100
     6  C   -0.618932
     7  H   -0.005005
     8  H    0.115871
     9  C   -0.212419
    10  H    0.593397
    11  H    0.009417
    12  H    0.018970
    13  H    0.171132
    14  H    0.007221
 Sum of Mulliken charges =   0.00000

 Dipole moment (field-independent basis, Debye):
    X=              0.1815    Y=              0.1886    Z=             -1.2171  Tot=              1.2449
 Quadrupole moment (field-independent basis, Debye-Ang):
   XX=            -30.2478   YY=            -31.0672   ZZ=            -29.1417
   XY=             -0.8861   XZ=              1.5894   YZ=              0.1109

 Normal termination of Gaussian 09 at Wed Aug 26 19:39:59 2020.
