 Gaussian 09, Revision D.01,
 Gaussian 09:  ES64L-G09RevD.01 24-Apr-2013

 --------------------
 #p B2PLYPD3/Def2QZVP
 --------------------

 ----------
 butane_opt
 ----------
 Symbolic Z-matrix:
 Charge =  0 Multiplicity = 1

                         Standard orientation:
 ---------------------------------------------------------------------
 Center     Atomic      Atomic             Coordinates (Angstroms)
 Number     Number       Type             X           Y           Z
 ---------------------------------------------------------------------
      1          6           0       -2.049112    0.145611    0.122730
      2          6           0       -0.490148   -0.622546    0.041990
      3          1           0       -2.775043   -0.644658   -0.930779
      4          1           0       -1.726082    0.227626   -0.554505
      5          1           0       -2.513615    1.416647    1.376264
      6          6           0        0.568736    0.518335   -0.171113
      7          1           0       -0.354943   -1.526301   -0.950490
      8          1           0       -0.539049   -1.107838    0.651458
      9          6           0        1.940299   -0.049569    0.086071
     10          1           0        0.538778    1.036325    0.563828
     11          1           0        0.487385    1.471584   -1.418624
     12          1           0        2.094110   -1.008170    1.291746
     13          1           0        2.643720    0.635074    0.029181
     14          1           0        2.326094   -0.451269   -0.536151
 ---------------------------------------------------------------------

 SCF Done:  E(RB2PLYPD3) =  -157.271797683     A.U. after   13 cycles
 E2(B2PLYPD3) =    -0.2655422004D+00 E(B2PLYPD3) =    -0.15753733988379D+03

 The electronic state is 1-A.
 Alpha  occ. eigenvalues --  -10.64788 -10.64549 -10.63762 -10.60851  -0.94212
 Alpha  occ. eigenvalues --   -0.88074  -0.78065  -0.73474  -0.55662  -0.48542
 Alpha  occ. eigenvalues --   -0.46759  -0.44463  -0.41435  -0.39025  -0.36242
 Alpha  occ. eigenvalues --   -0.34359  -0.32204
 Alpha virt. eigenvalues --   -0.04362   0.01524   0.03541   0.05208   0.08823
 Alpha virt. eigenvalues --    0.09786   0.10677   0.12629   0.13106   0.14498
 Alpha virt. eigenvalues --    0.15919   0.16155   0.17562   0.18388   0.19908

 Mulliken charges:
               1
     1  C   -0.626825
     2  C   -0.304256
     3  H    0.002498
     4  H    0.478428
     5  H    0.083318
     6  C   -0.106165
     7  H    0.018539
     8  H    0.297447
     9  C   -0.223917
    10  H    0.165795
    11  H    0.015711
    12  H    0.010563
    13  H    0.048155
    14  H    0.140709
 Sum of Mulliken charges =   0.00000

 Dipole moment (field-independent basis, Debye):
    X=              1.5869    Y=              0.5155    Z=             -0.2339  Tot=              1.6848
 Quadrupole moment (field-independent basis, Debye-Ang):
   XX=            -33.4251   YY=            -29.1871   ZZ=            -28.4330
   XY=             -1.0931   XZ=             -1.1426   YZ=              1.2450

 Normal termination of Gaussian 09 at Wed Aug 26 18:45:10 2020.
