 Gaussian 09, Revision D.01,
 Gaussian 09:  ES64L-G09RevD.01 24-Apr-2013

 --------------------
 #p B2PLYPD3/Def2QZVP
 --------------------

 ----------
 butane_opt
 ----------
 Symbolic Z-matrix:
 Charge =  0 Multiplicity = 1

                         Standard orientation:
 ---------------------------------------------------------------------
 Center     Atomic      Atomic             Coordinates (Angstroms)
 Number     Number       Type             X           Y           Z
 ---------------------------------------------------------------------
      1          6           0       -1.946029    0.062652   -0.220383
      2          6           0       -0.628361   -0.423551    0.347219
      3          1           0       -2.895114   -0.995911   -0.390047
      4          1           0       -1.783891    0.369060   -1.122796
      5          1           0       -2.366253    1.110675    0.661612
      6          6           0        0.584877    0.581745   -0.023468
      7          1           0       -0.415171   -0.844052   -0.294098
      8          1           0       -0.430768   -0.938006    1.524798
      9          6           0        1.983190   -0.223625   -0.101495
     10          1           0        0.796420    1.622529    0.820246
     11          1           0        0.200199    0.734861   -0.699006
     12          1           0        1.944573   -0.459628    0.712144
     13          1           0        2.701363    0.458182   -0.253538
     14          1           0        2.286578   -1.041038   -0.970549
 ---------------------------------------------------------------------

 SCF Done:  E(RB2PLYPD3) =  -157.647942616     A.U. after   11 cycles
 E2(B2PLYPD3) =    -0.2528835266D+00 E(B2PLYPD3) =    -0.15790082614297D+03

 The electronic state is 1-A.
 Alpha  occ. eigenvalues --  -10.65761 -10.61459 -10.60305 -10.58623  -0.95420
 Alpha  occ. eigenvalues --   -0.85260  -0.75781  -0.69240  -0.55591  -0.52987
 Alpha  occ. eigenvalues --   -0.47564  -0.45311  -0.44272  -0.40501  -0.39037
 Alpha  occ. eigenvalues --   -0.36976  -0.33546
 Alpha virt. eigenvalues --    0.03856   0.06208   0.07412   0.08067   0.08939
 Alpha virt. eigenvalues --    0.11241   0.12072   0.13045   0.13811   0.14864
 Alpha virt. eigenvalues --    0.15627   0.16385   0.18159   0.18931   0.20638

 Mulliken charges:
               1
     1  C   -0.188295
     2  C   -0.405345
     3  H    0.031930
     4  H    0.101945
     5  H    0.027191
     6  C   -0.345232
     7  H    0.388347
     8  H    0.040054
     9  C   -0.243164
    10  H    0.018321
    11  H    0.305577
    12  H    0.177111
    13  H    0.061239
    14  H    0.030320
 Sum of Mulliken charges =   0.00000

 Dipole moment (field-independent basis, Debye):
    X=              0.6379    Y=             -0.1701    Z=             -0.5313  Tot=              0.8474
 Quadrupole moment (field-independent basis, Debye-Ang):
   XX=            -30.8854   YY=            -30.0339   ZZ=            -27.8045
   XY=              0.5156   XZ=              0.7417   YZ=              0.5111

 Normal termination of Gaussian 09 at Wed Aug 26 12:06:10 2020.
