 Gaussian 09, Revision D.01,
 Gaussian 09:  ES64L-G09RevD.01 24-Apr-2013

 --------------------
 #p B2PLYPD3/Def2QZVP
 --------------------

 ----------
 butane_opt
 ----------
 Symbolic Z-matrix:
 Charge =  0 Multiplicity = 1

                         Standard orientation:
 ---------------------------------------------------------------------
 Center     Atomic      Atomic             Coordinates (Angstroms)
 Number     Number       Type             X           Y           Z
 ---------------------------------------------------------------------
      1          6           0        2.041565   -0.200149   -0.097068
      2          6           0        0.584888    0.626521    0.114628
      3          1           0        2.887617    0.743957   -0.166714
      4          1           0        1.963114   -1.110504   -1.059871
      5          1           0        2.341201   -0.809663    0.751150
      6          6           0       -0.665375   -0.435944    0.267082
      7          1           0        0.404557    1.284211   -1.061804
      8          1           0        0.411136    1.117818    0.762961
      9          6           0       -1.932230    0.079253   -0.147671
     10          1           0       -0.736485   -1.148453    1.320058
     11          1           0       -0.331665   -1.040491   -0.480212
     12          1           0       -2.539542    1.065243    0.774615
     13          1           0       -2.840416   -0.896110   -0.867336
     14          1           0       -1.732608    0.375906   -0.794672
 ---------------------------------------------------------------------

 SCF Done:  E(RB2PLYPD3) =  -157.646299583     A.U. after   12 cycles
 E2(B2PLYPD3) =    -0.2559543319D+00 E(B2PLYPD3) =    -0.15790225391463D+03

 The electronic state is 1-A.
 Alpha  occ. eigenvalues --  -10.66514 -10.63630 -10.62921 -10.62149  -0.93547
 Alpha  occ. eigenvalues --   -0.83776  -0.73490  -0.68933  -0.55057  -0.48890
 Alpha  occ. eigenvalues --   -0.45898  -0.44921  -0.42107  -0.40703  -0.38118
 Alpha  occ. eigenvalues --   -0.37531  -0.33015
 Alpha virt. eigenvalues --    0.02841   0.04333   0.06661   0.07285   0.09360
 Alpha virt. eigenvalues --    0.09803   0.11567   0.11832   0.13712   0.14677
 Alpha virt. eigenvalues --    0.15040   0.15917   0.18356   0.18718   0.19093

 Mulliken charges:
               1
     1  C   -0.167171
     2  C   -0.201328
     3  H    0.056127
     4  H    0.042312
     5  H    0.071253
     6  C   -0.045726
     7  H    0.008849
     8  H    0.216621
     9  C   -0.511857
    10  H    0.024729
    11  H    0.070583
    12  H    0.027264
    13  H    0.002664
    14  H    0.405679
 Sum of Mulliken charges =   0.00000

 Dipole moment (field-independent basis, Debye):
    X=              0.9543    Y=              0.1063    Z=             -0.0085  Tot=              0.9602
 Quadrupole moment (field-independent basis, Debye-Ang):
   XX=            -32.9301   YY=            -29.4293   ZZ=            -28.9023
   XY=             -0.6269   XZ=              0.7639   YZ=              0.7439

 Normal termination of Gaussian 09 at Thu Aug 27 00:31:22 2020.
