 Gaussian 09, Revision D.01,
 Gaussian 09:  ES64L-G09RevD.01 24-Apr-2013

 --------------------
 #p B2PLYPD3/Def2QZVP
 --------------------

 ----------
 butane_opt
 ----------
 Symbolic Z-matrix:
 Charge =  0 Multiplicity = 1

                         Standard orientation:
 ---------------------------------------------------------------------
 Center     Atomic      Atomic             Coordinates (Angstroms)
 Number     Number       Type             X           Y           Z
 ---------------------------------------------------------------------
      1          6           0        1.884508   -0.109788    0.109114
      2          6           0        0.555946    0.489600   -0.170990
      3          1           0        2.734030    0.820264   -0.065371
      4          1           0        2.251738   -0.279135   -0.474651
      5          1           0        2.082964   -0.992771    1.427534
      6          6           0       -0.523229   -0.628646   -0.098214
      7          1           0        0.233880    1.418086   -1.272313
      8          1           0        0.382902    0.879453    0.543466
      9          6           0       -1.921652    0.131173    0.097811
     10          1           0       -0.194379   -0.801901    0.498114
     11          1           0       -0.559355   -1.344643   -1.086631
     12          1           0       -2.316565    1.330638    1.333672
     13          1           0       -2.699711   -0.610459   -0.119200
     14          1           0       -1.888943    0.286435   -0.410951
 ---------------------------------------------------------------------

 SCF Done:  E(RB2PLYPD3) =  -156.557072987     A.U. after   12 cycles
 E2(B2PLYPD3) =    -0.2591805314D+00 E(B2PLYPD3) =    -0.15681625351834D+03

 The electronic state is 1-A.
 Alpha  occ. eigenvalues --  -10.63687 -10.62604 -10.61697 -10.59664  -0.97961
 Alpha  occ. eigenvalues --   -0.90837  -0.83629  -0.72723  -0.54684  -0.51549
 Alpha  occ. eigenvalues --   -0.49865  -0.45917  -0.41766  -0.40732  -0.37726
 Alpha  occ. eigenvalues --   -0.36239  -0.33765
 Alpha virt. eigenvalues --    0.00412   0.01375   0.04966   0.07101   0.08929
 Alpha virt. eigenvalues --    0.10485   0.11479   0.12714   0.14104   0.14986
 Alpha virt. eigenvalues --    0.15852   0.16525   0.17807   0.19006   0.21383

 Mulliken charges:
               1
     1  C   -0.574982
     2  C   -0.224394
     3  H    0.023129
     4  H    0.425656
     5  H    0.058861
     6  C   -0.521485
     7  H    0.001615
     8  H    0.272589
     9  C   -0.942753
    10  H    0.542257
    11  H    0.055864
    12  H    0.027817
    13  H    0.104321
    14  H    0.751504
 Sum of Mulliken charges =   0.00000

 Dipole moment (field-independent basis, Debye):
    X=              0.2501    Y=             -0.4383    Z=             -0.4679  Tot=              0.6882
 Quadrupole moment (field-independent basis, Debye-Ang):
   XX=            -29.8860   YY=            -29.5764   ZZ=            -27.7863
   XY=             -0.2954   XZ=              0.4910   YZ=              0.4116

 Normal termination of Gaussian 09 at Wed Aug 26 14:28:18 2020.
