 Gaussian 09, Revision D.01,
 Gaussian 09:  ES64L-G09RevD.01 24-Apr-2013

 --------------------
 #p B2PLYPD3/Def2QZVP
 --------------------

 ----------
 butane_opt
 ----------
 Symbolic Z-matrix:
 Charge =  0 Multiplicity = 1

                         Standard orientation:
 ---------------------------------------------------------------------
 Center     Atomic      Atomic             Coordinates (Angstroms)
 Number     Number       Type             X           Y           Z
 ---------------------------------------------------------------------
      1          6           0        2.002002   -0.160695   -0.126349
      2          6           0        0.582056    0.555307    0.230852
      3          1           0        2.747526    0.425084   -0.850638
      4          1           0        1.752424   -0.897770   -1.024885
      5          1           0        2.440531   -0.861085    0.858650
      6          6           0       -0.628179   -0.390047    0.153814
      7          1           0        0.720359    0.946608   -0.543107
      8          1           0        0.435033    1.630995    1.215134
      9          6           0       -1.981159    0.095797   -0.202124
     10          1           0       -0.678091   -1.297334    1.225021
     11          1           0       -0.429161   -1.004720   -0.544440
     12          1           0       -2.077919    0.446023    0.421863
     13          1           0       -2.669928   -0.709028    0.042346
     14          1           0       -2.089094    0.719056   -1.137100
 ---------------------------------------------------------------------

 SCF Done:  E(RB2PLYPD3) =  -157.699393929     A.U. after   11 cycles
 E2(B2PLYPD3) =    -0.2530570304D+00 E(B2PLYPD3) =    -0.15795245095906D+03

 The electronic state is 1-A.
 Alpha  occ. eigenvalues --  -10.65667 -10.62997 -10.61967 -10.56281  -0.93947
 Alpha  occ. eigenvalues --   -0.86739  -0.73849  -0.67509  -0.54801  -0.50811
 Alpha  occ. eigenvalues --   -0.49045  -0.45836  -0.43006  -0.40462  -0.37569
 Alpha  occ. eigenvalues --   -0.36219  -0.35014
 Alpha virt. eigenvalues --    0.04819   0.05392   0.07059   0.07409   0.10806
 Alpha virt. eigenvalues --    0.10914   0.11519   0.13621   0.13994   0.14509
 Alpha virt. eigenvalues --    0.15604   0.16369   0.18137   0.19480   0.20883

 Mulliken charges:
               1
     1  C   -0.159748
     2  C   -0.213806
     3  H    0.052601
     4  H    0.036588
     5  H    0.048761
     6  C   -0.024192
     7  H    0.208304
     8  H    0.004945
     9  C   -0.549641
    10  H   -0.025661
    11  H    0.086947
    12  H    0.405809
    13  H    0.061430
    14  H    0.067663
 Sum of Mulliken charges =   0.00000

 Dipole moment (field-independent basis, Debye):
    X=             -0.1939    Y=              0.0661    Z=             -0.9340  Tot=              0.9562
 Quadrupole moment (field-independent basis, Debye-Ang):
   XX=            -29.6614   YY=            -29.8339   ZZ=            -28.3450
   XY=             -0.0992   XZ=             -1.6091   YZ=             -0.6161

 Normal termination of Gaussian 09 at Wed Aug 26 10:27:57 2020.
