 Gaussian 09, Revision D.01,
 Gaussian 09:  ES64L-G09RevD.01 24-Apr-2013

 --------------------
 #p B2PLYPD3/Def2QZVP
 --------------------

 ----------
 butane_opt
 ----------
 Symbolic Z-matrix:
 Charge =  0 Multiplicity = 1

                         Standard orientation:
 ---------------------------------------------------------------------
 Center     Atomic      Atomic             Coordinates (Angstroms)
 Number     Number       Type             X           Y           Z
 ---------------------------------------------------------------------
      1          6           0        1.926082   -0.148253   -0.171810
      2          6           0        0.528706    0.555512    0.294436
      3          1           0        2.716944    0.669099   -0.714163
      4          1           0        1.930581   -0.560361   -1.048862
      5          1           0        2.558616   -1.036066    0.779083
      6          6           0       -0.642341   -0.511426    0.083825
      7          1           0        0.367763    0.782656   -0.239601
      8          1           0        0.407599    1.522276    1.435184
      9          6           0       -1.870737    0.087539   -0.142486
     10          1           0       -0.653089   -1.189637    1.041490
     11          1           0       -0.341766   -0.883933   -0.690969
     12          1           0       -2.200136    0.262170    0.415943
     13          1           0       -2.549776   -0.714703   -0.059659
     14          1           0       -1.886998    1.248265   -1.302238
 ---------------------------------------------------------------------

 SCF Done:  E(RB2PLYPD3) =  -157.065826781     A.U. after   12 cycles
 E2(B2PLYPD3) =    -0.2557225546D+00 E(B2PLYPD3) =    -0.15732154933584D+03

 The electronic state is 1-A.
 Alpha  occ. eigenvalues --  -10.64620 -10.61951 -10.60025 -10.59733  -0.98089
 Alpha  occ. eigenvalues --   -0.90262  -0.77122  -0.73058  -0.55466  -0.51989
 Alpha  occ. eigenvalues --   -0.48806  -0.47145  -0.40577  -0.39908  -0.38323
 Alpha  occ. eigenvalues --   -0.36841  -0.33875
 Alpha virt. eigenvalues --    0.02603   0.04370   0.05544   0.07032   0.09718
 Alpha virt. eigenvalues --    0.10533   0.11335   0.12845   0.13137   0.15057
 Alpha virt. eigenvalues --    0.15608   0.16509   0.18311   0.18654   0.20800

 Mulliken charges:
               1
     1  C   -0.156547
     2  C   -0.942437
     3  H    0.019166
     4  H    0.092754
     5  H    0.030497
     6  C    0.005243
     7  H    0.838907
     8  H    0.037375
     9  C   -0.568501
    10  H    0.031778
    11  H    0.115658
    12  H    0.425455
    13  H    0.055839
    14  H    0.014811
 Sum of Mulliken charges =   0.00000

 Dipole moment (field-independent basis, Debye):
    X=             -0.6210    Y=             -0.4421    Z=             -0.1576  Tot=              0.7784
 Quadrupole moment (field-independent basis, Debye-Ang):
   XX=            -30.6611   YY=            -29.5487   ZZ=            -27.8943
   XY=              0.3034   XZ=             -3.0778   YZ=             -0.6326

 Normal termination of Gaussian 09 at Wed Aug 26 22:10:31 2020.
