 Gaussian 09, Revision D.01,
 Gaussian 09:  ES64L-G09RevD.01 24-Apr-2013

 --------------------
 #p B2PLYPD3/Def2QZVP
 --------------------

 ----------
 butane_opt
 ----------
 Symbolic Z-matrix:
 Charge =  0 Multiplicity = 1

                         Standard orientation:
 ---------------------------------------------------------------------
 Center     Atomic      Atomic             Coordinates (Angstroms)
 Number     Number       Type             X           Y           Z
 ---------------------------------------------------------------------
      1          6           0       -1.856620    0.065726   -0.104593
      2          6           0       -0.632828   -0.453112    0.142122
      3          1           0       -2.622196   -0.918573   -0.087873
      4          1           0       -1.749636    0.948853   -1.099784
      5          1           0       -1.901799    0.712096    0.706630
      6          6           0        0.533178    0.523060    0.143742
      7          1           0       -0.514936   -1.061398   -0.756743
      8          1           0       -0.703255   -0.857163    0.798507
      9          6           0        1.972795   -0.151134   -0.133984
     10          1           0        0.279763    1.295840    1.215391
     11          1           0        0.134602    0.963867   -0.663022
     12          1           0        2.488227   -1.116612    0.894935
     13          1           0        2.740046    0.656162   -0.358832
     14          1           0        1.750034   -0.530318   -0.932933
 ---------------------------------------------------------------------

 SCF Done:  E(RB2PLYPD3) =  -157.778306536     A.U. after   11 cycles
 E2(B2PLYPD3) =    -0.2527055564D+00 E(B2PLYPD3) =    -0.15803101209219D+03

 The electronic state is 1-A.
 Alpha  occ. eigenvalues --  -10.63652 -10.62793 -10.62161 -10.55676  -0.96992
 Alpha  occ. eigenvalues --   -0.84973  -0.72676  -0.69165  -0.58546  -0.50670
 Alpha  occ. eigenvalues --   -0.48636  -0.46539  -0.42020  -0.40109  -0.38413
 Alpha  occ. eigenvalues --   -0.37346  -0.34973
 Alpha virt. eigenvalues --    0.04447   0.05041   0.07353   0.08318   0.10303
 Alpha virt. eigenvalues --    0.10456   0.12003   0.12659   0.14460   0.14801
 Alpha virt. eigenvalues --    0.15487   0.16046   0.18481   0.19566   0.20516

 Mulliken charges:
               1
     1  C   -0.135471
     2  C   -0.272741
     3  H    0.060413
     4  H    0.003388
     5  H    0.054153
     6  C   -0.086247
     7  H    0.027363
     8  H    0.263500
     9  C   -0.216230
    10  H   -0.008685
    11  H    0.090224
    12  H    0.024956
    13  H    0.056574
    14  H    0.138801
 Sum of Mulliken charges =   0.00000

 Dipole moment (field-independent basis, Debye):
    X=             -0.0364    Y=             -0.3676    Z=             -0.1992  Tot=              0.4197
 Quadrupole moment (field-independent basis, Debye-Ang):
   XX=            -31.1258   YY=            -29.6336   ZZ=            -28.5755
   XY=              1.3053   XZ=             -1.3645   YZ=             -0.5523

 Normal termination of Gaussian 09 at Wed Aug 26 16:07:43 2020.
