 Gaussian 09, Revision D.01,
 Gaussian 09:  ES64L-G09RevD.01 24-Apr-2013

 --------------------
 #p B2PLYPD3/Def2QZVP
 --------------------

 ----------
 butane_opt
 ----------
 Symbolic Z-matrix:
 Charge =  0 Multiplicity = 1

                         Standard orientation:
 ---------------------------------------------------------------------
 Center     Atomic      Atomic             Coordinates (Angstroms)
 Number     Number       Type             X           Y           Z
 ---------------------------------------------------------------------
      1          6           0       -1.966176   -0.133844    0.115194
      2          6           0       -0.627225    0.525037   -0.247756
      3          1           0       -2.518562    0.437426    0.726398
      4          1           0       -1.659275   -0.652158    0.907468
      5          1           0       -2.723630   -0.740258   -0.562693
      6          6           0        0.588666   -0.474602   -0.100494
      7          1           0       -0.388007    1.109826    0.555232
      8          1           0       -0.350377    1.178934   -1.211199
      9          6           0        1.973430    0.067363    0.091490
     10          1           0        0.474566   -1.008298   -0.979204
     11          1           0        0.544707   -1.109426    0.839262
     12          1           0        1.814830    0.508654   -0.555235
     13          1           0        2.862713   -0.696052   -0.135817
     14          1           0        2.130865    1.067630    1.265182
 ---------------------------------------------------------------------

 SCF Done:  E(RB2PLYPD3) =  -157.856366502     A.U. after   11 cycles
 E2(B2PLYPD3) =    -0.2514014399D+00 E(B2PLYPD3) =    -0.15810776794233D+03

 The electronic state is 1-A.
 Alpha  occ. eigenvalues --  -10.62095 -10.61239 -10.60594 -10.59524  -0.93446
 Alpha  occ. eigenvalues --   -0.86632  -0.74641  -0.66623  -0.55317  -0.50770
 Alpha  occ. eigenvalues --   -0.49048  -0.47366  -0.43325  -0.40464  -0.39042
 Alpha  occ. eigenvalues --   -0.35483  -0.34792
 Alpha virt. eigenvalues --    0.04136   0.06363   0.07653   0.08310   0.10287
 Alpha virt. eigenvalues --    0.11004   0.12053   0.13757   0.14365   0.15074
 Alpha virt. eigenvalues --    0.16015   0.16186   0.18401   0.19721   0.21325

 Mulliken charges:
               1
     1  C   -0.157150
     2  C   -0.093756
     3  H    0.042438
     4  H    0.065150
     5  H    0.052150
     6  C   -0.036299
     7  H    0.073903
     8  H    0.020316
     9  C   -0.403138
    10  H    0.054213
    11  H    0.016462
    12  H    0.294411
    13  H    0.072368
    14  H   -0.001069
 Sum of Mulliken charges =   0.00000

 Dipole moment (field-independent basis, Debye):
    X=             -0.3280    Y=             -0.1930    Z=             -0.1897  Tot=              0.4252
 Quadrupole moment (field-independent basis, Debye-Ang):
   XX=            -29.6229   YY=            -30.0169   ZZ=            -28.1060
   XY=             -0.5387   XZ=             -1.5630   YZ=              0.4975

 Normal termination of Gaussian 09 at Wed Aug 26 22:11:24 2020.
