 Gaussian 09, Revision D.01,
 Gaussian 09:  ES64L-G09RevD.01 24-Apr-2013

 --------------------
 #p B2PLYPD3/Def2QZVP
 --------------------

 ----------
 butane_opt
 ----------
 Symbolic Z-matrix:
 Charge =  0 Multiplicity = 1

                         Standard orientation:
 ---------------------------------------------------------------------
 Center     Atomic      Atomic             Coordinates (Angstroms)
 Number     Number       Type             X           Y           Z
 ---------------------------------------------------------------------
      1          6           0       -1.912576   -0.112531   -0.181435
      2          6           0       -0.565801    0.571074    0.156544
      3          1           0       -2.453485    0.367012   -0.492056
      4          1           0       -2.553889   -0.920142    0.794299
      5          1           0       -1.713151   -0.838301   -0.962381
      6          6           0        0.531367   -0.464945    0.142714
      7          1           0       -0.748600    1.663106    1.217710
      8          1           0       -0.216475    0.812086   -0.522423
      9          6           0        1.924815    0.082711   -0.140840
     10          1           0        0.375723   -1.079928   -0.662191
     11          1           0        0.704406   -1.136299    1.267947
     12          1           0        2.150217    0.822463   -1.207558
     13          1           0        2.766052   -0.618028    0.275357
     14          1           0        1.822371    0.470176    0.429400
 ---------------------------------------------------------------------

 SCF Done:  E(RB2PLYPD3) =  -157.484408094     A.U. after   11 cycles
 E2(B2PLYPD3) =    -0.2528143881D+00 E(B2PLYPD3) =    -0.15773722248237D+03

 The electronic state is 1-A.
 Alpha  occ. eigenvalues --  -10.63199 -10.62297 -10.60351 -10.58680  -0.96905
 Alpha  occ. eigenvalues --   -0.88247  -0.79017  -0.67680  -0.54681  -0.52700
 Alpha  occ. eigenvalues --   -0.50263  -0.45648  -0.43109  -0.40699  -0.38736
 Alpha  occ. eigenvalues --   -0.36312  -0.35179
 Alpha virt. eigenvalues --    0.04034   0.05910   0.06120   0.07273   0.10310
 Alpha virt. eigenvalues --    0.11294   0.12038   0.13427   0.14154   0.15106
 Alpha virt. eigenvalues --    0.15340   0.16345   0.18214   0.19326   0.20958

 Mulliken charges:
               1
     1  C   -0.303561
     2  C   -0.355485
     3  H    0.238142
     4  H    0.014882
     5  H    0.042457
     6  C   -0.041113
     7  H    0.015881
     8  H    0.349257
     9  C   -0.704953
    10  H    0.081138
    11  H    0.000855
    12  H    0.046718
    13  H    0.074676
    14  H    0.541107
 Sum of Mulliken charges =   0.00000

 Dipole moment (field-independent basis, Debye):
    X=              0.0145    Y=              0.1250    Z=             -0.6011  Tot=              0.6142
 Quadrupole moment (field-independent basis, Debye-Ang):
   XX=            -29.8160   YY=            -29.7364   ZZ=            -28.2879
   XY=             -0.5037   XZ=              1.2759   YZ=             -0.1733

 Normal termination of Gaussian 09 at Wed Aug 26 12:06:51 2020.
