 Gaussian 09, Revision D.01,
 Gaussian 09:  ES64L-G09RevD.01 24-Apr-2013

 --------------------
 #p B2PLYPD3/Def2QZVP
 --------------------

 ----------
 butane_opt
 ----------
 Symbolic Z-matrix:
 Charge =  0 Multiplicity = 1

                         Standard orientation:
 ---------------------------------------------------------------------
 Center     Atomic      Atomic             Coordinates (Angstroms)
 Number     Number       Type             X           Y           Z
 ---------------------------------------------------------------------
      1          6           0        1.972454    0.082349   -0.184629
      2          6           0        0.622769   -0.502662    0.266903
      3          1           0        2.845678   -0.805361   -0.061952
      4          1           0        2.232169    0.557525    0.400305
      5          1           0        1.748466    0.670148   -1.185236
      6          6           0       -0.567472    0.639296    0.068345
      7          1           0        0.500431   -0.917451    1.287511
      8          1           0        0.667469   -0.949475   -0.397884
      9          6           0       -2.023932   -0.180755   -0.143960
     10          1           0       -0.363113    0.880188   -0.512367
     11          1           0       -0.619309    1.882940    1.108105
     12          1           0       -1.881381   -0.934198   -0.859986
     13          1           0       -2.575768    0.076914   -0.665737
     14          1           0       -2.577557   -0.690602    0.847291
 ---------------------------------------------------------------------

 SCF Done:  E(RB2PLYPD3) =  -157.363999702     A.U. after   12 cycles
 E2(B2PLYPD3) =    -0.2509531647D+00 E(B2PLYPD3) =    -0.15761495286650D+03

 The electronic state is 1-A.
 Alpha  occ. eigenvalues --  -10.63319 -10.59553 -10.59209 -10.58507  -0.94017
 Alpha  occ. eigenvalues --   -0.86947  -0.80163  -0.73586  -0.57558  -0.50554
 Alpha  occ. eigenvalues --   -0.47786  -0.45515  -0.43623  -0.42386  -0.39393
 Alpha  occ. eigenvalues --   -0.36215  -0.34973
 Alpha virt. eigenvalues --    0.03750   0.06269   0.06380   0.08685   0.10908
 Alpha virt. eigenvalues --    0.11225   0.12648   0.13145   0.14536   0.15465
 Alpha virt. eigenvalues --    0.16395   0.16448   0.18075   0.18591   0.21053

 Mulliken charges:
               1
     1  C   -0.345285
     2  C   -0.299129
     3  H    0.026825
     4  H    0.235909
     5  H    0.053954
     6  C   -0.666416
     7  H    0.068724
     8  H    0.321637
     9  C   -0.272701
    10  H    0.602405
    11  H   -0.009450
    12  H    0.031373
    13  H    0.205444
    14  H    0.046708
 Sum of Mulliken charges =   0.00000

 Dipole moment (field-independent basis, Debye):
    X=              0.0689    Y=             -0.3871    Z=             -0.6469  Tot=              0.7570
 Quadrupole moment (field-independent basis, Debye-Ang):
   XX=            -28.6763   YY=            -29.6964   ZZ=            -27.3430
   XY=              0.6222   XZ=              1.5549   YZ=             -0.6278

 Normal termination of Gaussian 09 at Wed Aug 26 12:38:06 2020.
