 Gaussian 09, Revision D.01,
 Gaussian 09:  ES64L-G09RevD.01 24-Apr-2013

 --------------------
 #p B2PLYPD3/Def2QZVP
 --------------------

 ----------
 butane_opt
 ----------
 Symbolic Z-matrix:
 Charge =  0 Multiplicity = 1

                         Standard orientation:
 ---------------------------------------------------------------------
 Center     Atomic      Atomic             Coordinates (Angstroms)
 Number     Number       Type             X           Y           Z
 ---------------------------------------------------------------------
      1          6           0        2.021777   -0.204984   -0.186716
      2          6           0        0.527539    0.628123    0.156362
      3          1           0        2.673479    0.226277   -0.325731
      4          1           0        1.985585   -0.479715   -0.899989
      5          1           0        2.558367   -0.907114    0.813495
      6          6           0       -0.632940   -0.496624    0.136730
      7          1           0        0.275926    1.013986   -0.640711
      8          1           0        0.860381    1.667631    1.249902
      9          6           0       -1.912781    0.106312   -0.121808
     10          1           0       -0.715719   -1.352902    1.189779
     11          1           0       -0.507675   -1.010418   -0.738740
     12          1           0       -2.216450    0.617913    0.596167
     13          1           0       -2.915551   -0.814902   -0.045969
     14          1           0       -2.019908    0.842278   -1.105615
 ---------------------------------------------------------------------

 SCF Done:  E(RB2PLYPD3) =  -157.628166146     A.U. after   12 cycles
 E2(B2PLYPD3) =    -0.2532802761D+00 E(B2PLYPD3) =    -0.15788144642248D+03

 The electronic state is 1-A.
 Alpha  occ. eigenvalues --  -10.65428 -10.63534 -10.61853 -10.56779  -0.92410
 Alpha  occ. eigenvalues --   -0.88256  -0.76846  -0.67379  -0.53405  -0.51977
 Alpha  occ. eigenvalues --   -0.48414  -0.45889  -0.42937  -0.40447  -0.38178
 Alpha  occ. eigenvalues --   -0.35811  -0.34983
 Alpha virt. eigenvalues --    0.03774   0.05489   0.06655   0.06909   0.09911
 Alpha virt. eigenvalues --    0.10830   0.12437   0.12688   0.13843   0.14910
 Alpha virt. eigenvalues --    0.16089   0.16397   0.17892   0.19948   0.20846

 Mulliken charges:
               1
     1  C   -0.469155
     2  C   -0.195608
     3  H    0.198126
     4  H    0.217773
     5  H    0.038955
     6  C   -0.050302
     7  H    0.157657
     8  H    0.021445
     9  C   -0.164067
    10  H    0.017224
    11  H    0.097876
    12  H    0.091358
    13  H    0.010591
    14  H    0.028128
 Sum of Mulliken charges =   0.00000

 Dipole moment (field-independent basis, Debye):
    X=              0.2291    Y=              0.2967    Z=             -0.6694  Tot=              0.7672
 Quadrupole moment (field-independent basis, Debye-Ang):
   XX=            -29.1298   YY=            -30.0026   ZZ=            -28.1506
   XY=              0.1314   XZ=             -1.0816   YZ=             -0.4277

 Normal termination of Gaussian 09 at Wed Aug 26 11:31:42 2020.
