 Gaussian 09, Revision D.01,
 Gaussian 09:  ES64L-G09RevD.01 24-Apr-2013

 --------------------
 #p B2PLYPD3/Def2QZVP
 --------------------

 ----------
 butane_opt
 ----------
 Symbolic Z-matrix:
 Charge =  0 Multiplicity = 1

                         Standard orientation:
 ---------------------------------------------------------------------
 Center     Atomic      Atomic             Coordinates (Angstroms)
 Number     Number       Type             X           Y           Z
 ---------------------------------------------------------------------
      1          6           0       -1.918968   -0.121299   -0.008803
      2          6           0       -0.530539    0.489115   -0.019913
      3          1           0       -2.729171    0.710770   -0.176679
      4          1           0       -1.920047   -0.911885    1.000317
      5          1           0       -2.090118   -0.550223   -0.655068
      6          6           0        0.545487   -0.551160    0.002121
      7          1           0       -0.565594    1.201857    0.825167
      8          1           0       -0.410564    1.178773   -0.912644
      9          6           0        1.888889    0.141597   -0.009882
     10          1           0        0.517965   -1.074993   -0.797572
     11          1           0        0.380237   -1.178300    0.850345
     12          1           0        1.969199    0.427588   -0.609986
     13          1           0        2.707724   -0.570975   -0.331580
     14          1           0        2.231153    1.017867    1.026563
 ---------------------------------------------------------------------

 SCF Done:  E(RB2PLYPD3) =  -157.650673820     A.U. after   11 cycles
 E2(B2PLYPD3) =    -0.2477949770D+00 E(B2PLYPD3) =    -0.15789846879666D+03

 The electronic state is 1-A.
 Alpha  occ. eigenvalues --  -10.60493 -10.58989 -10.58905 -10.58859  -0.94162
 Alpha  occ. eigenvalues --   -0.87386  -0.77839  -0.69230  -0.55150  -0.51767
 Alpha  occ. eigenvalues --   -0.50180  -0.45802  -0.42964  -0.41335  -0.39059
 Alpha  occ. eigenvalues --   -0.37748  -0.36937
 Alpha virt. eigenvalues --    0.05266   0.06246   0.07981   0.08360   0.10843
 Alpha virt. eigenvalues --    0.11621   0.12345   0.13109   0.14494   0.15895
 Alpha virt. eigenvalues --    0.16075   0.16500   0.19409   0.19545   0.22268

 Mulliken charges:
               1
     1  C   -0.345180
     2  C    0.015936
     3  H    0.033881
     4  H    0.028206
     5  H    0.216449
     6  C    0.009861
     7  H    0.039599
     8  H    0.004421
     9  C   -0.663869
    10  H    0.059889
    11  H    0.036559
    12  H    0.475870
    13  H    0.044308
    14  H    0.044068
 Sum of Mulliken charges =   0.00000

 Dipole moment (field-independent basis, Debye):
    X=             -0.0281    Y=             -0.1431    Z=             -0.7998  Tot=              0.8130
 Quadrupole moment (field-independent basis, Debye-Ang):
   XX=            -30.5816   YY=            -28.4900   ZZ=            -27.7020
   XY=             -0.2333   XZ=             -0.2159   YZ=              0.3066

 Normal termination of Gaussian 09 at Wed Aug 26 22:46:02 2020.
