 Gaussian 09, Revision D.01,
 Gaussian 09:  ES64L-G09RevD.01 24-Apr-2013

 --------------------
 #p B2PLYPD3/Def2QZVP
 --------------------

 ----------
 butane_opt
 ----------
 Symbolic Z-matrix:
 Charge =  0 Multiplicity = 1

                         Standard orientation:
 ---------------------------------------------------------------------
 Center     Atomic      Atomic             Coordinates (Angstroms)
 Number     Number       Type             X           Y           Z
 ---------------------------------------------------------------------
      1          6           0       -2.076940    0.184122   -0.056848
      2          6           0       -0.550127   -0.569271    0.050464
      3          1           0       -2.782472   -0.643343   -0.356834
      4          1           0       -1.813357    0.168692   -0.488709
      5          1           0       -2.455866    1.354982    1.149105
      6          6           0        0.573265    0.422488   -0.179636
      7          1           0       -0.253937   -1.281232   -0.697790
      8          1           0       -0.419487   -1.124611    1.013528
      9          6           0        1.965018   -0.093344    0.047351
     10          1           0        0.626573    1.326543    0.816537
     11          1           0        0.703858    1.036410   -1.241933
     12          1           0        1.881621   -0.792708    1.065228
     13          1           0        2.767164    0.770240    0.082076
     14          1           0        2.278606   -0.478943   -0.509201
 ---------------------------------------------------------------------

 SCF Done:  E(RB2PLYPD3) =  -156.839562317     A.U. after   12 cycles
 E2(B2PLYPD3) =    -0.2588252332D+00 E(B2PLYPD3) =    -0.15709838755056D+03

 The electronic state is 1-A.
 Alpha  occ. eigenvalues --  -10.65940 -10.64692 -10.63425 -10.58860  -0.95291
 Alpha  occ. eigenvalues --   -0.89431  -0.78282  -0.66046  -0.54168  -0.50363
 Alpha  occ. eigenvalues --   -0.48887  -0.47371  -0.42895  -0.38644  -0.38158
 Alpha  occ. eigenvalues --   -0.34593  -0.33960
 Alpha virt. eigenvalues --    0.00186   0.04798   0.07056   0.07505   0.09089
 Alpha virt. eigenvalues --    0.10350   0.11615   0.12407   0.14212   0.14924
 Alpha virt. eigenvalues --    0.15760   0.16536   0.17806   0.19710   0.20884

 Mulliken charges:
               1
     1  C   -0.992051
     2  C   -0.067601
     3  H    0.112189
     4  H    0.793453
     5  H    0.080306
     6  C   -0.023752
     7  H    0.049451
     8  H    0.047536
     9  C   -0.428737
    10  H    0.002610
    11  H    0.028572
    12  H    0.042110
    13  H    0.050787
    14  H    0.305126
 Sum of Mulliken charges =   0.00000

 Dipole moment (field-independent basis, Debye):
    X=              0.4331    Y=             -0.5026    Z=             -0.4126  Tot=              0.7812
 Quadrupole moment (field-independent basis, Debye-Ang):
   XX=            -29.8739   YY=            -29.2405   ZZ=            -28.0331
   XY=              0.3602   XZ=             -1.5756   YZ=              1.1149

 Normal termination of Gaussian 09 at Wed Aug 26 10:00:09 2020.
