 Gaussian 09, Revision D.01,
 Gaussian 09:  ES64L-G09RevD.01 24-Apr-2013

 --------------------
 #p B2PLYPD3/Def2QZVP
 --------------------

 ----------
 butane_opt
 ----------
 Symbolic Z-matrix:
 Charge =  0 Multiplicity = 1

                         Standard orientation:
 ---------------------------------------------------------------------
 Center     Atomic      Atomic             Coordinates (Angstroms)
 Number     Number       Type             X           Y           Z
 ---------------------------------------------------------------------
      1          6           0        2.054782   -0.167504   -0.155325
      2          6           0        0.513669    0.608924    0.180990
      3          1           0        2.707924    0.383701   -1.021817
      4          1           0        1.914722   -0.367963   -0.761299
      5          1           0        2.612004   -0.992137    1.179059
      6          6           0       -0.634534   -0.538965    0.173026
      7          1           0        0.178470    0.970898   -0.534000
      8          1           0        0.485111    1.946017    1.202197
      9          6           0       -1.924180    0.074616   -0.182770
     10          1           0       -0.662451   -1.128674    1.124824
     11          1           0       -0.189712   -1.244296   -0.702735
     12          1           0       -2.262482    0.631237    0.579303
     13          1           0       -2.733874   -0.723816   -0.060212
     14          1           0       -2.108138    0.662599   -1.100847
 ---------------------------------------------------------------------

 SCF Done:  E(RB2PLYPD3) =  -157.446346295     A.U. after   12 cycles
 E2(B2PLYPD3) =    -0.2590436315D+00 E(B2PLYPD3) =    -0.15770538992670D+03

 The electronic state is 1-A.
 Alpha  occ. eigenvalues --  -10.65173 -10.64141 -10.63980 -10.60121  -0.92848
 Alpha  occ. eigenvalues --   -0.88468  -0.77831  -0.67738  -0.52765  -0.50172
 Alpha  occ. eigenvalues --   -0.47089  -0.45270  -0.42680  -0.39349  -0.36763
 Alpha  occ. eigenvalues --   -0.35845  -0.33465
 Alpha virt. eigenvalues --    0.00839   0.03231   0.05671   0.06586   0.08630
 Alpha virt. eigenvalues --    0.10345   0.11888   0.12480   0.14012   0.14995
 Alpha virt. eigenvalues --    0.16209   0.16528   0.17253   0.18518   0.19455

 Mulliken charges:
               1
     1  C   -0.773443
     2  C   -0.230376
     3  H    0.037132
     4  H    0.658628
     5  H    0.070269
     6  C   -0.020182
     7  H    0.202021
     8  H   -0.023215
     9  C   -0.140406
    10  H    0.052258
    11  H    0.028977
    12  H    0.065724
    13  H    0.028750
    14  H    0.043862
 Sum of Mulliken charges =   0.00000

 Dipole moment (field-independent basis, Debye):
    X=             -0.7471    Y=             -0.7175    Z=             -0.8526  Tot=              1.3416
 Quadrupole moment (field-independent basis, Debye-Ang):
   XX=            -30.4708   YY=            -30.8564   ZZ=            -27.6928
   XY=             -1.6820   XZ=             -1.3543   YZ=             -1.7114

 Normal termination of Gaussian 09 at Wed Aug 26 13:36:34 2020.
