 Gaussian 09, Revision D.01,
 Gaussian 09:  ES64L-G09RevD.01 24-Apr-2013

 --------------------
 #p B2PLYPD3/Def2QZVP
 --------------------

 ----------
 butane_opt
 ----------
 Symbolic Z-matrix:
 Charge =  0 Multiplicity = 1

                         Standard orientation:
 ---------------------------------------------------------------------
 Center     Atomic      Atomic             Coordinates (Angstroms)
 Number     Number       Type             X           Y           Z
 ---------------------------------------------------------------------
      1          6           0        2.066686   -0.165871    0.216682
      2          6           0        0.507998    0.592224   -0.261996
      3          1           0        2.764847    0.534988    0.665374
      4          1           0        2.722336   -1.123861   -0.850918
      5          1           0        1.804612   -0.469238    0.844189
      6          6           0       -0.585758   -0.454985   -0.208831
      7          1           0        0.631244    1.426239   -1.265783
      8          1           0       -0.010847    0.981554    0.629198
      9          6           0       -1.970893    0.022480    0.140190
     10          1           0       -0.582926   -1.213745    0.780960
     11          1           0       -0.731175   -0.979291   -0.923238
     12          1           0       -1.804706    1.020221    1.302957
     13          1           0       -2.850979   -0.732983    0.120993
     14          1           0       -2.050604    0.593034   -0.619993
 ---------------------------------------------------------------------

 SCF Done:  E(RB2PLYPD3) =  -157.664057474     A.U. after   11 cycles
 E2(B2PLYPD3) =    -0.2568401415D+00 E(B2PLYPD3) =    -0.15792089761537D+03

 The electronic state is 1-A.
 Alpha  occ. eigenvalues --  -10.65268 -10.63331 -10.62355 -10.60908  -0.93128
 Alpha  occ. eigenvalues --   -0.85113  -0.75433  -0.67577  -0.55076  -0.51082
 Alpha  occ. eigenvalues --   -0.49183  -0.43475  -0.42572  -0.38903  -0.37402
 Alpha  occ. eigenvalues --   -0.36966  -0.33414
 Alpha virt. eigenvalues --    0.03668   0.03848   0.06794   0.07781   0.09166
 Alpha virt. eigenvalues --    0.10245   0.11124   0.12535   0.13296   0.14765
 Alpha virt. eigenvalues --    0.15812   0.16379   0.17506   0.18945   0.19895

 Mulliken charges:
               1
     1  C   -0.494990
     2  C   -0.112736
     3  H    0.067339
     4  H    0.029658
     5  H    0.394360
     6  C   -0.060501
     7  H    0.041936
     8  H    0.063754
     9  C   -0.177554
    10  H    0.002527
    11  H    0.092016
    12  H   -0.017866
    13  H    0.069733
    14  H    0.102325
 Sum of Mulliken charges =   0.00000

 Dipole moment (field-independent basis, Debye):
    X=             -0.4273    Y=             -0.2588    Z=             -0.2591  Tot=              0.5627
 Quadrupole moment (field-independent basis, Debye-Ang):
   XX=            -30.1465   YY=            -30.2209   ZZ=            -28.6569
   XY=              1.8290   XZ=              1.8105   YZ=              0.0215

 Normal termination of Gaussian 09 at Wed Aug 26 23:35:04 2020.
