 Gaussian 09, Revision D.01,
 Gaussian 09:  ES64L-G09RevD.01 24-Apr-2013

 --------------------
 #p B2PLYPD3/Def2QZVP
 --------------------

 ----------
 butane_opt
 ----------
 Symbolic Z-matrix:
 Charge =  0 Multiplicity = 1

                         Standard orientation:
 ---------------------------------------------------------------------
 Center     Atomic      Atomic             Coordinates (Angstroms)
 Number     Number       Type             X           Y           Z
 ---------------------------------------------------------------------
      1          6           0        1.979862    0.131394    0.086610
      2          6           0        0.518700   -0.544875    0.003689
      3          1           0        2.637663   -0.670695   -0.469128
      4          1           0        2.295999    1.556257    1.041881
      5          1           0        1.912451    0.377800   -0.633430
      6          6           0       -0.564730    0.358225   -0.209395
      7          1           0        0.033036   -1.168182    0.925720
      8          1           0        0.336882   -1.517899   -0.834499
      9          6           0       -1.854693   -0.009883    0.086342
     10          1           0       -0.655578    0.895694   -1.060591
     11          1           0       -0.309713    1.255864    0.706681
     12          1           0       -1.877098   -0.182099   -0.438832
     13          1           0       -2.726831    0.717773   -0.416540
     14          1           0       -2.121652   -0.873678    1.375263
 ---------------------------------------------------------------------

 SCF Done:  E(RB2PLYPD3) =  -156.958682932     A.U. after   12 cycles
 E2(B2PLYPD3) =    -0.2629544035D+00 E(B2PLYPD3) =    -0.15722163733559D+03

 The electronic state is 1-A.
 Alpha  occ. eigenvalues --  -10.65246 -10.63334 -10.62273 -10.61451  -1.01236
 Alpha  occ. eigenvalues --   -0.90366  -0.79340  -0.65917  -0.55514  -0.50408
 Alpha  occ. eigenvalues --   -0.48961  -0.44923  -0.40260  -0.39538  -0.38288
 Alpha  occ. eigenvalues --   -0.35896  -0.31697
 Alpha virt. eigenvalues --   -0.01251   0.03398   0.05208   0.06284   0.09035
 Alpha virt. eigenvalues --    0.09691   0.11460   0.12163   0.13140   0.15291
 Alpha virt. eigenvalues --    0.15461   0.16525   0.17108   0.18445   0.20424

 Mulliken charges:
               1
     1  C   -0.513640
     2  C   -0.026444
     3  H    0.049609
     4  H    0.065110
     5  H    0.418704
     6  C    0.058523
     7  H    0.024585
     8  H   -0.012075
     9  C   -0.962002
    10  H    0.031035
    11  H   -0.014593
    12  H    0.769222
    13  H    0.061824
    14  H    0.050142
 Sum of Mulliken charges =   0.00000

 Dipole moment (field-independent basis, Debye):
    X=             -0.2631    Y=              0.0415    Z=             -1.3086  Tot=              1.3354
 Quadrupole moment (field-independent basis, Debye-Ang):
   XX=            -31.1704   YY=            -29.8951   ZZ=            -28.2788
   XY=              1.0556   XZ=             -0.2541   YZ=             -0.0316

 Normal termination of Gaussian 09 at Wed Aug 26 20:55:23 2020.
