 Gaussian 09, Revision D.01,
 Gaussian 09:  ES64L-G09RevD.01 24-Apr-2013

 --------------------
 #p B2PLYPD3/Def2QZVP
 --------------------

 ----------
 butane_opt
 ----------
 Symbolic Z-matrix:
 Charge =  0 Multiplicity = 1

                         Standard orientation:
 ---------------------------------------------------------------------
 Center     Atomic      Atomic             Coordinates (Angstroms)
 Number     Number       Type             X           Y           Z
 ---------------------------------------------------------------------
      1          6           0       -1.985394   -0.008164    0.042038
      2          6           0       -0.593371    0.403854   -0.164647
      3          1           0       -2.821608    0.637345    0.104919
      4          1           0       -1.874805   -0.731252    1.243339
      5          1           0       -2.166633   -0.648355   -0.600251
      6          6           0        0.551235   -0.567040    0.001256
      7          1           0       -0.617737    0.990989    0.426858
      8          1           0       -0.587143    1.150948   -1.286483
      9          6           0        2.046589    0.131979    0.037756
     10          1           0        0.378282   -1.131525   -0.678287
     11          1           0        0.214162   -1.246223    1.114453
     12          1           0        2.159048    0.220400   -0.525717
     13          1           0        2.800504   -0.656585   -0.634378
     14          1           0        2.401576    1.650486    1.337126
 ---------------------------------------------------------------------

 SCF Done:  E(RB2PLYPD3) =  -157.104613822     A.U. after   14 cycles
 E2(B2PLYPD3) =    -0.2615566447D+00 E(B2PLYPD3) =    -0.15736617046667D+03

 The electronic state is 1-A.
 Alpha  occ. eigenvalues --  -10.66355 -10.63680 -10.60714 -10.59785  -0.95341
 Alpha  occ. eigenvalues --   -0.91139  -0.79411  -0.71099  -0.54380  -0.51234
 Alpha  occ. eigenvalues --   -0.49881  -0.45480  -0.40512  -0.39311  -0.35910
 Alpha  occ. eigenvalues --   -0.35334  -0.34475
 Alpha virt. eigenvalues --   -0.05885   0.04685   0.05425   0.06464   0.09729
 Alpha virt. eigenvalues --    0.10083   0.11819   0.12639   0.13816   0.15218
 Alpha virt. eigenvalues --    0.15863   0.16436   0.17628   0.19110   0.20135

 Mulliken charges:
               1
     1  C   -0.164788
     2  C   -0.187306
     3  H    0.066394
     4  H   -0.018357
     5  H    0.083832
     6  C   -0.095602
     7  H    0.215460
     8  H   -0.025301
     9  C   -0.868876
    10  H    0.136130
    11  H    0.017164
    12  H    0.766558
    13  H    0.026037
    14  H    0.048655
 Sum of Mulliken charges =   0.00000

 Dipole moment (field-independent basis, Debye):
    X=             -0.4433    Y=              0.3030    Z=             -0.9921  Tot=              1.1281
 Quadrupole moment (field-independent basis, Debye-Ang):
   XX=            -30.5931   YY=            -29.4624   ZZ=            -28.7663
   XY=             -0.0214   XZ=             -1.3919   YZ=              2.1736

 Normal termination of Gaussian 09 at Wed Aug 26 10:06:26 2020.
