 Gaussian 09, Revision D.01,
 Gaussian 09:  ES64L-G09RevD.01 24-Apr-2013

 --------------------
 #p B2PLYPD3/Def2QZVP
 --------------------

 ----------
 butane_opt
 ----------
 Symbolic Z-matrix:
 Charge =  0 Multiplicity = 1

                         Standard orientation:
 ---------------------------------------------------------------------
 Center     Atomic      Atomic             Coordinates (Angstroms)
 Number     Number       Type             X           Y           Z
 ---------------------------------------------------------------------
      1          6           0       -1.946584   -0.152039   -0.127129
      2          6           0       -0.581634    0.501395    0.136530
      3          1           0       -2.806534    0.553267    0.070531
      4          1           0       -2.006749   -0.375833    0.534906
      5          1           0       -2.079325   -0.952111   -1.238988
      6          6           0        0.571796   -0.548645    0.181468
      7          1           0       -0.615103    1.490239    1.264235
      8          1           0       -0.530539    1.138185   -0.719058
      9          6           0        1.975955    0.102443   -0.172950
     10          1           0        0.516463   -0.912966   -0.446155
     11          1           0        0.580130   -1.558777    1.169059
     12          1           0        1.739415    0.918928   -1.114249
     13          1           0        2.491177   -0.310092   -0.347584
     14          1           0        2.593863    0.590237    0.719790
 ---------------------------------------------------------------------

 SCF Done:  E(RB2PLYPD3) =  -157.281021848     A.U. after   12 cycles
 E2(B2PLYPD3) =    -0.2526013158D+00 E(B2PLYPD3) =    -0.15753362316350D+03

 The electronic state is 1-A.
 Alpha  occ. eigenvalues --  -10.64833 -10.61447 -10.59611 -10.59188  -0.94301
 Alpha  occ. eigenvalues --   -0.89026  -0.80213  -0.69224  -0.54183  -0.51854
 Alpha  occ. eigenvalues --   -0.47485  -0.46968  -0.41730  -0.39863  -0.39302
 Alpha  occ. eigenvalues --   -0.36954  -0.35601
 Alpha virt. eigenvalues --    0.04636   0.05499   0.06206   0.06563   0.10233
 Alpha virt. eigenvalues --    0.11428   0.12427   0.13796   0.14346   0.14921
 Alpha virt. eigenvalues --    0.15805   0.16187   0.18203   0.19231   0.20861

 Mulliken charges:
               1
     1  C   -0.629160
     2  C    0.005323
     3  H    0.057555
     4  H    0.473843
     5  H    0.058758
     6  C   -0.491163
     7  H   -0.013584
     8  H    0.064940
     9  C   -0.552881
    10  H    0.487816
    11  H    0.022263
    12  H    0.048976
    13  H    0.419900
    14  H    0.047413
 Sum of Mulliken charges =   0.00000

 Dipole moment (field-independent basis, Debye):
    X=              0.0630    Y=             -0.4774    Z=             -0.5401  Tot=              0.7236
 Quadrupole moment (field-independent basis, Debye-Ang):
   XX=            -28.4334   YY=            -29.5202   ZZ=            -28.3728
   XY=             -0.8956   XZ=             -0.3819   YZ=              0.1550

 Normal termination of Gaussian 09 at Wed Aug 26 09:57:46 2020.
