 Gaussian 09, Revision D.01,
 Gaussian 09:  ES64L-G09RevD.01 24-Apr-2013

 --------------------
 #p B2PLYPD3/Def2QZVP
 --------------------

 ----------
 butane_opt
 ----------
 Symbolic Z-matrix:
 Charge =  0 Multiplicity = 1

                         Standard orientation:
 ---------------------------------------------------------------------
 Center     Atomic      Atomic             Coordinates (Angstroms)
 Number     Number       Type             X           Y           Z
 ---------------------------------------------------------------------
      1          6           0       -1.897243    0.071263    0.103835
      2          6           0       -0.616585   -0.461719   -0.055759
      3          1           0       -2.679747   -0.660797   -0.258103
      4          1           0       -1.919584    0.539535   -0.650279
      5          1           0       -1.949618    0.969062    1.212889
      6          6           0        0.539957    0.522631   -0.087908
      7          1           0       -0.522669   -1.323275   -1.098661
      8          1           0       -0.439856   -0.825814    0.681921
      9          6           0        1.959795   -0.166393    0.064949
     10          1           0        0.448463    1.015700    0.692594
     11          1           0        0.267344    1.267264   -1.022960
     12          1           0        2.205103   -1.002291    1.145647
     13          1           0        2.725337    0.568812   -0.324343
     14          1           0        1.949678   -0.342891   -0.529409
 ---------------------------------------------------------------------

 SCF Done:  E(RB2PLYPD3) =  -157.397714650     A.U. after   11 cycles
 E2(B2PLYPD3) =    -0.2521101876D+00 E(B2PLYPD3) =    -0.15764982483750D+03

 The electronic state is 1-A.
 Alpha  occ. eigenvalues --  -10.60293 -10.60073 -10.59855 -10.58848  -0.95937
 Alpha  occ. eigenvalues --   -0.90186  -0.77987  -0.69240  -0.55207  -0.50165
 Alpha  occ. eigenvalues --   -0.48098  -0.47381  -0.41950  -0.41527  -0.39266
 Alpha  occ. eigenvalues --   -0.36797  -0.35146
 Alpha virt. eigenvalues --    0.05041   0.05387   0.06028   0.07868   0.10388
 Alpha virt. eigenvalues --    0.11178   0.12378   0.12449   0.13942   0.15127
 Alpha virt. eigenvalues --    0.16038   0.16682   0.18588   0.19079   0.21471

 Mulliken charges:
               1
     1  C   -0.207632
     2  C   -0.180517
     3  H    0.053866
     4  H    0.124386
     5  H    0.025935
     6  C   -0.044835
     7  H   -0.012229
     8  H    0.189135
     9  C   -0.829647
    10  H    0.096970
    11  H    0.004015
    12  H    0.082090
    13  H    0.068275
    14  H    0.630188
 Sum of Mulliken charges =   0.00000

 Dipole moment (field-independent basis, Debye):
    X=              0.1018    Y=             -0.0578    Z=             -0.1751  Tot=              0.2106
 Quadrupole moment (field-independent basis, Debye-Ang):
   XX=            -30.0334   YY=            -29.5841   ZZ=            -27.3775
   XY=             -0.1925   XZ=              0.7328   YZ=             -0.3256

 Normal termination of Gaussian 09 at Wed Aug 26 23:49:41 2020.
