 Gaussian 09, Revision D.01,
 Gaussian 09:  ES64L-G09RevD.01 24-Apr-2013

 --------------------
 #p B2PLYPD3/Def2QZVP
 --------------------

 ----------
 butane_opt
 ----------
 Symbolic Z-matrix:
 Charge =  0 Multiplicity = 1

                         Standard orientation:
 ---------------------------------------------------------------------
 Center     Atomic      Atomic             Coordinates (Angstroms)
 Number     Number       Type             X           Y           Z
 ---------------------------------------------------------------------
      1          6           0       -1.930389    0.133547    0.068665
      2          6           0       -0.527126   -0.609806   -0.174208
      3          1           0       -2.510080   -0.400272    0.480179
      4          1           0       -2.625295    0.931209   -0.878322
      5          1           0       -1.893802    0.636007    0.827923
      6          6           0        0.530712    0.408652   -0.072247
      7          1           0       -0.465852   -1.055922   -0.955296
      8          1           0       -0.196044   -1.153476    0.782629
      9          6           0        1.939887   -0.040276    0.073047
     10          1           0        0.287422    1.137872    0.944788
     11          1           0        0.843047    1.144271   -0.868827
     12          1           0        1.736873   -0.729382    1.049660
     13          1           0        2.631032    0.769206    0.062659
     14          1           0        2.114193   -0.632211   -0.816936
 ---------------------------------------------------------------------

 SCF Done:  E(RB2PLYPD3) =  -157.902156194     A.U. after   11 cycles
 E2(B2PLYPD3) =    -0.2502759373D+00 E(B2PLYPD3) =    -0.15815243213115D+03

 The electronic state is 1-A.
 Alpha  occ. eigenvalues --  -10.61553 -10.60717 -10.60635 -10.58946  -0.93337
 Alpha  occ. eigenvalues --   -0.85697  -0.77314  -0.65069  -0.57049  -0.51084
 Alpha  occ. eigenvalues --   -0.49437  -0.46674  -0.44448  -0.40242  -0.39444
 Alpha  occ. eigenvalues --   -0.36423  -0.34126
 Alpha virt. eigenvalues --    0.05387   0.05953   0.07794   0.08447   0.10430
 Alpha virt. eigenvalues --    0.11325   0.12234   0.12907   0.14653   0.15693
 Alpha virt. eigenvalues --    0.16168   0.16916   0.18804   0.19561   0.21382

 Mulliken charges:
               1
     1  C   -0.214200
     2  C   -0.083930
     3  H    0.084652
     4  H    0.026753
     5  H    0.082168
     6  C   -0.019237
     7  H    0.091203
     8  H    0.040798
     9  C   -0.137893
    10  H   -0.003213
    11  H    0.007066
    12  H    0.015130
    13  H    0.063147
    14  H    0.047556
 Sum of Mulliken charges =   0.00000

 Dipole moment (field-independent basis, Debye):
    X=              0.0353    Y=             -0.1500    Z=              0.0442  Tot=              0.1603
 Quadrupole moment (field-independent basis, Debye-Ang):
   XX=            -29.8049   YY=            -29.8027   ZZ=            -28.1014
   XY=              1.0794   XZ=             -2.0425   YZ=              0.1233

 Normal termination of Gaussian 09 at Wed Aug 26 22:46:19 2020.
