 Gaussian 09, Revision D.01,
 Gaussian 09:  ES64L-G09RevD.01 24-Apr-2013

 --------------------
 #p B2PLYPD3/Def2QZVP
 --------------------

 ----------
 butane_opt
 ----------
 Symbolic Z-matrix:
 Charge =  0 Multiplicity = 1

                         Standard orientation:
 ---------------------------------------------------------------------
 Center     Atomic      Atomic             Coordinates (Angstroms)
 Number     Number       Type             X           Y           Z
 ---------------------------------------------------------------------
      1          6           0       -1.901225    0.116938   -0.143858
      2          6           0       -0.558895   -0.464296    0.164769
      3          1           0       -2.953915   -1.038136   -0.202485
      4          1           0       -1.771212    0.803976   -1.092976
      5          1           0       -2.152836    0.558132    0.609398
      6          6           0        0.482265    0.552018    0.174853
      7          1           0       -0.442598   -0.981150   -0.705306
      8          1           0       -0.569912   -0.945427    1.017399
      9          6           0        1.989065   -0.137184   -0.168597
     10          1           0        0.291334    1.481145    1.229802
     11          1           0        0.428369    0.879154   -0.525166
     12          1           0        2.654979   -1.135286    0.874662
     13          1           0        2.783493    0.584985   -0.638367
     14          1           0        1.665044   -0.612245   -0.729957
 ---------------------------------------------------------------------

 SCF Done:  E(RB2PLYPD3) =  -157.651295786     A.U. after   11 cycles
 E2(B2PLYPD3) =    -0.2530586099D+00 E(B2PLYPD3) =    -0.15790435439566D+03

 The electronic state is 1-A.
 Alpha  occ. eigenvalues --  -10.63633 -10.63183 -10.61825 -10.58578  -0.96221
 Alpha  occ. eigenvalues --   -0.85671  -0.75774  -0.70337  -0.58749  -0.51246
 Alpha  occ. eigenvalues --   -0.49103  -0.45459  -0.43970  -0.41742  -0.37076
 Alpha  occ. eigenvalues --   -0.36037  -0.35489
 Alpha virt. eigenvalues --    0.03434   0.03577   0.06709   0.08182   0.09453
 Alpha virt. eigenvalues --    0.09865   0.11652   0.12224   0.14631   0.14821
 Alpha virt. eigenvalues --    0.15327   0.16045   0.17623   0.19312   0.20478

 Mulliken charges:
               1
     1  C   -0.188141
     2  C   -0.038268
     3  H   -0.012966
     4  H    0.056702
     5  H    0.105508
     6  C   -0.403685
     7  H    0.063806
     8  H    0.063700
     9  C   -0.384115
    10  H    0.011182
    11  H    0.365537
    12  H    0.001167
    13  H    0.067817
    14  H    0.291756
 Sum of Mulliken charges =   0.00000

 Dipole moment (field-independent basis, Debye):
    X=             -0.0119    Y=              0.3510    Z=             -0.6293  Tot=              0.7207
 Quadrupole moment (field-independent basis, Debye-Ang):
   XX=            -32.9180   YY=            -29.8129   ZZ=            -28.2288
   XY=              0.1016   XZ=             -2.2596   YZ=             -0.6739

 Normal termination of Gaussian 09 at Wed Aug 26 20:28:17 2020.
