 Gaussian 09, Revision D.01,
 Gaussian 09:  ES64L-G09RevD.01 24-Apr-2013

 --------------------
 #p B2PLYPD3/Def2QZVP
 --------------------

 ----------
 butane_opt
 ----------
 Symbolic Z-matrix:
 Charge =  0 Multiplicity = 1

                         Standard orientation:
 ---------------------------------------------------------------------
 Center     Atomic      Atomic             Coordinates (Angstroms)
 Number     Number       Type             X           Y           Z
 ---------------------------------------------------------------------
      1          6           0        2.005584   -0.166842   -0.002790
      2          6           0        0.549331    0.572437    0.060346
      3          1           0        2.786993    0.563607   -0.878950
      4          1           0        1.999958   -0.091804   -0.506188
      5          1           0        2.501327   -1.535952    1.361042
      6          6           0       -0.632936   -0.503811   -0.090468
      7          1           0        0.751365    1.115745   -0.754778
      8          1           0        0.365975    1.595860    1.179035
      9          6           0       -1.965997    0.026945    0.016247
     10          1           0       -0.567001   -0.998484    0.698899
     11          1           0       -0.656009   -1.131663   -1.097010
     12          1           0       -2.325905    0.821577    1.159084
     13          1           0       -2.576914   -0.604262   -0.195260
     14          1           0       -2.015679    0.693001   -0.865882
 ---------------------------------------------------------------------

 SCF Done:  E(RB2PLYPD3) =  -156.763397538     A.U. after   14 cycles
 E2(B2PLYPD3) =    -0.2669025800D+00 E(B2PLYPD3) =    -0.15703030011761D+03

 The electronic state is 1-A.
 Alpha  occ. eigenvalues --  -10.68990 -10.66683 -10.61487 -10.60927  -0.97257
 Alpha  occ. eigenvalues --   -0.91529  -0.76645  -0.68445  -0.54215  -0.52296
 Alpha  occ. eigenvalues --   -0.48888  -0.43792  -0.40097  -0.38756  -0.37752
 Alpha  occ. eigenvalues --   -0.35600  -0.30687
 Alpha virt. eigenvalues --   -0.05291   0.01561   0.04892   0.05662   0.07964
 Alpha virt. eigenvalues --    0.10080   0.11251   0.11796   0.13318   0.14755
 Alpha virt. eigenvalues --    0.16059   0.16170   0.17721   0.18697   0.19472

 Mulliken charges:
               1
     1  C   -1.082477
     2  C   -0.072810
     3  H   -0.002969
     4  H    0.963161
     5  H    0.060274
     6  C   -0.055583
     7  H    0.080733
     8  H    0.009887
     9  C   -0.171285
    10  H    0.096698
    11  H    0.030223
    12  H    0.020532
    13  H    0.094238
    14  H    0.029379
 Sum of Mulliken charges =   0.00000

 Dipole moment (field-independent basis, Debye):
    X=             -0.7814    Y=             -0.7380    Z=             -1.1482  Tot=              1.5727
 Quadrupole moment (field-independent basis, Debye-Ang):
   XX=            -33.1753   YY=            -30.1171   ZZ=            -27.5176
   XY=              0.1706   XZ=             -0.9500   YZ=             -1.2608

 Normal termination of Gaussian 09 at Wed Aug 26 12:36:56 2020.
