 Gaussian 09, Revision D.01,
 Gaussian 09:  ES64L-G09RevD.01 24-Apr-2013

 --------------------
 #p B2PLYPD3/Def2QZVP
 --------------------

 ----------
 butane_opt
 ----------
 Symbolic Z-matrix:
 Charge =  0 Multiplicity = 1

                         Standard orientation:
 ---------------------------------------------------------------------
 Center     Atomic      Atomic             Coordinates (Angstroms)
 Number     Number       Type             X           Y           Z
 ---------------------------------------------------------------------
      1          6           0        1.909363    0.066861   -0.205622
      2          6           0        0.623521   -0.542307    0.120343
      3          1           0        2.729130   -0.590261   -0.205309
      4          1           0        2.307510    0.759786    0.679130
      5          1           0        1.955202    0.754961   -1.013435
      6          6           0       -0.569526    0.615458    0.173825
      7          1           0        0.836941   -1.463401    1.373556
      8          1           0        0.380178   -0.868843   -0.424337
      9          6           0       -2.056535   -0.142967   -0.132586
     10          1           0       -0.226858    1.189899   -0.757036
     11          1           0       -0.395993    1.446149    1.234942
     12          1           0       -2.028926   -0.931664   -1.185967
     13          1           0       -2.700617    0.371806   -0.133146
     14          1           0       -2.297505   -0.650706    0.695841
 ---------------------------------------------------------------------

 SCF Done:  E(RB2PLYPD3) =  -157.624565978     A.U. after   11 cycles
 E2(B2PLYPD3) =    -0.2520798507D+00 E(B2PLYPD3) =    -0.15787664582889D+03

 The electronic state is 1-A.
 Alpha  occ. eigenvalues --  -10.66224 -10.61536 -10.60112 -10.59952  -0.92888
 Alpha  occ. eigenvalues --   -0.84889  -0.76013  -0.69014  -0.52762  -0.51093
 Alpha  occ. eigenvalues --   -0.49257  -0.46139  -0.43501  -0.40048  -0.38878
 Alpha  occ. eigenvalues --   -0.36251  -0.34867
 Alpha virt. eigenvalues --    0.04042   0.05882   0.06249   0.07877   0.10492
 Alpha virt. eigenvalues --    0.11761   0.12478   0.13299   0.14236   0.15100
 Alpha virt. eigenvalues --    0.15334   0.16266   0.18776   0.18853   0.21164

 Mulliken charges:
               1
     1  C   -0.068159
     2  C   -0.594903
     3  H    0.053214
     4  H    0.016092
     5  H    0.046083
     6  C   -0.078770
     7  H   -0.012831
     8  H    0.547325
     9  C   -0.251274
    10  H    0.048607
    11  H    0.032037
    12  H    0.029235
    13  H    0.170131
    14  H    0.063213
 Sum of Mulliken charges =   0.00000

 Dipole moment (field-independent basis, Debye):
    X=             -0.2110    Y=              0.2143    Z=             -0.4993  Tot=              0.5829
 Quadrupole moment (field-independent basis, Debye-Ang):
   XX=            -27.7414   YY=            -29.9335   ZZ=            -28.7582
   XY=              0.1807   XZ=             -0.5339   YZ=              0.4416

 Normal termination of Gaussian 09 at Wed Aug 26 12:53:40 2020.
