 Gaussian 09, Revision D.01,
 Gaussian 09:  ES64L-G09RevD.01 24-Apr-2013

 --------------------
 #p B2PLYPD3/Def2QZVP
 --------------------

 ----------
 butane_opt
 ----------
 Symbolic Z-matrix:
 Charge =  0 Multiplicity = 1

                         Standard orientation:
 ---------------------------------------------------------------------
 Center     Atomic      Atomic             Coordinates (Angstroms)
 Number     Number       Type             X           Y           Z
 ---------------------------------------------------------------------
      1          6           0        2.062665   -0.151850    0.145455
      2          6           0        0.525095    0.592764   -0.226317
      3          1           0        2.857329    0.563156    0.826132
      4          1           0        2.768184   -0.982686   -0.854732
      5          1           0        1.811354   -0.900343    0.840029
      6          6           0       -0.593995   -0.397309   -0.182103
      7          1           0        0.402647    1.379189   -1.085058
      8          1           0        0.289752    0.992820    0.466581
      9          6           0       -1.960160    0.040249    0.159382
     10          1           0       -0.711751   -1.175701    0.645238
     11          1           0       -0.633979   -0.857053   -1.015754
     12          1           0       -1.870482    0.780759    1.272007
     13          1           0       -2.790821   -0.735813   -0.041718
     14          1           0       -2.323870    0.432548   -0.431223
 ---------------------------------------------------------------------

 SCF Done:  E(RB2PLYPD3) =  -157.759505361     A.U. after   11 cycles
 E2(B2PLYPD3) =    -0.2521729321D+00 E(B2PLYPD3) =    -0.15801167829309D+03

 The electronic state is 1-A.
 Alpha  occ. eigenvalues --  -10.66271 -10.60757 -10.59670 -10.58891  -0.93945
 Alpha  occ. eigenvalues --   -0.84326  -0.73962  -0.70307  -0.57355  -0.48684
 Alpha  occ. eigenvalues --   -0.47844  -0.45751  -0.41888  -0.39232  -0.38247
 Alpha  occ. eigenvalues --   -0.37568  -0.35397
 Alpha virt. eigenvalues --    0.04396   0.04906   0.08136   0.08599   0.10043
 Alpha virt. eigenvalues --    0.10350   0.11828   0.13054   0.14189   0.15177
 Alpha virt. eigenvalues --    0.15374   0.16111   0.17994   0.19306   0.20404

 Mulliken charges:
               1
     1  C   -0.203910
     2  C   -0.235054
     3  H    0.046252
     4  H    0.023116
     5  H    0.092139
     6  C   -0.012210
     7  H    0.039773
     8  H    0.234030
     9  C   -0.325163
    10  H    0.026144
    11  H    0.048324
    12  H    0.025577
    13  H    0.036599
    14  H    0.204383
 Sum of Mulliken charges =   0.00000

 Dipole moment (field-independent basis, Debye):
    X=             -0.7263    Y=              0.1144    Z=             -0.0299  Tot=              0.7359
 Quadrupole moment (field-independent basis, Debye-Ang):
   XX=            -30.2963   YY=            -29.1944   ZZ=            -28.5432
   XY=              0.1917   XZ=              2.3742   YZ=              0.3231

 Normal termination of Gaussian 09 at Wed Aug 26 22:33:15 2020.
