 Gaussian 09, Revision D.01,
 Gaussian 09:  ES64L-G09RevD.01 24-Apr-2013

 --------------------
 #p B2PLYPD3/Def2QZVP
 --------------------

 ----------
 butane_opt
 ----------
 Symbolic Z-matrix:
 Charge =  0 Multiplicity = 1

                         Standard orientation:
 ---------------------------------------------------------------------
 Center     Atomic      Atomic             Coordinates (Angstroms)
 Number     Number       Type             X           Y           Z
 ---------------------------------------------------------------------
      1          6           0       -1.940629    0.058775   -0.169591
      2          6           0       -0.644913   -0.505294    0.313244
      3          1           0       -2.880842   -0.835646   -0.847757
      4          1           0       -1.557989    0.548356   -1.045151
      5          1           0       -2.531119    1.113043    0.807815
      6          6           0        0.537197    0.660668    0.088062
      7          1           0       -0.573081   -1.024629   -0.371235
      8          1           0       -0.425846   -1.451355    1.387473
      9          6           0        1.999901   -0.168561   -0.200570
     10          1           0        0.700128    1.519744    0.988679
     11          1           0        0.237294    1.033459   -0.717057
     12          1           0        2.421880   -0.772756    0.647801
     13          1           0        2.630237    0.444293   -0.065175
     14          1           0        2.270000   -0.848035   -0.972264
 ---------------------------------------------------------------------

 SCF Done:  E(RB2PLYPD3) =  -157.771890372     A.U. after   12 cycles
 E2(B2PLYPD3) =    -0.2560765048D+00 E(B2PLYPD3) =    -0.15802796687652D+03

 The electronic state is 1-A.
 Alpha  occ. eigenvalues --  -10.67785 -10.64486 -10.62917 -10.58935  -0.92231
 Alpha  occ. eigenvalues --   -0.84266  -0.74353  -0.67185  -0.52628  -0.50090
 Alpha  occ. eigenvalues --   -0.47096  -0.45247  -0.42324  -0.40562  -0.39306
 Alpha  occ. eigenvalues --   -0.35096  -0.34498
 Alpha virt. eigenvalues --    0.02612   0.05622   0.06533   0.07665   0.08450
 Alpha virt. eigenvalues --    0.09948   0.11865   0.13539   0.13911   0.14511
 Alpha virt. eigenvalues --    0.15696   0.16473   0.17875   0.18606   0.20177

 Mulliken charges:
               1
     1  C   -0.174729
     2  C   -0.205157
     3  H    0.027771
     4  H    0.081419
     5  H    0.010155
     6  C   -0.111813
     7  H    0.224446
     8  H    0.012767
     9  C   -0.194749
    10  H    0.040580
    11  H    0.123198
    12  H    0.012691
    13  H    0.104070
    14  H    0.049350
 Sum of Mulliken charges =   0.00000

 Dipole moment (field-independent basis, Debye):
    X=              0.9872    Y=              0.0781    Z=             -0.8052  Tot=              1.2763
 Quadrupole moment (field-independent basis, Debye-Ang):
   XX=            -31.4722   YY=            -29.1328   ZZ=            -29.1861
   XY=              0.2490   XZ=              1.4740   YZ=              1.0122

 Normal termination of Gaussian 09 at Wed Aug 26 09:55:45 2020.
