 Gaussian 09, Revision D.01,
 Gaussian 09:  ES64L-G09RevD.01 24-Apr-2013

 --------------------
 #p B2PLYPD3/Def2QZVP
 --------------------

 ----------
 butane_opt
 ----------
 Symbolic Z-matrix:
 Charge =  0 Multiplicity = 1

                         Standard orientation:
 ---------------------------------------------------------------------
 Center     Atomic      Atomic             Coordinates (Angstroms)
 Number     Number       Type             X           Y           Z
 ---------------------------------------------------------------------
      1          6           0        2.034221   -0.210768   -0.102919
      2          6           0        0.571949    0.608565    0.066466
      3          1           0        2.841277    0.595532   -0.259508
      4          1           0        2.112977   -1.148531   -0.987451
      5          1           0        2.291523   -0.604056    0.766634
      6          6           0       -0.685374   -0.389259    0.246933
      7          1           0        0.191207    1.004302   -0.875287
      8          1           0        0.616161    1.279848    0.836140
      9          6           0       -1.977782   -0.010426   -0.182782
     10          1           0       -0.773803   -1.196609    1.413501
     11          1           0       -0.303322   -0.676856   -0.338142
     12          1           0       -2.204288    1.040683    0.738022
     13          1           0       -2.636096   -0.656568   -0.703619
     14          1           0       -1.793718    0.373577   -0.756481
 ---------------------------------------------------------------------

 SCF Done:  E(RB2PLYPD3) =  -157.583524818     A.U. after   11 cycles
 E2(B2PLYPD3) =    -0.2518746206D+00 E(B2PLYPD3) =    -0.15783539943856D+03

 The electronic state is 1-A.
 Alpha  occ. eigenvalues --  -10.63447 -10.63080 -10.59193 -10.58292  -0.97059
 Alpha  occ. eigenvalues --   -0.85345  -0.77138  -0.69001  -0.56810  -0.52069
 Alpha  occ. eigenvalues --   -0.49670  -0.45663  -0.43760  -0.41384  -0.40036
 Alpha  occ. eigenvalues --   -0.36104  -0.32709
 Alpha virt. eigenvalues --    0.04590   0.05833   0.07532   0.08637   0.10454
 Alpha virt. eigenvalues --    0.11034   0.12103   0.12618   0.13367   0.14819
 Alpha virt. eigenvalues --    0.15747   0.16825   0.18157   0.19124   0.20425

 Mulliken charges:
               1
     1  C   -0.167923
     2  C   -0.089819
     3  H    0.048262
     4  H    0.034351
     5  H    0.084826
     6  C   -0.401388
     7  H    0.053480
     8  H    0.063497
     9  C   -0.563663
    10  H   -0.003640
    11  H    0.406689
    12  H    0.024363
    13  H    0.071654
    14  H    0.439311
 Sum of Mulliken charges =   0.00000

 Dipole moment (field-independent basis, Debye):
    X=              0.6480    Y=              0.1941    Z=             -0.8542  Tot=              1.0896
 Quadrupole moment (field-independent basis, Debye-Ang):
   XX=            -29.9557   YY=            -29.6042   ZZ=            -28.1780
   XY=              0.6480   XZ=              2.3724   YZ=              1.0583

 Normal termination of Gaussian 09 at Wed Aug 26 13:32:11 2020.
