 Gaussian 09, Revision D.01,
 Gaussian 09:  ES64L-G09RevD.01 24-Apr-2013

 --------------------
 #p B2PLYPD3/Def2QZVP
 --------------------

 ----------
 butane_opt
 ----------
 Symbolic Z-matrix:
 Charge =  0 Multiplicity = 1

                         Standard orientation:
 ---------------------------------------------------------------------
 Center     Atomic      Atomic             Coordinates (Angstroms)
 Number     Number       Type             X           Y           Z
 ---------------------------------------------------------------------
      1          6           0        1.968073   -0.145263    0.080054
      2          6           0        0.511935    0.583196   -0.111746
      3          1           0        2.683893    0.591779    0.030569
      4          1           0        2.057619   -0.749321   -0.740803
      5          1           0        2.097731   -0.767289    0.962228
      6          6           0       -0.574234   -0.487145   -0.025743
      7          1           0        0.237831    1.322441   -1.090037
      8          1           0        0.389628    1.020971    0.606309
      9          6           0       -1.895013    0.066243    0.060032
     10          1           0       -0.416532   -1.071472    0.757713
     11          1           0       -0.431381   -1.219339   -0.902484
     12          1           0       -2.040215    1.014511    1.196464
     13          1           0       -2.637055   -0.723738   -0.205613
     14          1           0       -2.006079    0.479280   -0.629929
 ---------------------------------------------------------------------

 SCF Done:  E(RB2PLYPD3) =  -157.874707688     A.U. after   11 cycles
 E2(B2PLYPD3) =    -0.2478932873D+00 E(B2PLYPD3) =    -0.15812260097513D+03

 The electronic state is 1-A.
 Alpha  occ. eigenvalues --  -10.59676 -10.59675 -10.59081 -10.58964  -0.93540
 Alpha  occ. eigenvalues --   -0.84879  -0.75555  -0.69506  -0.54899  -0.49565
 Alpha  occ. eigenvalues --   -0.49449  -0.47141  -0.44476  -0.41292  -0.39280
 Alpha  occ. eigenvalues --   -0.36914  -0.36315
 Alpha virt. eigenvalues --    0.04818   0.06378   0.07559   0.08221   0.10896
 Alpha virt. eigenvalues --    0.11892   0.12462   0.13928   0.14666   0.15137
 Alpha virt. eigenvalues --    0.16008   0.16566   0.19270   0.19575   0.21175

 Mulliken charges:
               1
     1  C   -0.145259
     2  C   -0.222024
     3  H    0.052727
     4  H    0.057003
     5  H    0.047989
     6  C    0.014525
     7  H    0.019350
     8  H    0.174918
     9  C   -0.310827
    10  H    0.050848
    11  H   -0.000190
    12  H    0.010265
    13  H    0.042700
    14  H    0.207974
 Sum of Mulliken charges =   0.00000

 Dipole moment (field-independent basis, Debye):
    X=              0.1962    Y=             -0.1912    Z=             -0.2281  Tot=              0.3565
 Quadrupole moment (field-independent basis, Debye-Ang):
   XX=            -30.0618   YY=            -28.5744   ZZ=            -28.0960
   XY=              0.2057   XZ=              1.6324   YZ=              0.1537

 Normal termination of Gaussian 09 at Wed Aug 26 20:57:35 2020.
