 Gaussian 09, Revision D.01,
 Gaussian 09:  ES64L-G09RevD.01 24-Apr-2013

 --------------------
 #p B2PLYPD3/Def2QZVP
 --------------------

 ----------
 butane_opt
 ----------
 Symbolic Z-matrix:
 Charge =  0 Multiplicity = 1

                         Standard orientation:
 ---------------------------------------------------------------------
 Center     Atomic      Atomic             Coordinates (Angstroms)
 Number     Number       Type             X           Y           Z
 ---------------------------------------------------------------------
      1          6           0       -1.894895    0.107841   -0.099983
      2          6           0       -0.578200   -0.523389    0.171440
      3          1           0       -2.776485   -0.685540   -0.190714
      4          1           0       -2.104539    0.644602   -1.125950
      5          1           0       -2.091870    0.683421    0.682998
      6          6           0        0.505460    0.597215    0.130477
      7          1           0       -0.538711   -1.315494   -0.733262
      8          1           0       -0.694828   -1.007766    1.058639
      9          6           0        2.026243   -0.162163   -0.139790
     10          1           0        0.529282    1.403970    1.053984
     11          1           0        0.083101    1.026147   -0.677548
     12          1           0        2.498991   -0.834017    0.785517
     13          1           0        2.793767    0.430577   -0.522774
     14          1           0        1.949647   -0.462926   -0.703749
 ---------------------------------------------------------------------

 SCF Done:  E(RB2PLYPD3) =  -157.688341363     A.U. after   11 cycles
 E2(B2PLYPD3) =    -0.2489608025D+00 E(B2PLYPD3) =    -0.15793730216584D+03

 The electronic state is 1-A.
 Alpha  occ. eigenvalues --  -10.62762 -10.61015 -10.60151 -10.58073  -0.91870
 Alpha  occ. eigenvalues --   -0.87035  -0.75564  -0.67036  -0.54790  -0.51145
 Alpha  occ. eigenvalues --   -0.48116  -0.46574  -0.42194  -0.41591  -0.39968
 Alpha  occ. eigenvalues --   -0.37524  -0.35629
 Alpha virt. eigenvalues --    0.05647   0.06603   0.07755   0.08948   0.10678
 Alpha virt. eigenvalues --    0.11753   0.12564   0.13273   0.14786   0.15831
 Alpha virt. eigenvalues --    0.16254   0.16889   0.18513   0.19557   0.21559

 Mulliken charges:
               1
     1  C   -0.139637
     2  C   -0.026943
     3  H    0.019196
     4  H    0.024867
     5  H    0.067336
     6  C   -0.092478
     7  H    0.014042
     8  H    0.057575
     9  C   -0.666718
    10  H    0.029866
    11  H    0.082593
    12  H    0.067829
    13  H    0.054153
    14  H    0.508321
 Sum of Mulliken charges =   0.00000

 Dipole moment (field-independent basis, Debye):
    X=             -0.1127    Y=             -0.0650    Z=             -0.1688  Tot=              0.2131
 Quadrupole moment (field-independent basis, Debye-Ang):
   XX=            -29.1751   YY=            -29.3314   ZZ=            -27.4067
   XY=             -0.1882   XZ=             -0.3441   YZ=              0.0728

 Normal termination of Gaussian 09 at Wed Aug 26 12:53:39 2020.
