 Gaussian 09, Revision D.01,
 Gaussian 09:  ES64L-G09RevD.01 24-Apr-2013

 --------------------
 #p B2PLYPD3/Def2QZVP
 --------------------

 ----------
 butane_opt
 ----------
 Symbolic Z-matrix:
 Charge =  0 Multiplicity = 1

                         Standard orientation:
 ---------------------------------------------------------------------
 Center     Atomic      Atomic             Coordinates (Angstroms)
 Number     Number       Type             X           Y           Z
 ---------------------------------------------------------------------
      1          6           0       -2.026598    0.143087   -0.164488
      2          6           0       -0.557514   -0.564338    0.144263
      3          1           0       -2.675951   -0.516899   -0.019305
      4          1           0       -1.999436    1.041493   -1.083977
      5          1           0       -2.076749    0.676738    0.608599
      6          6           0        0.620089    0.476419    0.274704
      7          1           0       -0.263402   -1.067406   -0.674545
      8          1           0       -0.690362   -1.290092    0.950614
      9          6           0        1.960876   -0.155497   -0.227534
     10          1           0        0.880234    1.181253    1.309166
     11          1           0        0.209289    1.044107   -0.291311
     12          1           0        2.544294   -0.697422    0.611658
     13          1           0        2.740829    0.753024   -0.620953
     14          1           0        1.350137   -0.522823   -0.951610
 ---------------------------------------------------------------------

 SCF Done:  E(RB2PLYPD3) =  -157.926465744     A.U. after   11 cycles
 E2(B2PLYPD3) =    -0.2504586628D+00 E(B2PLYPD3) =    -0.15817692440680D+03

 The electronic state is 1-A.
 Alpha  occ. eigenvalues --  -10.61821 -10.61231 -10.60739 -10.59520  -0.92235
 Alpha  occ. eigenvalues --   -0.83987  -0.74013  -0.68571  -0.54884  -0.51512
 Alpha  occ. eigenvalues --   -0.49247  -0.46768  -0.43290  -0.40706  -0.38272
 Alpha  occ. eigenvalues --   -0.36963  -0.35070
 Alpha virt. eigenvalues --    0.05431   0.06597   0.08008   0.08748   0.10954
 Alpha virt. eigenvalues --    0.11175   0.12325   0.13688   0.14727   0.15065
 Alpha virt. eigenvalues --    0.15982   0.16628   0.17733   0.19350   0.20828

 Mulliken charges:
               1
     1  C   -0.219949
     2  C   -0.052103
     3  H    0.064856
     4  H    0.037429
     5  H    0.098085
     6  C   -0.136636
     7  H    0.059642
     8  H    0.024894
     9  C   -0.162336
    10  H    0.002189
    11  H    0.125832
    12  H    0.064834
    13  H    0.021022
    14  H    0.072241
 Sum of Mulliken charges =   0.00000

 Dipole moment (field-independent basis, Debye):
    X=             -0.3997    Y=             -0.0548    Z=              0.1246  Tot=              0.4222
 Quadrupole moment (field-independent basis, Debye-Ang):
   XX=            -29.4822   YY=            -28.9636   ZZ=            -29.2180
   XY=              0.6175   XZ=              0.3214   YZ=             -0.9750

 Normal termination of Gaussian 09 at Wed Aug 26 15:27:03 2020.
