 Gaussian 09, Revision D.01,
 Gaussian 09:  ES64L-G09RevD.01 24-Apr-2013

 --------------------
 #p B2PLYPD3/Def2QZVP
 --------------------

 ----------
 butane_opt
 ----------
 Symbolic Z-matrix:
 Charge =  0 Multiplicity = 1

                         Standard orientation:
 ---------------------------------------------------------------------
 Center     Atomic      Atomic             Coordinates (Angstroms)
 Number     Number       Type             X           Y           Z
 ---------------------------------------------------------------------
      1          6           0        1.908621   -0.119952   -0.168952
      2          6           0        0.544286    0.421312    0.204496
      3          1           0        2.865302    0.782115   -0.312278
      4          1           0        1.740912   -0.680206   -0.909750
      5          1           0        2.538956   -0.616614    0.611592
      6          6           0       -0.587602   -0.528687    0.161622
      7          1           0        0.249975    1.002490   -0.619265
      8          1           0        0.594989    1.341813    1.229574
      9          6           0       -1.924984    0.133921   -0.114701
     10          1           0       -0.601432   -1.092357    0.915537
     11          1           0       -0.136151   -1.114900   -0.684814
     12          1           0       -2.303028    0.401565    0.621116
     13          1           0       -2.638360   -0.444073   -0.173626
     14          1           0       -1.953087    0.980604   -1.172877
 ---------------------------------------------------------------------

 SCF Done:  E(RB2PLYPD3) =  -157.890768213     A.U. after   11 cycles
 E2(B2PLYPD3) =    -0.2494842212D+00 E(B2PLYPD3) =    -0.15814025243418D+03

 The electronic state is 1-A.
 Alpha  occ. eigenvalues --  -10.62142 -10.61038 -10.59742 -10.58381  -0.93955
 Alpha  occ. eigenvalues --   -0.86376  -0.77153  -0.66977  -0.55739  -0.52364
 Alpha  occ. eigenvalues --   -0.49481  -0.46717  -0.42531  -0.41241  -0.40355
 Alpha  occ. eigenvalues --   -0.35519  -0.35301
 Alpha virt. eigenvalues --    0.05394   0.06368   0.07521   0.08617   0.10248
 Alpha virt. eigenvalues --    0.11553   0.12354   0.13808   0.14642   0.15470
 Alpha virt. eigenvalues --    0.15932   0.16569   0.18963   0.19555   0.21555

 Mulliken charges:
               1
     1  C   -0.154594
     2  C   -0.045297
     3  H    0.016457
     4  H    0.085302
     5  H    0.030724
     6  C   -0.025924
     7  H    0.065117
     8  H   -0.022661
     9  C   -0.190039
    10  H    0.058546
    11  H    0.013093
    12  H    0.088497
    13  H    0.054622
    14  H    0.026157
 Sum of Mulliken charges =   0.00000

 Dipole moment (field-independent basis, Debye):
    X=             -0.5261    Y=             -0.6421    Z=              0.0658  Tot=              0.8327
 Quadrupole moment (field-independent basis, Debye-Ang):
   XX=            -27.7081   YY=            -30.0057   ZZ=            -28.7874
   XY=             -0.0168   XZ=             -0.6804   YZ=             -0.5935

 Normal termination of Gaussian 09 at Wed Aug 26 11:01:40 2020.
