 Gaussian 09, Revision D.01,
 Gaussian 09:  ES64L-G09RevD.01 24-Apr-2013

 --------------------
 #p B2PLYPD3/Def2QZVP
 --------------------

 ----------
 butane_opt
 ----------
 Symbolic Z-matrix:
 Charge =  0 Multiplicity = 1

                         Standard orientation:
 ---------------------------------------------------------------------
 Center     Atomic      Atomic             Coordinates (Angstroms)
 Number     Number       Type             X           Y           Z
 ---------------------------------------------------------------------
      1          6           0       -1.955729   -0.177369   -0.164361
      2          6           0       -0.510159    0.635083    0.168025
      3          1           0       -2.636069    0.456476   -0.670011
      4          1           0       -2.667111   -0.974367    0.971566
      5          1           0       -1.634212   -0.481535   -0.795340
      6          6           0        0.555927   -0.429017    0.166909
      7          1           0       -0.171658    1.476853    1.033495
      8          1           0       -0.169316    0.909826   -0.519165
      9          6           0        1.837642    0.073624   -0.167995
     10          1           0        0.276465   -1.041047   -0.741160
     11          1           0        0.694012   -1.188989    1.185114
     12          1           0        2.065140    0.386117   -0.960017
     13          1           0        2.718960   -0.879417   -0.103487
     14          1           0        1.957709    0.722161    0.583538
 ---------------------------------------------------------------------

 SCF Done:  E(RB2PLYPD3) =  -157.678552342     A.U. after   11 cycles
 E2(B2PLYPD3) =    -0.2523172039D+00 E(B2PLYPD3) =    -0.15793086954547D+03

 The electronic state is 1-A.
 Alpha  occ. eigenvalues --  -10.62092 -10.61948 -10.60668 -10.57972  -0.96070
 Alpha  occ. eigenvalues --   -0.86851  -0.78222  -0.67152  -0.57425  -0.51403
 Alpha  occ. eigenvalues --   -0.50219  -0.45641  -0.42818  -0.40703  -0.38247
 Alpha  occ. eigenvalues --   -0.36740  -0.35246
 Alpha virt. eigenvalues --    0.03749   0.05207   0.07670   0.08347   0.09569
 Alpha virt. eigenvalues --    0.10712   0.12324   0.13316   0.14965   0.16091
 Alpha virt. eigenvalues --    0.16218   0.16698   0.18259   0.19135   0.20039

 Mulliken charges:
               1
     1  C   -0.453033
     2  C   -0.349901
     3  H    0.058170
     4  H    0.054335
     5  H    0.361934
     6  C   -0.025464
     7  H    0.027452
     8  H    0.315584
     9  C   -0.180846
    10  H    0.021212
    11  H    0.026528
    12  H    0.077848
    13  H    0.009579
    14  H    0.056601
 Sum of Mulliken charges =   0.00000

 Dipole moment (field-independent basis, Debye):
    X=              0.0902    Y=              0.2933    Z=             -0.7889  Tot=              0.8465
 Quadrupole moment (field-independent basis, Debye-Ang):
   XX=            -30.0532   YY=            -29.9463   ZZ=            -27.6667
   XY=              0.6178   XZ=              0.1539   YZ=             -0.3722

 Normal termination of Gaussian 09 at Wed Aug 26 10:43:17 2020.
