 Gaussian 09, Revision D.01,
 Gaussian 09:  ES64L-G09RevD.01 24-Apr-2013

 --------------------
 #p B2PLYPD3/Def2QZVP
 --------------------

 ----------
 butane_opt
 ----------
 Symbolic Z-matrix:
 Charge =  0 Multiplicity = 1

                         Standard orientation:
 ---------------------------------------------------------------------
 Center     Atomic      Atomic             Coordinates (Angstroms)
 Number     Number       Type             X           Y           Z
 ---------------------------------------------------------------------
      1          6           0       -1.891962    0.041113    0.051016
      2          6           0       -0.566822   -0.421190   -0.125182
      3          1           0       -2.755800   -0.785409   -0.005817
      4          1           0       -1.767937    0.429233   -0.672515
      5          1           0       -2.071834    0.779331    1.144907
      6          6           0        0.452311    0.634837   -0.101517
      7          1           0       -0.581318   -1.026080   -0.847153
      8          1           0       -0.210765   -1.084375    0.716605
      9          6           0        1.948868   -0.153963    0.030381
     10          1           0        0.373445    1.132983    0.809175
     11          1           0        0.472953    1.344096   -0.923241
     12          1           0        1.774247   -1.050431    1.034081
     13          1           0        2.706002    0.430576    0.413322
     14          1           0        2.406640   -0.774707   -0.797554
 ---------------------------------------------------------------------

 SCF Done:  E(RB2PLYPD3) =  -157.916244061     A.U. after   11 cycles
 E2(B2PLYPD3) =    -0.2498576237D+00 E(B2PLYPD3) =    -0.15816610168488D+03

 The electronic state is 1-A.
 Alpha  occ. eigenvalues --  -10.62996 -10.61645 -10.59272 -10.58149  -0.95893
 Alpha  occ. eigenvalues --   -0.83352  -0.73116  -0.68433  -0.56503  -0.51811
 Alpha  occ. eigenvalues --   -0.48843  -0.46885  -0.42831  -0.39375  -0.38202
 Alpha  occ. eigenvalues --   -0.37348  -0.35854
 Alpha virt. eigenvalues --    0.05262   0.06440   0.08183   0.08582   0.10712
 Alpha virt. eigenvalues --    0.11425   0.12205   0.13890   0.14432   0.14925
 Alpha virt. eigenvalues --    0.15635   0.16727   0.18869   0.20145   0.21385

 Mulliken charges:
               1
     1  C   -0.320506
     2  C   -0.017302
     3  H    0.043337
     4  H    0.209692
     5  H    0.018624
     6  C   -0.039511
     7  H    0.051269
     8  H    0.014631
     9  C   -0.175135
    10  H    0.065784
    11  H    0.029877
    12  H   -0.001875
    13  H    0.065866
    14  H    0.055250
 Sum of Mulliken charges =   0.00000

 Dipole moment (field-independent basis, Debye):
    X=              0.1661    Y=              0.1028    Z=             -0.4401  Tot=              0.4815
 Quadrupole moment (field-independent basis, Debye-Ang):
   XX=            -30.2408   YY=            -29.0906   ZZ=            -28.2778
   XY=              1.1740   XZ=              0.0649   YZ=              0.6387

 Normal termination of Gaussian 09 at Wed Aug 26 20:55:05 2020.
