 Gaussian 09, Revision D.01,
 Gaussian 09:  ES64L-G09RevD.01 24-Apr-2013

 --------------------
 #p B2PLYPD3/Def2QZVP
 --------------------

 ----------
 butane_opt
 ----------
 Symbolic Z-matrix:
 Charge =  0 Multiplicity = 1

                         Standard orientation:
 ---------------------------------------------------------------------
 Center     Atomic      Atomic             Coordinates (Angstroms)
 Number     Number       Type             X           Y           Z
 ---------------------------------------------------------------------
      1          6           0        1.890934    0.031530   -0.076975
      2          6           0        0.490553   -0.363778    0.258576
      3          1           0        2.833403   -0.986967   -0.761685
      4          1           0        2.617566    1.072093    0.792272
      5          1           0        1.354627    0.531608   -0.906077
      6          6           0       -0.508738    0.542031    0.013815
      7          1           0        0.509469   -1.060181    1.323591
      8          1           0        0.529791   -1.181992   -0.451092
      9          6           0       -1.890974   -0.170160   -0.104234
     10          1           0       -0.154715    1.038504   -1.050681
     11          1           0       -0.582182    1.331328    0.721774
     12          1           0       -1.936245   -0.937681   -0.899284
     13          1           0       -2.636120    0.544922   -0.116067
     14          1           0       -2.426240   -0.589369    0.800155
 ---------------------------------------------------------------------

 SCF Done:  E(RB2PLYPD3) =  -157.889332840     A.U. after   12 cycles
 E2(B2PLYPD3) =    -0.2576331534D+00 E(B2PLYPD3) =    -0.15814696599354D+03

 The electronic state is 1-A.
 Alpha  occ. eigenvalues --  -10.67319 -10.62700 -10.62416 -10.60913  -0.95831
 Alpha  occ. eigenvalues --   -0.83903  -0.73139  -0.64544  -0.55766  -0.50710
 Alpha  occ. eigenvalues --   -0.49357  -0.45743  -0.42594  -0.39130  -0.37612
 Alpha  occ. eigenvalues --   -0.35532  -0.33512
 Alpha virt. eigenvalues --    0.02279   0.05809   0.06756   0.07041   0.08744
 Alpha virt. eigenvalues --    0.09465   0.12414   0.13088   0.14325   0.14855
 Alpha virt. eigenvalues --    0.15674   0.16247   0.18499   0.19474   0.20287

 Mulliken charges:
               1
     1  C   -0.186404
     2  C   -0.023449
     3  H    0.030162
     4  H    0.008926
     5  H    0.065671
     6  C   -0.029240
     7  H    0.008610
     8  H    0.062241
     9  C   -0.134156
    10  H    0.017813
    11  H    0.054898
    12  H    0.054826
    13  H    0.042430
    14  H    0.027672
 Sum of Mulliken charges =   0.00000

 Dipole moment (field-independent basis, Debye):
    X=             -1.2006    Y=             -0.0063    Z=             -0.2548  Tot=              1.2273
 Quadrupole moment (field-independent basis, Debye-Ang):
   XX=            -31.6809   YY=            -29.6341   ZZ=            -29.8360
   XY=             -0.8907   XZ=             -1.0391   YZ=              1.3726

 Normal termination of Gaussian 09 at Wed Aug 26 15:05:13 2020.
