 Gaussian 09, Revision D.01,
 Gaussian 09:  ES64L-G09RevD.01 24-Apr-2013

 --------------------
 #p B2PLYPD3/Def2QZVP
 --------------------

 ----------
 butane_opt
 ----------
 Symbolic Z-matrix:
 Charge =  0 Multiplicity = 1

                         Standard orientation:
 ---------------------------------------------------------------------
 Center     Atomic      Atomic             Coordinates (Angstroms)
 Number     Number       Type             X           Y           Z
 ---------------------------------------------------------------------
      1          6           0        1.919557    0.067874   -0.241030
      2          6           0        0.569597   -0.441090    0.281937
      3          1           0        2.593556   -0.691274   -0.775517
      4          1           0        2.524393    1.134098    0.810423
      5          1           0        1.730407    0.195877   -0.831103
      6          6           0       -0.576204    0.578814    0.064804
      7          1           0        0.967174   -1.359067    1.496194
      8          1           0        0.485030   -0.794497   -0.326285
      9          6           0       -1.964559   -0.192837   -0.113306
     10          1           0       -0.335762    1.000725   -0.624716
     11          1           0       -0.466713    1.299392    0.819906
     12          1           0       -2.114941   -0.859450   -0.956425
     13          1           0       -2.659704    0.554505   -0.045958
     14          1           0       -2.413786   -0.556874    0.479049
 ---------------------------------------------------------------------

 SCF Done:  E(RB2PLYPD3) =  -157.173216506     A.U. after   12 cycles
 E2(B2PLYPD3) =    -0.2525361064D+00 E(B2PLYPD3) =    -0.15742575261285D+03

 The electronic state is 1-A.
 Alpha  occ. eigenvalues --  -10.61369 -10.60744 -10.59703 -10.57196  -0.98375
 Alpha  occ. eigenvalues --   -0.89184  -0.81707  -0.74320  -0.55429  -0.50933
 Alpha  occ. eigenvalues --   -0.49838  -0.49249  -0.44884  -0.42777  -0.37422
 Alpha  occ. eigenvalues --   -0.36472  -0.33636
 Alpha virt. eigenvalues --    0.02846   0.06003   0.06219   0.07606   0.09236
 Alpha virt. eigenvalues --    0.11354   0.12039   0.13740   0.14755   0.15550
 Alpha virt. eigenvalues --    0.16292   0.16724   0.18756   0.19312   0.20813

 Mulliken charges:
               1
     1  C   -0.797744
     2  C   -0.602517
     3  H    0.069061
     4  H    0.015125
     5  H    0.641539
     6  C   -0.118301
     7  H    0.011213
     8  H    0.591118
     9  C   -0.221695
    10  H    0.174998
    11  H    0.044441
    12  H    0.032791
    13  H    0.025439
    14  H    0.134532
 Sum of Mulliken charges =   0.00000

 Dipole moment (field-independent basis, Debye):
    X=             -0.8275    Y=              0.1143    Z=             -0.9571  Tot=              1.2704
 Quadrupole moment (field-independent basis, Debye-Ang):
   XX=            -29.4320   YY=            -28.9961   ZZ=            -27.8493
   XY=             -0.5000   XZ=             -1.6172   YZ=              1.4464

 Normal termination of Gaussian 09 at Wed Aug 26 22:04:47 2020.
