 Gaussian 09, Revision D.01,
 Gaussian 09:  ES64L-G09RevD.01 24-Apr-2013

 --------------------
 #p B2PLYPD3/Def2QZVP
 --------------------

 ----------
 butane_opt
 ----------
 Symbolic Z-matrix:
 Charge =  0 Multiplicity = 1

                         Standard orientation:
 ---------------------------------------------------------------------
 Center     Atomic      Atomic             Coordinates (Angstroms)
 Number     Number       Type             X           Y           Z
 ---------------------------------------------------------------------
      1          6           0       -1.941939    0.114318   -0.252539
      2          6           0       -0.571123   -0.474231    0.155895
      3          1           0       -2.840435   -0.934943    0.022437
      4          1           0       -1.936820    0.854679   -1.155186
      5          1           0       -2.340989    0.580072    0.494014
      6          6           0        0.515111    0.601272    0.254338
      7          1           0       -0.386521   -1.091816   -0.625064
      8          1           0       -0.743539   -1.348026    1.393605
      9          6           0        1.987413   -0.095918   -0.169833
     10          1           0        0.376767    1.542470    1.357728
     11          1           0        0.545674    0.844711   -0.361230
     12          1           0        2.925031   -0.919777    0.815402
     13          1           0        2.651155    0.356930   -0.838859
     14          1           0        1.812906   -0.756953   -1.030017
 ---------------------------------------------------------------------

 SCF Done:  E(RB2PLYPD3) =  -157.522410235     A.U. after   12 cycles
 E2(B2PLYPD3) =    -0.2579468162D+00 E(B2PLYPD3) =    -0.15778035705147D+03

 The electronic state is 1-A.
 Alpha  occ. eigenvalues --  -10.65242 -10.64872 -10.63555 -10.63111  -0.94952
 Alpha  occ. eigenvalues --   -0.84117  -0.75068  -0.69309  -0.54301  -0.49379
 Alpha  occ. eigenvalues --   -0.48032  -0.45658  -0.40238  -0.39106  -0.37106
 Alpha  occ. eigenvalues --   -0.35790  -0.34976
 Alpha virt. eigenvalues --    0.02929   0.03727   0.05770   0.06372   0.08997
 Alpha virt. eigenvalues --    0.10298   0.11073   0.11472   0.14159   0.14593
 Alpha virt. eigenvalues --    0.15378   0.15832   0.17815   0.18887   0.18929

 Mulliken charges:
               1
     1  C   -0.161559
     2  C   -0.011346
     3  H    0.016138
     4  H    0.051328
     5  H    0.074769
     6  C   -0.795826
     7  H    0.098429
     8  H   -0.010298
     9  C   -0.155516
    10  H    0.059175
    11  H    0.723609
    12  H    0.005252
    13  H    0.061815
    14  H    0.044030
 Sum of Mulliken charges =   0.00000

 Dipole moment (field-independent basis, Debye):
    X=             -0.3284    Y=              0.7863    Z=             -0.9596  Tot=              1.2833
 Quadrupole moment (field-independent basis, Debye-Ang):
   XX=            -32.1303   YY=            -30.2410   ZZ=            -28.4935
   XY=             -0.5553   XZ=             -2.7071   YZ=              0.0323

 Normal termination of Gaussian 09 at Wed Aug 26 11:00:51 2020.
