 Gaussian 09, Revision D.01,
 Gaussian 09:  ES64L-G09RevD.01 24-Apr-2013

 --------------------
 #p B2PLYPD3/Def2QZVP
 --------------------

 ----------
 butane_opt
 ----------
 Symbolic Z-matrix:
 Charge =  0 Multiplicity = 1

                         Standard orientation:
 ---------------------------------------------------------------------
 Center     Atomic      Atomic             Coordinates (Angstroms)
 Number     Number       Type             X           Y           Z
 ---------------------------------------------------------------------
      1          6           0       -1.964060   -0.160769   -0.060534
      2          6           0       -0.502330    0.604488   -0.008637
      3          1           0       -2.690743    0.568411   -0.036300
      4          1           0       -2.282081   -0.799786    0.841237
      5          1           0       -2.211013   -0.698507   -0.877125
      6          6           0        0.571116   -0.493328    0.137995
      7          1           0       -0.492634    1.299220    0.810991
      8          1           0       -0.404611    1.024534   -0.731593
      9          6           0        1.941758    0.084129   -0.083595
     10          1           0        0.450089   -1.135512   -0.676446
     11          1           0        0.554343   -1.172701    1.103566
     12          1           0        1.795157    0.483475   -0.853015
     13          1           0        2.739753   -0.756794   -0.369100
     14          1           0        2.262840    0.980542    0.876413
 ---------------------------------------------------------------------

 SCF Done:  E(RB2PLYPD3) =  -157.954339122     A.U. after   11 cycles
 E2(B2PLYPD3) =    -0.2469621833D+00 E(B2PLYPD3) =    -0.15820130130505D+03

 The electronic state is 1-A.
 Alpha  occ. eigenvalues --  -10.60644 -10.60533 -10.59136 -10.58993  -0.92287
 Alpha  occ. eigenvalues --   -0.83789  -0.75036  -0.68525  -0.55007  -0.49989
 Alpha  occ. eigenvalues --   -0.48407  -0.46728  -0.42670  -0.42401  -0.39636
 Alpha  occ. eigenvalues --   -0.37571  -0.36418
 Alpha virt. eigenvalues --    0.05391   0.06648   0.08373   0.09047   0.10849
 Alpha virt. eigenvalues --    0.11494   0.12676   0.13717   0.14617   0.15266
 Alpha virt. eigenvalues --    0.16052   0.16751   0.19017   0.20176   0.21571

 Mulliken charges:
               1
     1  C   -0.133149
     2  C   -0.186034
     3  H    0.036487
     4  H    0.033387
     5  H    0.042645
     6  C   -0.025719
     7  H    0.039428
     8  H    0.161644
     9  C   -0.246653
    10  H    0.049986
    11  H    0.029992
    12  H    0.139165
    13  H    0.038382
    14  H    0.020438
 Sum of Mulliken charges =   0.00000

 Dipole moment (field-independent basis, Debye):
    X=             -0.3243    Y=              0.1071    Z=             -0.5623  Tot=              0.6579
 Quadrupole moment (field-independent basis, Debye-Ang):
   XX=            -30.4112   YY=            -28.4504   ZZ=            -27.8677
   XY=             -0.5554   XZ=             -0.4356   YZ=              0.3256

 Normal termination of Gaussian 09 at Wed Aug 26 10:06:38 2020.
