 Gaussian 09, Revision D.01,
 Gaussian 09:  ES64L-G09RevD.01 24-Apr-2013

 --------------------
 #p B2PLYPD3/Def2QZVP
 --------------------

 ----------
 butane_opt
 ----------
 Symbolic Z-matrix:
 Charge =  0 Multiplicity = 1

                         Standard orientation:
 ---------------------------------------------------------------------
 Center     Atomic      Atomic             Coordinates (Angstroms)
 Number     Number       Type             X           Y           Z
 ---------------------------------------------------------------------
      1          6           0        2.005795   -0.197986   -0.224220
      2          6           0        0.535146    0.638180    0.188693
      3          1           0        2.655308    0.221349   -0.713418
      4          1           0        1.827837   -0.603777   -0.868969
      5          1           0        2.612408   -1.129880    1.110067
      6          6           0       -0.637140   -0.444806    0.205700
      7          1           0        0.337315    1.063178   -0.707270
      8          1           0        0.880310    1.800973    1.120754
      9          6           0       -1.942149    0.050346   -0.130435
     10          1           0       -0.572582   -0.932404    1.156535
     11          1           0       -0.541084   -1.120889   -0.613360
     12          1           0       -2.178888    0.506848    0.710596
     13          1           0       -2.735260   -0.799065   -0.185829
     14          1           0       -2.055276    0.719261   -1.247533
 ---------------------------------------------------------------------

 SCF Done:  E(RB2PLYPD3) =  -157.715795078     A.U. after   12 cycles
 E2(B2PLYPD3) =    -0.2548781990D+00 E(B2PLYPD3) =    -0.15797067327742D+03

 The electronic state is 1-A.
 Alpha  occ. eigenvalues --  -10.66158 -10.61475 -10.61255 -10.61067  -0.92542
 Alpha  occ. eigenvalues --   -0.87596  -0.75794  -0.66586  -0.55686  -0.49740
 Alpha  occ. eigenvalues --   -0.49336  -0.45095  -0.42501  -0.40561  -0.37272
 Alpha  occ. eigenvalues --   -0.36206  -0.33787
 Alpha virt. eigenvalues --    0.02014   0.04801   0.05439   0.07868   0.08889
 Alpha virt. eigenvalues --    0.10598   0.11106   0.12506   0.13265   0.15028
 Alpha virt. eigenvalues --    0.16200   0.16857   0.17822   0.18708   0.19606

 Mulliken charges:
               1
     1  C   -0.378320
     2  C   -0.145744
     3  H    0.080685
     4  H    0.277481
     5  H   -0.016223
     6  C   -0.032069
     7  H    0.088716
     8  H    0.030227
     9  C   -0.147893
    10  H    0.057233
    11  H    0.049509
    12  H    0.071695
    13  H    0.037045
    14  H    0.027657
 Sum of Mulliken charges =   0.00000

 Dipole moment (field-independent basis, Debye):
    X=             -0.6666    Y=             -0.0119    Z=             -0.9286  Tot=              1.1432
 Quadrupole moment (field-independent basis, Debye-Ang):
   XX=            -31.3929   YY=            -30.3210   ZZ=            -27.6924
   XY=              1.5955   XZ=             -2.0376   YZ=             -0.1113

 Normal termination of Gaussian 09 at Wed Aug 26 19:16:08 2020.
