 Gaussian 09, Revision D.01,
 Gaussian 09:  ES64L-G09RevD.01 24-Apr-2013

 --------------------
 #p B2PLYPD3/Def2QZVP
 --------------------

 ----------
 butane_opt
 ----------
 Symbolic Z-matrix:
 Charge =  0 Multiplicity = 1

                         Standard orientation:
 ---------------------------------------------------------------------
 Center     Atomic      Atomic             Coordinates (Angstroms)
 Number     Number       Type             X           Y           Z
 ---------------------------------------------------------------------
      1          6           0       -2.045727   -0.167864   -0.122043
      2          6           0       -0.540113    0.525659    0.131235
      3          1           0       -2.849307    0.765477   -0.548274
      4          1           0       -2.752269   -1.174188    0.932277
      5          1           0       -1.851633   -0.559740   -0.709891
      6          6           0        0.674123   -0.474497    0.047382
      7          1           0       -0.392131    1.681693    1.253949
      8          1           0       -0.337136    0.998064   -0.585104
      9          6           0        1.929740    0.070133   -0.133314
     10          1           0        0.285992   -0.996962   -0.711535
     11          1           0        0.899562   -1.182063    0.914126
     12          1           0        2.204228    0.824470   -1.044692
     13          1           0        2.770317   -0.772891    0.128407
     14          1           0        1.914238    0.695553    0.831177
 ---------------------------------------------------------------------

 SCF Done:  E(RB2PLYPD3) =  -157.658977705     A.U. after   11 cycles
 E2(B2PLYPD3) =    -0.2559941750D+00 E(B2PLYPD3) =    -0.15791497187967D+03

 The electronic state is 1-A.
 Alpha  occ. eigenvalues --  -10.65052 -10.64920 -10.62748 -10.60940  -0.94480
 Alpha  occ. eigenvalues --   -0.86742  -0.75759  -0.67180  -0.54537  -0.50402
 Alpha  occ. eigenvalues --   -0.49042  -0.47798  -0.41294  -0.38993  -0.38523
 Alpha  occ. eigenvalues --   -0.35967  -0.34074
 Alpha virt. eigenvalues --    0.02198   0.04474   0.06198   0.07780   0.08468
 Alpha virt. eigenvalues --    0.10235   0.11748   0.12217   0.13798   0.14637
 Alpha virt. eigenvalues --    0.15015   0.15757   0.17529   0.19484   0.19830

 Mulliken charges:
               1
     1  C   -0.555737
     2  C   -0.166940
     3  H    0.065678
     4  H    0.031388
     5  H    0.437927
     6  C   -0.014033
     7  H   -0.041379
     8  H    0.193623
     9  C   -0.177970
    10  H    0.040627
    11  H    0.038772
    12  H    0.033789
    13  H    0.047370
    14  H    0.066886
 Sum of Mulliken charges =   0.00000

 Dipole moment (field-independent basis, Debye):
    X=              0.2948    Y=             -0.5246    Z=             -1.0538  Tot=              1.2135
 Quadrupole moment (field-independent basis, Debye-Ang):
   XX=            -30.7092   YY=            -29.9555   ZZ=            -29.5651
   XY=             -0.3846   XZ=              1.5689   YZ=             -1.4561

 Normal termination of Gaussian 09 at Wed Aug 26 20:22:35 2020.
