 Gaussian 09, Revision D.01,
 Gaussian 09:  ES64L-G09RevD.01 24-Apr-2013

 --------------------
 #p B2PLYPD3/Def2QZVP
 --------------------

 ----------
 butane_opt
 ----------
 Symbolic Z-matrix:
 Charge =  0 Multiplicity = 1

                         Standard orientation:
 ---------------------------------------------------------------------
 Center     Atomic      Atomic             Coordinates (Angstroms)
 Number     Number       Type             X           Y           Z
 ---------------------------------------------------------------------
      1          6           0        1.832340    0.077622   -0.191970
      2          6           0        0.572735   -0.381835    0.209825
      3          1           0        2.786711   -0.779171   -0.003766
      4          1           0        2.216950    0.532800    0.439939
      5          1           0        1.757103    0.673039   -1.196160
      6          6           0       -0.541062    0.646050    0.210256
      7          1           0        0.743134   -1.008637    1.237722
      8          1           0        0.640502   -1.433661   -0.733070
      9          6           0       -1.953753   -0.252421   -0.191926
     10          1           0       -0.042761    1.039182   -0.540010
     11          1           0       -0.641479    1.467257    1.213234
     12          1           0       -1.739609   -0.481165   -0.791636
     13          1           0       -2.737341    0.390174   -0.922444
     14          1           0       -2.444771   -0.936314    1.079083
 ---------------------------------------------------------------------

 SCF Done:  E(RB2PLYPD3) =  -157.528929695     A.U. after   12 cycles
 E2(B2PLYPD3) =    -0.2576693681D+00 E(B2PLYPD3) =    -0.15778659906267D+03

 The electronic state is 1-A.
 Alpha  occ. eigenvalues --  -10.64313 -10.63809 -10.63330 -10.59822  -0.94381
 Alpha  occ. eigenvalues --   -0.87253  -0.77618  -0.65030  -0.56367  -0.50077
 Alpha  occ. eigenvalues --   -0.47270  -0.45661  -0.42990  -0.39763  -0.37065
 Alpha  occ. eigenvalues --   -0.35624  -0.32562
 Alpha virt. eigenvalues --    0.03339   0.04340   0.06214   0.07308   0.08836
 Alpha virt. eigenvalues --    0.09794   0.11728   0.12626   0.13188   0.15589
 Alpha virt. eigenvalues --    0.16023   0.16657   0.17594   0.18567   0.20179

 Mulliken charges:
               1
     1  C   -0.198287
     2  C   -0.025756
     3  H    0.018784
     4  H    0.122597
     5  H    0.041047
     6  C   -0.108849
     7  H    0.013948
     8  H    0.001739
     9  C   -0.679676
    10  H    0.095061
    11  H    0.043811
    12  H    0.562610
    13  H    0.033630
    14  H    0.079342
 Sum of Mulliken charges =   0.00000

 Dipole moment (field-independent basis, Debye):
    X=              0.4143    Y=              0.3960    Z=              0.1745  Tot=              0.5991
 Quadrupole moment (field-independent basis, Debye-Ang):
   XX=            -30.7873   YY=            -30.7473   ZZ=            -27.7148
   XY=              0.5418   XZ=              0.6481   YZ=             -0.4795

 Normal termination of Gaussian 09 at Wed Aug 26 14:43:54 2020.
