 Gaussian 09, Revision D.01,
 Gaussian 09:  ES64L-G09RevD.01 24-Apr-2013

 --------------------
 #p B2PLYPD3/Def2QZVP
 --------------------

 ----------
 butane_opt
 ----------
 Symbolic Z-matrix:
 Charge =  0 Multiplicity = 1

                         Standard orientation:
 ---------------------------------------------------------------------
 Center     Atomic      Atomic             Coordinates (Angstroms)
 Number     Number       Type             X           Y           Z
 ---------------------------------------------------------------------
      1          6           0        1.917304   -0.140718    0.075116
      2          6           0        0.493306    0.559664   -0.152332
      3          1           0        2.692890    0.634928    0.352907
      4          1           0        2.309662   -0.671015   -0.710012
      5          1           0        2.054747   -0.830641    0.969391
      6          6           0       -0.580263   -0.490557   -0.157810
      7          1           0        0.395718    1.235376   -0.969058
      8          1           0        0.370256    1.080970    0.742009
      9          6           0       -1.909243    0.106566    0.136658
     10          1           0       -0.194072   -1.165900    0.678991
     11          1           0       -0.537009   -1.136304   -0.991633
     12          1           0       -1.849021    0.689738    0.971113
     13          1           0       -2.744714   -0.662468    0.158795
     14          1           0       -2.025086    0.615582   -0.612296
 ---------------------------------------------------------------------

 SCF Done:  E(RB2PLYPD3) =  -158.069049435     A.U. after   11 cycles
 E2(B2PLYPD3) =    -0.2461137989D+00 E(B2PLYPD3) =    -0.15831516323381D+03

 The electronic state is 1-A.
 Alpha  occ. eigenvalues --  -10.60208 -10.60105 -10.59387 -10.56983  -0.92409
 Alpha  occ. eigenvalues --   -0.83485  -0.73989  -0.67598  -0.55633  -0.49748
 Alpha  occ. eigenvalues --   -0.49387  -0.47356  -0.43684  -0.42213  -0.39531
 Alpha  occ. eigenvalues --   -0.37308  -0.36760
 Alpha virt. eigenvalues --    0.05989   0.06964   0.08412   0.09078   0.11011
 Alpha virt. eigenvalues --    0.12190   0.13071   0.14116   0.15188   0.15483
 Alpha virt. eigenvalues --    0.16344   0.16685   0.19770   0.20021   0.21956

 Mulliken charges:
               1
     1  C   -0.131553
     2  C   -0.060677
     3  H    0.026573
     4  H    0.050522
     5  H    0.029368
     6  C   -0.030141
     7  H    0.036206
     8  H    0.048925
     9  C   -0.184889
    10  H    0.009549
    11  H    0.033905
    12  H    0.051962
    13  H    0.033621
    14  H    0.086629
 Sum of Mulliken charges =   0.00000

 Dipole moment (field-independent basis, Debye):
    X=             -0.0211    Y=              0.1401    Z=             -0.1155  Tot=              0.1828
 Quadrupole moment (field-independent basis, Debye-Ang):
   XX=            -29.4940   YY=            -28.6634   ZZ=            -27.8923
   XY=             -0.3326   XZ=              0.5365   YZ=              0.2549

 Normal termination of Gaussian 09 at Wed Aug 26 19:24:15 2020.
