 Gaussian 09, Revision D.01,
 Gaussian 09:  ES64L-G09RevD.01 24-Apr-2013

 --------------------
 #p B2PLYPD3/Def2QZVP
 --------------------

 ----------
 butane_opt
 ----------
 Symbolic Z-matrix:
 Charge =  0 Multiplicity = 1

                         Standard orientation:
 ---------------------------------------------------------------------
 Center     Atomic      Atomic             Coordinates (Angstroms)
 Number     Number       Type             X           Y           Z
 ---------------------------------------------------------------------
      1          6           0       -2.017455   -0.201614    0.159126
      2          6           0       -0.527686    0.511989   -0.219188
      3          1           0       -2.906910    0.620592    0.386699
      4          1           0       -2.041391   -0.513896    0.890566
      5          1           0       -2.274966   -0.677775   -0.655654
      6          6           0        0.587370   -0.443947   -0.099542
      7          1           0       -0.165844    0.981788    0.588545
      8          1           0       -0.758459    1.280380   -1.244373
      9          6           0        1.936772    0.062549    0.077363
     10          1           0        0.596568   -1.003086   -0.924115
     11          1           0        0.519159   -1.135963    0.809255
     12          1           0        2.092820    0.404681   -0.447859
     13          1           0        2.808848   -0.638086   -0.186944
     14          1           0        2.256170    1.107504    1.277325
 ---------------------------------------------------------------------

 SCF Done:  E(RB2PLYPD3) =  -157.502498085     A.U. after   12 cycles
 E2(B2PLYPD3) =    -0.2509777561D+00 E(B2PLYPD3) =    -0.15775347584124D+03

 The electronic state is 1-A.
 Alpha  occ. eigenvalues --  -10.62315 -10.60685 -10.60433 -10.58031  -0.95411
 Alpha  occ. eigenvalues --   -0.86730  -0.79630  -0.68720  -0.57785  -0.53703
 Alpha  occ. eigenvalues --   -0.49190  -0.47865  -0.41416  -0.41058  -0.38524
 Alpha  occ. eigenvalues --   -0.36059  -0.35224
 Alpha virt. eigenvalues --    0.03513   0.05865   0.07354   0.07527   0.10275
 Alpha virt. eigenvalues --    0.10876   0.12609   0.13377   0.14204   0.14809
 Alpha virt. eigenvalues --    0.15651   0.16710   0.18721   0.19834   0.20971

 Mulliken charges:
               1
     1  C   -0.324350
     2  C   -0.095649
     3  H    0.007315
     4  H    0.221591
     5  H    0.082505
     6  C    0.027153
     7  H    0.068872
     8  H    0.029946
     9  C   -0.674260
    10  H    0.043303
    11  H    0.038849
    12  H    0.509469
    13  H    0.074880
    14  H   -0.009623
 Sum of Mulliken charges =   0.00000

 Dipole moment (field-independent basis, Debye):
    X=              0.0031    Y=             -0.5049    Z=             -0.6566  Tot=              0.8283
 Quadrupole moment (field-independent basis, Debye-Ang):
   XX=            -29.5481   YY=            -29.7243   ZZ=            -27.8673
   XY=             -0.2775   XZ=             -1.7689   YZ=              0.0186

 Normal termination of Gaussian 09 at Wed Aug 26 16:06:14 2020.
