 Gaussian 09, Revision D.01,
 Gaussian 09:  ES64L-G09RevD.01 24-Apr-2013

 --------------------
 #p B2PLYPD3/Def2QZVP
 --------------------

 ----------
 butane_opt
 ----------
 Symbolic Z-matrix:
 Charge =  0 Multiplicity = 1

                         Standard orientation:
 ---------------------------------------------------------------------
 Center     Atomic      Atomic             Coordinates (Angstroms)
 Number     Number       Type             X           Y           Z
 ---------------------------------------------------------------------
      1          6           0        1.914477   -0.044804   -0.199999
      2          6           0        0.612553   -0.156916    0.474240
      3          1           0        2.725854   -1.120729   -0.315275
      4          1           0        2.209044    1.014668    0.277350
      5          1           0        1.517007   -0.134068   -1.067382
      6          6           0       -0.511971    0.561805   -0.109334
      7          1           0        0.508704   -0.139248    1.517579
      8          1           0        0.465846   -1.030735    0.059166
      9          6           0       -1.960991   -0.286001   -0.065007
     10          1           0       -0.189294    0.655141   -1.166610
     11          1           0       -0.849868    1.714790    0.294887
     12          1           0       -1.955968   -1.330912   -0.613978
     13          1           0       -2.650145    0.287320   -0.408465
     14          1           0       -2.105586   -0.360726    0.823329
 ---------------------------------------------------------------------

 SCF Done:  E(RB2PLYPD3) =  -157.926064478     A.U. after   11 cycles
 E2(B2PLYPD3) =    -0.2505754296D+00 E(B2PLYPD3) =    -0.15817663990776D+03

 The electronic state is 1-A.
 Alpha  occ. eigenvalues --  -10.63036 -10.62013 -10.58220 -10.57992  -0.94771
 Alpha  occ. eigenvalues --   -0.84444  -0.74453  -0.65890  -0.57391  -0.51276
 Alpha  occ. eigenvalues --   -0.48834  -0.46780  -0.45155  -0.41080  -0.39069
 Alpha  occ. eigenvalues --   -0.37446  -0.32878
 Alpha virt. eigenvalues --    0.04831   0.06592   0.07860   0.08599   0.10119
 Alpha virt. eigenvalues --    0.11584   0.12358   0.13466   0.14328   0.14940
 Alpha virt. eigenvalues --    0.15976   0.16818   0.18543   0.19572   0.20812

 Mulliken charges:
               1
     1  C   -0.171594
     2  C   -0.096333
     3  H    0.029423
     4  H    0.047933
     5  H    0.082551
     6  C   -0.055872
     7  H    0.035707
     8  H    0.082138
     9  C   -0.173020
    10  H    0.030057
    11  H    0.005685
    12  H    0.027774
    13  H    0.056928
    14  H    0.098623
 Sum of Mulliken charges =   0.00000

 Dipole moment (field-independent basis, Debye):
    X=             -0.4820    Y=             -0.2768    Z=             -0.0122  Tot=              0.5559
 Quadrupole moment (field-independent basis, Debye-Ang):
   XX=            -30.7009   YY=            -28.8855   ZZ=            -28.6335
   XY=             -0.9698   XZ=             -0.3400   YZ=              1.4704

 Normal termination of Gaussian 09 at Wed Aug 26 10:13:24 2020.
