 Gaussian 09, Revision D.01,
 Gaussian 09:  ES64L-G09RevD.01 24-Apr-2013

 --------------------
 #p B2PLYPD3/Def2QZVP
 --------------------

 ----------
 butane_opt
 ----------
 Symbolic Z-matrix:
 Charge =  0 Multiplicity = 1

                         Standard orientation:
 ---------------------------------------------------------------------
 Center     Atomic      Atomic             Coordinates (Angstroms)
 Number     Number       Type             X           Y           Z
 ---------------------------------------------------------------------
      1          6           0        1.973506   -0.179350    0.065742
      2          6           0        0.533390    0.530874   -0.085240
      3          1           0        2.729219    0.340457   -0.526508
      4          1           0        2.236239   -0.213437   -0.421129
      5          1           0        2.435706   -0.964475    1.198383
      6          6           0       -0.619453   -0.442036    0.003257
      7          1           0        0.455797    1.270825   -0.935413
      8          1           0        0.571560    1.272393    0.734424
      9          6           0       -1.979675    0.090209    0.049015
     10          1           0       -0.678324   -0.795440    0.692040
     11          1           0       -0.310643   -1.489550   -1.030193
     12          1           0       -2.164901    1.030402    0.990513
     13          1           0       -2.827551   -0.879794   -0.157227
     14          1           0       -1.893702    0.430440   -0.741532
 ---------------------------------------------------------------------

 SCF Done:  E(RB2PLYPD3) =  -156.974449424     A.U. after   12 cycles
 E2(B2PLYPD3) =    -0.2568668495D+00 E(B2PLYPD3) =    -0.15723131627388D+03

 The electronic state is 1-A.
 Alpha  occ. eigenvalues --  -10.63011 -10.62767 -10.61310 -10.60022  -1.01377
 Alpha  occ. eigenvalues --   -0.93647  -0.78806  -0.70949  -0.53948  -0.51662
 Alpha  occ. eigenvalues --   -0.47465  -0.45108  -0.41793  -0.39866  -0.38040
 Alpha  occ. eigenvalues --   -0.34599  -0.30667
 Alpha virt. eigenvalues --    0.03772   0.05203   0.05352   0.06596   0.09453
 Alpha virt. eigenvalues --    0.11100   0.11734   0.12467   0.13974   0.15072
 Alpha virt. eigenvalues --    0.16334   0.16893   0.17586   0.19737   0.20993

 Mulliken charges:
               1
     1  C   -0.924492
     2  C    0.012337
     3  H    0.045113
     4  H    0.755977
     5  H    0.087662
     6  C   -0.336356
     7  H    0.011664
     8  H    0.034553
     9  C   -0.285612
    10  H    0.336069
    11  H   -0.012743
    12  H    0.048084
    13  H    0.048530
    14  H    0.179217
 Sum of Mulliken charges =   0.00000

 Dipole moment (field-independent basis, Debye):
    X=              0.5459    Y=              0.3862    Z=             -0.3637  Tot=              0.7612
 Quadrupole moment (field-independent basis, Debye-Ang):
   XX=            -28.6113   YY=            -29.9724   ZZ=            -27.8134
   XY=             -0.3985   XZ=             -1.9102   YZ=             -1.0515

 Normal termination of Gaussian 09 at Wed Aug 26 23:25:13 2020.
