 Gaussian 09, Revision D.01,
 Gaussian 09:  ES64L-G09RevD.01 24-Apr-2013

 --------------------
 #p B2PLYPD3/Def2QZVP
 --------------------

 ----------
 butane_opt
 ----------
 Symbolic Z-matrix:
 Charge =  0 Multiplicity = 1

                         Standard orientation:
 ---------------------------------------------------------------------
 Center     Atomic      Atomic             Coordinates (Angstroms)
 Number     Number       Type             X           Y           Z
 ---------------------------------------------------------------------
      1          6           0       -2.038321   -0.150872   -0.132789
      2          6           0       -0.617071    0.548547    0.207278
      3          1           0       -2.783967    0.431493   -0.500857
      4          1           0       -2.371576   -1.012388    0.798279
      5          1           0       -1.769254   -0.519045   -0.977786
      6          6           0        0.624404   -0.459642   -0.007625
      7          1           0       -0.513445    1.313237    1.131254
      8          1           0       -0.073659    1.068737   -0.459981
      9          6           0        1.926657    0.064804   -0.066215
     10          1           0        0.490938   -0.778578   -0.641655
     11          1           0        0.791628   -1.266653    0.940913
     12          1           0        2.389173    0.944910   -1.104998
     13          1           0        2.684265   -0.803224    0.020448
     14          1           0        1.781887    0.604491    0.790485
 ---------------------------------------------------------------------

 SCF Done:  E(RB2PLYPD3) =  -157.745663094     A.U. after   11 cycles
 E2(B2PLYPD3) =    -0.2516574480D+00 E(B2PLYPD3) =    -0.15799732054211D+03

 The electronic state is 1-A.
 Alpha  occ. eigenvalues --  -10.62261 -10.62082 -10.61523 -10.58906  -0.95497
 Alpha  occ. eigenvalues --   -0.84833  -0.74596  -0.70775  -0.53794  -0.51848
 Alpha  occ. eigenvalues --   -0.49616  -0.46806  -0.42428  -0.41406  -0.39414
 Alpha  occ. eigenvalues --   -0.37356  -0.32886
 Alpha virt. eigenvalues --    0.05342   0.05983   0.07063   0.08664   0.10394
 Alpha virt. eigenvalues --    0.11263   0.12491   0.13153   0.14029   0.14770
 Alpha virt. eigenvalues --    0.15849   0.16503   0.17875   0.19908   0.20810

 Mulliken charges:
               1
     1  C   -0.180179
     2  C   -0.102256
     3  H    0.056549
     4  H    0.055642
     5  H    0.081375
     6  C   -0.448963
     7  H    0.022945
     8  H    0.087215
     9  C   -0.157489
    10  H    0.407891
    11  H    0.023969
    12  H   -0.008451
    13  H    0.068925
    14  H    0.092826
 Sum of Mulliken charges =   0.00000

 Dipole moment (field-independent basis, Debye):
    X=             -0.2399    Y=             -0.3398    Z=             -0.2961  Tot=              0.5106
 Quadrupole moment (field-independent basis, Debye-Ang):
   XX=            -29.7903   YY=            -29.6538   ZZ=            -28.5381
   XY=             -0.9317   XZ=              0.8812   YZ=             -0.0601

 Normal termination of Gaussian 09 at Wed Aug 26 23:56:00 2020.
