 Gaussian 09, Revision D.01,
 Gaussian 09:  ES64L-G09RevD.01 24-Apr-2013

 --------------------
 #p B2PLYPD3/Def2QZVP
 --------------------

 ----------
 butane_opt
 ----------
 Symbolic Z-matrix:
 Charge =  0 Multiplicity = 1

                         Standard orientation:
 ---------------------------------------------------------------------
 Center     Atomic      Atomic             Coordinates (Angstroms)
 Number     Number       Type             X           Y           Z
 ---------------------------------------------------------------------
      1          6           0       -1.998804   -0.145174   -0.179088
      2          6           0       -0.626827    0.533351   -0.005670
      3          1           0       -2.546574    0.307407   -0.175273
      4          1           0       -2.283903   -0.460504    0.853728
      5          1           0       -1.920224   -0.770212   -0.879203
      6          6           0        0.534544   -0.460358    0.339817
      7          1           0       -0.777781    1.527667    0.854735
      8          1           0       -0.082660    0.703089   -0.778867
      9          6           0        2.022991    0.056316   -0.175116
     10          1           0        0.249416   -0.933479   -0.328571
     11          1           0        0.616240   -1.018931    1.431347
     12          1           0        1.674388    0.376958   -0.924656
     13          1           0        2.848550   -0.781195   -0.672600
     14          1           0        2.631128    1.144393    0.739707
 ---------------------------------------------------------------------

 SCF Done:  E(RB2PLYPD3) =  -157.616158560     A.U. after   11 cycles
 E2(B2PLYPD3) =    -0.2524820750D+00 E(B2PLYPD3) =    -0.15786864063543D+03

 The electronic state is 1-A.
 Alpha  occ. eigenvalues --  -10.64360 -10.62473 -10.61242 -10.55915  -0.94911
 Alpha  occ. eigenvalues --   -0.87695  -0.77027  -0.67398  -0.58215  -0.53759
 Alpha  occ. eigenvalues --   -0.49928  -0.46365  -0.42809  -0.39361  -0.38380
 Alpha  occ. eigenvalues --   -0.38159  -0.33955
 Alpha virt. eigenvalues --    0.03812   0.05961   0.08063   0.08648   0.09428
 Alpha virt. eigenvalues --    0.10201   0.12705   0.13424   0.14056   0.15657
 Alpha virt. eigenvalues --    0.15999   0.17112   0.18151   0.18944   0.21212

 Mulliken charges:
               1
     1  C   -0.478859
     2  C   -0.059797
     3  H    0.357988
     4  H    0.046910
     5  H    0.060409
     6  C   -0.223697
     7  H   -0.003160
     8  H    0.093465
     9  C   -0.274254
    10  H    0.207717
    11  H    0.034803
    12  H    0.167294
    13  H    0.048538
    14  H    0.022643
 Sum of Mulliken charges =   0.00000

 Dipole moment (field-independent basis, Debye):
    X=             -0.7858    Y=             -0.3376    Z=             -0.7552  Tot=              1.1410
 Quadrupole moment (field-independent basis, Debye-Ang):
   XX=            -29.2201   YY=            -30.3390   ZZ=            -27.8956
   XY=             -0.6340   XZ=             -0.9734   YZ=              1.1575

 Normal termination of Gaussian 09 at Wed Aug 26 21:22:24 2020.
