 Gaussian 09, Revision D.01,
 Gaussian 09:  ES64L-G09RevD.01 24-Apr-2013

 --------------------
 #p B2PLYPD3/Def2QZVP
 --------------------

 ----------
 butane_opt
 ----------
 Symbolic Z-matrix:
 Charge =  0 Multiplicity = 1

                         Standard orientation:
 ---------------------------------------------------------------------
 Center     Atomic      Atomic             Coordinates (Angstroms)
 Number     Number       Type             X           Y           Z
 ---------------------------------------------------------------------
      1          6           0       -2.013690   -0.161136   -0.103705
      2          6           0       -0.532969    0.557217    0.041088
      3          1           0       -2.824454    0.582847   -0.078178
      4          1           0       -2.190320   -0.598173    0.690619
      5          1           0       -1.987004   -0.942308   -0.974409
      6          6           0        0.582928   -0.471904    0.232685
      7          1           0       -0.702047    1.271393    0.918734
      8          1           0       -0.229861    1.057414   -0.833264
      9          6           0        1.971910    0.091796   -0.121897
     10          1           0        0.365357   -1.087446   -0.521447
     11          1           0        0.608854   -1.039730    1.171941
     12          1           0        1.808663    0.541837   -0.910360
     13          1           0        2.717439   -0.699478   -0.451005
     14          1           0        2.384298    0.817802    0.698342
 ---------------------------------------------------------------------

 SCF Done:  E(RB2PLYPD3) =  -158.042955262     A.U. after   11 cycles
 E2(B2PLYPD3) =    -0.2464548428D+00 E(B2PLYPD3) =    -0.15828941010435D+03

 The electronic state is 1-A.
 Alpha  occ. eigenvalues --  -10.61411 -10.59540 -10.59369 -10.59060  -0.91274
 Alpha  occ. eigenvalues --   -0.83160  -0.74453  -0.67423  -0.54825  -0.48774
 Alpha  occ. eigenvalues --   -0.48294  -0.47693  -0.43593  -0.41936  -0.39836
 Alpha  occ. eigenvalues --   -0.38094  -0.36306
 Alpha virt. eigenvalues --    0.05828   0.06908   0.08563   0.08956   0.10926
 Alpha virt. eigenvalues --    0.11984   0.12855   0.13852   0.14842   0.15132
 Alpha virt. eigenvalues --    0.16052   0.16731   0.19461   0.19526   0.21417

 Mulliken charges:
               1
     1  C   -0.171465
     2  C   -0.063349
     3  H    0.039392
     4  H    0.087730
     5  H    0.031374
     6  C   -0.061531
     7  H    0.018636
     8  H    0.054423
     9  C   -0.185985
    10  H    0.058505
    11  H    0.032513
    12  H    0.085758
    13  H    0.035120
    14  H    0.038878
 Sum of Mulliken charges =   0.00000

 Dipole moment (field-independent basis, Debye):
    X=             -0.1034    Y=             -0.0979    Z=             -0.0568  Tot=              0.1533
 Quadrupole moment (field-independent basis, Debye-Ang):
   XX=            -29.6687   YY=            -28.9772   ZZ=            -27.8771
   XY=             -0.3105   XZ=             -1.1792   YZ=              0.4021

 Normal termination of Gaussian 09 at Wed Aug 26 20:07:46 2020.
