 Gaussian 09, Revision D.01,
 Gaussian 09:  ES64L-G09RevD.01 24-Apr-2013

 --------------------
 #p B2PLYPD3/Def2QZVP
 --------------------

 ----------
 butane_opt
 ----------
 Symbolic Z-matrix:
 Charge =  0 Multiplicity = 1

                         Standard orientation:
 ---------------------------------------------------------------------
 Center     Atomic      Atomic             Coordinates (Angstroms)
 Number     Number       Type             X           Y           Z
 ---------------------------------------------------------------------
      1          6           0       -1.991700   -0.138483    0.059822
      2          6           0       -0.607144    0.489098   -0.008909
      3          1           0       -2.820392    0.659419   -0.536240
      4          1           0       -2.182564   -1.372350    1.235381
      5          1           0       -2.003211   -0.055816   -0.451604
      6          6           0        0.588255   -0.531497   -0.084393
      7          1           0       -0.570027    1.131027    0.799643
      8          1           0       -0.370488    1.521106   -0.973450
      9          6           0        2.075491    0.085594    0.099465
     10          1           0        0.397108   -1.379641   -1.197042
     11          1           0        0.235617   -0.825494    0.509029
     12          1           0        1.952599    0.443627   -0.634745
     13          1           0        2.727056   -0.489091   -0.423662
     14          1           0        2.244889    0.938935    1.276782
 ---------------------------------------------------------------------

 SCF Done:  E(RB2PLYPD3) =  -156.643737915     A.U. after   14 cycles
 E2(B2PLYPD3) =    -0.2636409234D+00 E(B2PLYPD3) =    -0.15690737883845D+03

 The electronic state is 1-A.
 Alpha  occ. eigenvalues --  -10.66068 -10.64484 -10.61691 -10.60858  -0.98149
 Alpha  occ. eigenvalues --   -0.91165  -0.82472  -0.68756  -0.52345  -0.49875
 Alpha  occ. eigenvalues --   -0.46164  -0.45126  -0.43413  -0.39607  -0.37200
 Alpha  occ. eigenvalues --   -0.34379  -0.32144
 Alpha virt. eigenvalues --   -0.01269   0.03644   0.04177   0.06097   0.08435
 Alpha virt. eigenvalues --    0.09842   0.11908   0.12317   0.13371   0.14466
 Alpha virt. eigenvalues --    0.15820   0.17012   0.17454   0.18330   0.20660

 Mulliken charges:
               1
     1  C   -1.112706
     2  C   -0.025565
     3  H    0.045551
     4  H    0.088660
     5  H    0.941751
     6  C   -0.447691
     7  H    0.060349
     8  H   -0.038508
     9  C   -0.352327
    10  H    0.015159
    11  H    0.421155
    12  H    0.260213
    13  H    0.066804
    14  H    0.077154
 Sum of Mulliken charges =   0.00000

 Dipole moment (field-independent basis, Debye):
    X=              0.2212    Y=             -0.1678    Z=             -0.1255  Tot=              0.3047
 Quadrupole moment (field-independent basis, Debye-Ang):
   XX=            -30.5797   YY=            -30.2222   ZZ=            -27.4390
   XY=              1.3702   XZ=             -0.1594   YZ=             -0.2421

 Normal termination of Gaussian 09 at Wed Aug 26 23:19:00 2020.
