 Gaussian 09, Revision D.01,
 Gaussian 09:  ES64L-G09RevD.01 24-Apr-2013

 --------------------
 #p B2PLYPD3/Def2QZVP
 --------------------

 ----------
 butane_opt
 ----------
 Symbolic Z-matrix:
 Charge =  0 Multiplicity = 1

                         Standard orientation:
 ---------------------------------------------------------------------
 Center     Atomic      Atomic             Coordinates (Angstroms)
 Number     Number       Type             X           Y           Z
 ---------------------------------------------------------------------
      1          6           0        2.041333   -0.128777   -0.009331
      2          6           0        0.533135    0.612494    0.015416
      3          1           0        2.652256    0.372820   -0.759516
      4          1           0        1.942367   -0.281483   -0.684197
      5          1           0        2.717944   -1.269854    1.325233
      6          6           0       -0.615147   -0.541105   -0.001226
      7          1           0        0.105868    1.350493   -0.932232
      8          1           0        0.454482    1.344739    0.945539
      9          6           0       -1.966300    0.054400    0.128090
     10          1           0       -0.446540   -0.925180    0.674768
     11          1           0       -0.607398   -1.282683   -1.149176
     12          1           0       -2.104620    0.877316    1.091499
     13          1           0       -2.845126   -0.849509   -0.480876
     14          1           0       -1.827361    0.681275   -0.828743
 ---------------------------------------------------------------------

 SCF Done:  E(RB2PLYPD3) =  -157.410461975     A.U. after   13 cycles
 E2(B2PLYPD3) =    -0.2635554289D+00 E(B2PLYPD3) =    -0.15767401740342D+03

 The electronic state is 1-A.
 Alpha  occ. eigenvalues --  -10.66278 -10.65083 -10.62886 -10.60889  -0.94313
 Alpha  occ. eigenvalues --   -0.89568  -0.73185  -0.68202  -0.53051  -0.47463
 Alpha  occ. eigenvalues --   -0.46107  -0.42550  -0.39691  -0.38808  -0.37375
 Alpha  occ. eigenvalues --   -0.35420  -0.33880
 Alpha virt. eigenvalues --   -0.03386   0.03591   0.05916   0.06528   0.09108
 Alpha virt. eigenvalues --    0.10475   0.10710   0.12136   0.13357   0.14888
 Alpha virt. eigenvalues --    0.15562   0.17134   0.17614   0.18118   0.18789

 Mulliken charges:
               1
     1  C   -0.699967
     2  C   -0.071832
     3  H    0.055677
     4  H    0.576284
     5  H    0.066105
     6  C   -0.259343
     7  H    0.024139
     8  H    0.038558
     9  C   -0.162386
    10  H    0.279735
    11  H    0.014718
    12  H    0.062882
    13  H    0.039132
    14  H    0.036298
 Sum of Mulliken charges =   0.00000

 Dipole moment (field-independent basis, Debye):
    X=              0.1481    Y=             -0.1506    Z=             -0.4696  Tot=              0.5149
 Quadrupole moment (field-independent basis, Debye-Ang):
   XX=            -32.7354   YY=            -30.3818   ZZ=            -27.3123
   XY=             -1.3477   XZ=             -0.6123   YZ=             -0.2042

 Normal termination of Gaussian 09 at Wed Aug 26 11:55:41 2020.
