 Gaussian 09, Revision D.01,
 Gaussian 09:  ES64L-G09RevD.01 24-Apr-2013

 --------------------
 #p B2PLYPD3/Def2QZVP
 --------------------

 ----------
 butane_opt
 ----------
 Symbolic Z-matrix:
 Charge =  0 Multiplicity = 1

                         Standard orientation:
 ---------------------------------------------------------------------
 Center     Atomic      Atomic             Coordinates (Angstroms)
 Number     Number       Type             X           Y           Z
 ---------------------------------------------------------------------
      1          6           0        1.981096    0.068254   -0.075695
      2          6           0        0.586891   -0.477078    0.100540
      3          1           0        2.686136   -0.501843   -0.172262
      4          1           0        2.264207    0.578437    0.746257
      5          1           0        1.933200    0.752643   -1.045675
      6          6           0       -0.562592    0.532837    0.085574
      7          1           0        0.540609   -1.221008    1.027556
      8          1           0        0.387990   -1.096063   -0.772331
      9          6           0       -1.991998   -0.126671   -0.083000
     10          1           0       -0.361449    0.963666   -0.625055
     11          1           0       -0.445098    1.541899    1.110843
     12          1           0       -1.823530   -0.665056   -0.869859
     13          1           0       -2.794591    0.572877   -0.427127
     14          1           0       -2.467854   -0.909603    0.863139
 ---------------------------------------------------------------------

 SCF Done:  E(RB2PLYPD3) =  -157.941774022     A.U. after   11 cycles
 E2(B2PLYPD3) =    -0.2482672383D+00 E(B2PLYPD3) =    -0.15819004126068D+03

 The electronic state is 1-A.
 Alpha  occ. eigenvalues --  -10.62032 -10.61992 -10.61811 -10.58147  -0.92403
 Alpha  occ. eigenvalues --   -0.84750  -0.75189  -0.67678  -0.53454  -0.51607
 Alpha  occ. eigenvalues --   -0.48902  -0.47277  -0.42067  -0.41509  -0.40117
 Alpha  occ. eigenvalues --   -0.37776  -0.35365
 Alpha virt. eigenvalues --    0.05408   0.06569   0.07179   0.08612   0.10358
 Alpha virt. eigenvalues --    0.11842   0.12635   0.13400   0.14763   0.15268
 Alpha virt. eigenvalues --    0.15756   0.16724   0.18760   0.19518   0.21455

 Mulliken charges:
               1
     1  C   -0.133656
     2  C   -0.015002
     3  H    0.060221
     4  H    0.046309
     5  H    0.013527
     6  C   -0.186917
     7  H    0.013648
     8  H    0.032396
     9  C   -0.165502
    10  H    0.190511
    11  H   -0.021688
    12  H    0.084839
    13  H    0.046654
    14  H    0.034660
 Sum of Mulliken charges =   0.00000

 Dipole moment (field-independent basis, Debye):
    X=              0.2645    Y=             -0.3453    Z=             -0.7028  Tot=              0.8265
 Quadrupole moment (field-independent basis, Debye-Ang):
   XX=            -28.2875   YY=            -29.9097   ZZ=            -28.5451
   XY=             -0.3356   XZ=              1.0700   YZ=             -0.5999

 Normal termination of Gaussian 09 at Wed Aug 26 21:35:24 2020.
