 Gaussian 09, Revision D.01,
 Gaussian 09:  ES64L-G09RevD.01 24-Apr-2013

 --------------------
 #p B2PLYPD3/Def2QZVP
 --------------------

 ----------
 butane_opt
 ----------
 Symbolic Z-matrix:
 Charge =  0 Multiplicity = 1

                         Standard orientation:
 ---------------------------------------------------------------------
 Center     Atomic      Atomic             Coordinates (Angstroms)
 Number     Number       Type             X           Y           Z
 ---------------------------------------------------------------------
      1          6           0        1.931559    0.025164   -0.222607
      2          6           0        0.697104   -0.355659    0.387472
      3          1           0        2.660255   -1.084116   -0.606855
      4          1           0        2.687893    0.742722    0.459113
      5          1           0        1.382102    0.397266   -1.195588
      6          6           0       -0.583633    0.612424    0.075654
      7          1           0        0.755932   -0.720324    1.425048
      8          1           0        0.571581   -1.016176   -0.330020
      9          6           0       -2.077190   -0.203994   -0.093386
     10          1           0       -0.306983    1.069813   -0.966584
     11          1           0       -0.304810    1.617398    0.804436
     12          1           0       -2.137207   -1.222506   -0.815157
     13          1           0       -2.764149    0.293700   -0.525839
     14          1           0       -2.351653   -0.545390    0.868650
 ---------------------------------------------------------------------

 SCF Done:  E(RB2PLYPD3) =  -157.940116788     A.U. after   11 cycles
 E2(B2PLYPD3) =    -0.2537779285D+00 E(B2PLYPD3) =    -0.15819389471632D+03

 The electronic state is 1-A.
 Alpha  occ. eigenvalues --  -10.65683 -10.64762 -10.62131 -10.59621  -0.91947
 Alpha  occ. eigenvalues --   -0.82503  -0.71636  -0.64151  -0.55578  -0.50903
 Alpha  occ. eigenvalues --   -0.46786  -0.44628  -0.41536  -0.40667  -0.39204
 Alpha  occ. eigenvalues --   -0.37696  -0.32640
 Alpha virt. eigenvalues --    0.04544   0.05726   0.07914   0.08272   0.09779
 Alpha virt. eigenvalues --    0.10484   0.11910   0.13114   0.14467   0.14736
 Alpha virt. eigenvalues --    0.15047   0.17071   0.17531   0.18359   0.20062

 Mulliken charges:
               1
     1  C   -0.160535
     2  C   -0.086760
     3  H    0.019502
     4  H    0.040331
     5  H    0.056096
     6  C   -0.090567
     7  H    0.039695
     8  H    0.111139
     9  C   -0.137266
    10  H    0.014971
    11  H    0.026996
    12  H    0.016865
    13  H    0.082968
    14  H    0.066565
 Sum of Mulliken charges =   0.00000

 Dipole moment (field-independent basis, Debye):
    X=             -0.6387    Y=             -0.2019    Z=             -0.0022  Tot=              0.6698
 Quadrupole moment (field-independent basis, Debye-Ang):
   XX=            -30.1869   YY=            -30.1162   ZZ=            -28.8090
   XY=              0.3352   XZ=              1.4393   YZ=              0.3601

 Normal termination of Gaussian 09 at Wed Aug 26 11:38:09 2020.
