 Gaussian 09, Revision D.01,
 Gaussian 09:  ES64L-G09RevD.01 24-Apr-2013

 --------------------
 #p B2PLYPD3/Def2QZVP
 --------------------

 ----------
 butane_opt
 ----------
 Symbolic Z-matrix:
 Charge =  0 Multiplicity = 1

                         Standard orientation:
 ---------------------------------------------------------------------
 Center     Atomic      Atomic             Coordinates (Angstroms)
 Number     Number       Type             X           Y           Z
 ---------------------------------------------------------------------
      1          6           0        2.003763   -0.134324   -0.065043
      2          6           0        0.511133    0.571185   -0.015740
      3          1           0        2.645147    0.474889   -0.223782
      4          1           0        2.324616   -0.980767   -0.947071
      5          1           0        2.242959   -0.555745    0.893677
      6          6           0       -0.639243   -0.452631    0.158109
      7          1           0        0.382002    0.942053   -0.638681
      8          1           0        0.455591    1.663135    1.056865
      9          6           0       -1.904550    0.068353   -0.088213
     10          1           0       -0.443086   -1.363883    1.239227
     11          1           0       -0.396645   -1.115619   -0.596428
     12          1           0       -2.459494    0.654123    0.626934
     13          1           0       -2.686408   -0.703346   -0.364736
     14          1           0       -1.891296    0.669663   -0.980686
 ---------------------------------------------------------------------

 SCF Done:  E(RB2PLYPD3) =  -157.790373621     A.U. after   11 cycles
 E2(B2PLYPD3) =    -0.2500689998D+00 E(B2PLYPD3) =    -0.15804044262083D+03

 The electronic state is 1-A.
 Alpha  occ. eigenvalues --  -10.62930 -10.62599 -10.60427 -10.59835  -0.93724
 Alpha  occ. eigenvalues --   -0.85018  -0.76880  -0.68881  -0.53593  -0.51701
 Alpha  occ. eigenvalues --   -0.49540  -0.46051  -0.45007  -0.41622  -0.38844
 Alpha  occ. eigenvalues --   -0.36620  -0.33951
 Alpha virt. eigenvalues --    0.04461   0.06097   0.06808   0.07293   0.10285
 Alpha virt. eigenvalues --    0.11949   0.12291   0.13347   0.14882   0.14963
 Alpha virt. eigenvalues --    0.15518   0.16624   0.19066   0.19609   0.20526

 Mulliken charges:
               1
     1  C   -0.159169
     2  C   -0.439228
     3  H    0.103782
     4  H    0.010632
     5  H    0.060869
     6  C   -0.011660
     7  H    0.399714
     8  H   -0.026052
     9  C   -0.111686
    10  H   -0.009747
    11  H    0.071970
    12  H    0.048478
    13  H    0.028123
    14  H    0.033973
 Sum of Mulliken charges =   0.00000

 Dipole moment (field-independent basis, Debye):
    X=             -0.0609    Y=             -0.0304    Z=             -0.8532  Tot=              0.8559
 Quadrupole moment (field-independent basis, Debye-Ang):
   XX=            -27.6928   YY=            -29.9397   ZZ=            -29.0678
   XY=             -0.3371   XZ=              0.0928   YZ=             -0.2663

 Normal termination of Gaussian 09 at Wed Aug 26 22:38:32 2020.
