 Gaussian 09, Revision D.01,
 Gaussian 09:  ES64L-G09RevD.01 24-Apr-2013

 --------------------
 #p B2PLYPD3/Def2QZVP
 --------------------

 ----------
 butane_opt
 ----------
 Symbolic Z-matrix:
 Charge =  0 Multiplicity = 1

                         Standard orientation:
 ---------------------------------------------------------------------
 Center     Atomic      Atomic             Coordinates (Angstroms)
 Number     Number       Type             X           Y           Z
 ---------------------------------------------------------------------
      1          6           0       -1.994016   -0.106969    0.103604
      2          6           0       -0.476940    0.490843   -0.224189
      3          1           0       -2.747486    0.767325    0.008800
      4          1           0       -1.876634   -0.926476    1.164966
      5          1           0       -1.922247   -0.672857   -0.616086
      6          6           0        0.550112   -0.486495   -0.026806
      7          1           0       -0.428485    1.211539    0.481412
      8          1           0       -0.385218    0.997723   -1.239133
      9          6           0        1.868404    0.110207    0.129853
     10          1           0        0.594229   -1.190321   -0.885435
     11          1           0        0.324939   -1.203393    1.113600
     12          1           0        1.674213    0.344969   -0.566685
     13          1           0        2.812922   -0.779462   -0.663899
     14          1           0        2.268406    1.405440    1.307684
 ---------------------------------------------------------------------

 SCF Done:  E(RB2PLYPD3) =  -157.626579316     A.U. after   13 cycles
 E2(B2PLYPD3) =    -0.2609366353D+00 E(B2PLYPD3) =    -0.15788751595131D+03

 The electronic state is 1-A.
 Alpha  occ. eigenvalues --  -10.64470 -10.64396 -10.62347 -10.61134  -0.97686
 Alpha  occ. eigenvalues --   -0.86074  -0.74042  -0.65932  -0.55518  -0.50986
 Alpha  occ. eigenvalues --   -0.47040  -0.46264  -0.41733  -0.40482  -0.36735
 Alpha  occ. eigenvalues --   -0.34154  -0.33484
 Alpha virt. eigenvalues --   -0.02156   0.04127   0.05576   0.06763   0.09204
 Alpha virt. eigenvalues --    0.09865   0.11653   0.12496   0.13364   0.14573
 Alpha virt. eigenvalues --    0.15668   0.16012   0.17769   0.18850   0.20302

 Mulliken charges:
               1
     1  C   -0.232648
     2  C   -0.058395
     3  H    0.067506
     4  H    0.043229
     5  H    0.126196
     6  C   -0.024462
     7  H    0.063334
     8  H    0.023905
     9  C   -0.526307
    10  H    0.065504
    11  H   -0.016057
    12  H    0.427755
    13  H   -0.001579
    14  H    0.042019
 Sum of Mulliken charges =   0.00000

 Dipole moment (field-independent basis, Debye):
    X=             -0.7291    Y=              0.5139    Z=             -0.9838  Tot=              1.3280
 Quadrupole moment (field-independent basis, Debye-Ang):
   XX=            -33.8749   YY=            -29.4864   ZZ=            -28.5452
   XY=             -0.3004   XZ=             -0.5954   YZ=              1.3332

 Normal termination of Gaussian 09 at Wed Aug 26 13:44:00 2020.
