 Gaussian 09, Revision D.01,
 Gaussian 09:  ES64L-G09RevD.01 24-Apr-2013

 --------------------
 #p B2PLYPD3/Def2QZVP
 --------------------

 ----------
 butane_opt
 ----------
 Symbolic Z-matrix:
 Charge =  0 Multiplicity = 1

                         Standard orientation:
 ---------------------------------------------------------------------
 Center     Atomic      Atomic             Coordinates (Angstroms)
 Number     Number       Type             X           Y           Z
 ---------------------------------------------------------------------
      1          6           0        2.016031   -0.209295   -0.190223
      2          6           0        0.599203    0.594373    0.174148
      3          1           0        2.701276    0.473606   -0.358638
      4          1           0        1.747832   -0.919313   -1.010596
      5          1           0        2.588646   -0.819290    0.633772
      6          6           0       -0.589116   -0.442755    0.180859
      7          1           0        0.411679    1.019847   -0.552850
      8          1           0        0.584876    1.525053    1.279485
      9          6           0       -1.969085    0.135300   -0.192102
     10          1           0       -0.708481   -1.247098    1.299791
     11          1           0       -0.571215   -0.889266   -0.571596
     12          1           0       -1.931350    0.732238    0.553188
     13          1           0       -2.975283   -1.069272    0.187259
     14          1           0       -2.190178    0.727758   -1.295906
 ---------------------------------------------------------------------

 SCF Done:  E(RB2PLYPD3) =  -157.779198810     A.U. after   11 cycles
 E2(B2PLYPD3) =    -0.2545794386D+00 E(B2PLYPD3) =    -0.15803377824883D+03

 The electronic state is 1-A.
 Alpha  occ. eigenvalues --  -10.64662 -10.63556 -10.61722 -10.61681  -0.92512
 Alpha  occ. eigenvalues --   -0.83457  -0.73990  -0.68411  -0.54010  -0.50704
 Alpha  occ. eigenvalues --   -0.47354  -0.44426  -0.42269  -0.40513  -0.38796
 Alpha  occ. eigenvalues --   -0.35913  -0.33603
 Alpha virt. eigenvalues --    0.02353   0.05732   0.06629   0.06762   0.09571
 Alpha virt. eigenvalues --    0.10997   0.12118   0.13465   0.14135   0.14345
 Alpha virt. eigenvalues --    0.14956   0.15498   0.17887   0.19249   0.20733

 Mulliken charges:
               1
     1  C   -0.138200
     2  C   -0.232429
     3  H    0.069843
     4  H    0.057949
     5  H    0.034901
     6  C   -0.192058
     7  H    0.213736
     8  H    0.009162
     9  C   -0.226757
    10  H    0.030035
    11  H    0.195684
    12  H    0.122637
    13  H    0.000230
    14  H    0.055268
 Sum of Mulliken charges =   0.00000

 Dipole moment (field-independent basis, Debye):
    X=              0.7327    Y=              0.3099    Z=             -0.6142  Tot=              1.0050
 Quadrupole moment (field-independent basis, Debye-Ang):
   XX=            -31.8381   YY=            -29.6094   ZZ=            -28.6453
   XY=             -0.3251   XZ=              0.2368   YZ=             -0.4773

 Normal termination of Gaussian 09 at Wed Aug 26 23:11:29 2020.
