 Gaussian 09, Revision D.01,
 Gaussian 09:  ES64L-G09RevD.01 24-Apr-2013

 --------------------
 #p B2PLYPD3/Def2QZVP
 --------------------

 ----------
 butane_opt
 ----------
 Symbolic Z-matrix:
 Charge =  0 Multiplicity = 1

                         Standard orientation:
 ---------------------------------------------------------------------
 Center     Atomic      Atomic             Coordinates (Angstroms)
 Number     Number       Type             X           Y           Z
 ---------------------------------------------------------------------
      1          6           0        1.933908    0.058419   -0.151938
      2          6           0        0.577731   -0.308143    0.369785
      3          1           0        2.842129   -1.002822   -0.513269
      4          1           0        2.059440    0.837927    0.498583
      5          1           0        1.347872    0.150045   -1.068563
      6          6           0       -0.549555    0.577436   -0.061100
      7          1           0        0.806444   -0.613180    1.324361
      8          1           0        0.399939   -1.074947   -0.204194
      9          6           0       -1.928900   -0.254497   -0.074074
     10          1           0       -0.227363    0.932888   -0.912559
     11          1           0       -0.559253    1.526894    0.547555
     12          1           0       -2.109009   -1.276612   -0.840249
     13          1           0       -2.635660    0.507483   -0.122465
     14          1           0       -2.123642   -0.426965    0.794765
 ---------------------------------------------------------------------

 SCF Done:  E(RB2PLYPD3) =  -157.903985430     A.U. after   11 cycles
 E2(B2PLYPD3) =    -0.2516676560D+00 E(B2PLYPD3) =    -0.15815565308577D+03

 The electronic state is 1-A.
 Alpha  occ. eigenvalues --  -10.61307 -10.60906 -10.60319 -10.57546  -0.94640
 Alpha  occ. eigenvalues --   -0.85024  -0.74665  -0.67465  -0.58580  -0.49363
 Alpha  occ. eigenvalues --   -0.49143  -0.46752  -0.43498  -0.42018  -0.38665
 Alpha  occ. eigenvalues --   -0.37359  -0.32890
 Alpha virt. eigenvalues --    0.04726   0.06071   0.07669   0.08888   0.09899
 Alpha virt. eigenvalues --    0.11809   0.12407   0.13879   0.14406   0.14759
 Alpha virt. eigenvalues --    0.15633   0.16599   0.19033   0.19616   0.20177

 Mulliken charges:
               1
     1  C   -0.172045
     2  C   -0.101148
     3  H    0.025994
     4  H    0.075498
     5  H    0.025712
     6  C   -0.024833
     7  H    0.030975
     8  H    0.076218
     9  C   -0.185624
    10  H    0.058905
    11  H    0.008088
    12  H    0.051379
    13  H    0.036381
    14  H    0.094500
 Sum of Mulliken charges =   0.00000

 Dipole moment (field-independent basis, Debye):
    X=             -0.7655    Y=              0.0036    Z=              0.2512  Tot=              0.8056
 Quadrupole moment (field-independent basis, Debye-Ang):
   XX=            -31.1811   YY=            -28.5206   ZZ=            -28.7107
   XY=             -0.6741   XZ=              0.2896   YZ=              1.5239

 Normal termination of Gaussian 09 at Wed Aug 26 11:31:55 2020.
