 Gaussian 09, Revision D.01,
 Gaussian 09:  ES64L-G09RevD.01 24-Apr-2013

 --------------------
 #p B2PLYPD3/Def2QZVP
 --------------------

 ----------
 butane_opt
 ----------
 Symbolic Z-matrix:
 Charge =  0 Multiplicity = 1

                         Standard orientation:
 ---------------------------------------------------------------------
 Center     Atomic      Atomic             Coordinates (Angstroms)
 Number     Number       Type             X           Y           Z
 ---------------------------------------------------------------------
      1          6           0       -2.028407   -0.128685   -0.084283
      2          6           0       -0.561723    0.552659    0.068031
      3          1           0       -2.624134    0.349855   -0.858408
      4          1           0       -2.577774   -0.986063    1.163478
      5          1           0       -1.954901   -0.741146   -0.762633
      6          6           0        0.695707   -0.408985    0.142123
      7          1           0       -0.434272    1.715830    1.172109
      8          1           0       -0.506063    0.787955   -0.564026
      9          6           0        1.981631    0.097276   -0.106237
     10          1           0        0.399513   -1.166294   -0.741230
     11          1           0        0.600146   -0.960096    1.190906
     12          1           0        1.664445    0.581475   -1.149648
     13          1           0        2.758504   -0.755104   -0.133305
     14          1           0        2.151287    0.499991    0.564954
 ---------------------------------------------------------------------

 SCF Done:  E(RB2PLYPD3) =  -157.494738199     A.U. after   12 cycles
 E2(B2PLYPD3) =    -0.2548121886D+00 E(B2PLYPD3) =    -0.15774955038804D+03

 The electronic state is 1-A.
 Alpha  occ. eigenvalues --  -10.63774 -10.63076 -10.62909 -10.58627  -0.95322
 Alpha  occ. eigenvalues --   -0.88739  -0.78039  -0.68243  -0.57389  -0.50713
 Alpha  occ. eigenvalues --   -0.49402  -0.46710  -0.41596  -0.41057  -0.37479
 Alpha  occ. eigenvalues --   -0.36551  -0.33414
 Alpha virt. eigenvalues --    0.02213   0.04861   0.05577   0.07898   0.09433
 Alpha virt. eigenvalues --    0.10264   0.11357   0.12267   0.14117   0.15003
 Alpha virt. eigenvalues --    0.15334   0.16621   0.17306   0.19076   0.20376

 Mulliken charges:
               1
     1  C   -0.188309
     2  C   -0.661064
     3  H    0.047300
     4  H    0.031837
     5  H    0.127856
     6  C   -0.001937
     7  H   -0.023234
     8  H    0.606431
     9  C   -0.304889
    10  H    0.018676
    11  H    0.021695
    12  H    0.057280
    13  H    0.054631
    14  H    0.213725
 Sum of Mulliken charges =   0.00000

 Dipole moment (field-independent basis, Debye):
    X=              0.4201    Y=             -0.5207    Z=             -1.0343  Tot=              1.2318
 Quadrupole moment (field-independent basis, Debye-Ang):
   XX=            -30.4408   YY=            -31.1115   ZZ=            -27.6310
   XY=              0.2829   XZ=              2.9172   YZ=             -0.5557

 Normal termination of Gaussian 09 at Wed Aug 26 10:46:29 2020.
