 Gaussian 09, Revision D.01,
 Gaussian 09:  ES64L-G09RevD.01 24-Apr-2013

 --------------------
 #p B2PLYPD3/Def2QZVP
 --------------------

 ----------
 butane_opt
 ----------
 Symbolic Z-matrix:
 Charge =  0 Multiplicity = 1

                         Standard orientation:
 ---------------------------------------------------------------------
 Center     Atomic      Atomic             Coordinates (Angstroms)
 Number     Number       Type             X           Y           Z
 ---------------------------------------------------------------------
      1          6           0       -1.944140    0.074240   -0.146704
      2          6           0       -0.486404   -0.534131    0.291557
      3          1           0       -2.643784   -0.550781   -0.744134
      4          1           0       -1.684415    0.596227   -1.064460
      5          1           0       -2.541887    0.939279    0.799114
      6          6           0        0.556388    0.480518    0.080456
      7          1           0       -0.339981   -0.849207   -0.289547
      8          1           0       -0.642024   -1.115221    1.256240
      9          6           0        1.888684   -0.115974   -0.184974
     10          1           0        0.733303    1.422149    0.866057
     11          1           0        0.258790    0.983095   -0.760370
     12          1           0        2.122424   -0.505167    0.787336
     13          1           0        2.643295    0.663693    0.045721
     14          1           0        2.007115   -1.011988   -1.137964
 ---------------------------------------------------------------------

 SCF Done:  E(RB2PLYPD3) =  -157.717520800     A.U. after   11 cycles
 E2(B2PLYPD3) =    -0.2518614481D+00 E(B2PLYPD3) =    -0.15796938224840D+03

 The electronic state is 1-A.
 Alpha  occ. eigenvalues --  -10.63287 -10.61865 -10.61052 -10.58206  -0.96125
 Alpha  occ. eigenvalues --   -0.83780  -0.73800  -0.68119  -0.56662  -0.49346
 Alpha  occ. eigenvalues --   -0.48222  -0.47464  -0.41180  -0.39500  -0.37886
 Alpha  occ. eigenvalues --   -0.37476  -0.36320
 Alpha virt. eigenvalues --    0.05016   0.05970   0.07451   0.08536   0.10677
 Alpha virt. eigenvalues --    0.11097   0.11918   0.12944   0.13761   0.15213
 Alpha virt. eigenvalues --    0.16048   0.16378   0.18729   0.19281   0.21121

 Mulliken charges:
               1
     1  C   -0.158215
     2  C   -0.708199
     3  H    0.052623
     4  H    0.041971
     5  H    0.031655
     6  C    0.019197
     7  H    0.621989
     8  H    0.082226
     9  C   -0.178396
    10  H    0.000498
    11  H    0.051357
    12  H    0.050170
    13  H    0.045287
    14  H    0.047836
 Sum of Mulliken charges =   0.00000

 Dipole moment (field-independent basis, Debye):
    X=              0.3407    Y=             -0.1990    Z=             -0.2618  Tot=              0.4735
 Quadrupole moment (field-independent basis, Debye-Ang):
   XX=            -30.8782   YY=            -29.4922   ZZ=            -27.7635
   XY=              0.6817   XZ=              1.3675   YZ=              0.8653

 Normal termination of Gaussian 09 at Wed Aug 26 22:40:31 2020.
