 Gaussian 09, Revision D.01,
 Gaussian 09:  ES64L-G09RevD.01 24-Apr-2013

 --------------------
 #p B2PLYPD3/Def2QZVP
 --------------------

 ----------
 butane_opt
 ----------
 Symbolic Z-matrix:
 Charge =  0 Multiplicity = 1

                         Standard orientation:
 ---------------------------------------------------------------------
 Center     Atomic      Atomic             Coordinates (Angstroms)
 Number     Number       Type             X           Y           Z
 ---------------------------------------------------------------------
      1          6           0        1.952335   -0.151319   -0.122165
      2          6           0        0.540308    0.493675    0.168374
      3          1           0        2.721978    0.590674   -0.453459
      4          1           0        1.733481   -0.660738   -0.876337
      5          1           0        2.419345   -0.845951    0.850536
      6          6           0       -0.611170   -0.452685    0.100908
      7          1           0        0.338547    1.174494   -0.667301
      8          1           0        0.416869    1.344997    1.126665
      9          6           0       -1.900878    0.077600   -0.108366
     10          1           0       -0.701193   -1.061570    0.995069
     11          1           0       -0.299657   -1.134476   -0.766907
     12          1           0       -1.920724    0.652489    0.691565
     13          1           0       -2.620980   -0.709535   -0.054387
     14          1           0       -1.971241    0.845993   -1.077948
 ---------------------------------------------------------------------

 SCF Done:  E(RB2PLYPD3) =  -158.024451152     A.U. after   11 cycles
 E2(B2PLYPD3) =    -0.2487659336D+00 E(B2PLYPD3) =    -0.15827321708569D+03

 The electronic state is 1-A.
 Alpha  occ. eigenvalues --  -10.62710 -10.61247 -10.60146 -10.59232  -0.93562
 Alpha  occ. eigenvalues --   -0.84772  -0.73011  -0.65138  -0.54537  -0.51797
 Alpha  occ. eigenvalues --   -0.49549  -0.47192  -0.42313  -0.40780  -0.39258
 Alpha  occ. eigenvalues --   -0.37286  -0.35848
 Alpha virt. eigenvalues --    0.05689   0.06753   0.07635   0.08139   0.10885
 Alpha virt. eigenvalues --    0.11440   0.12780   0.13321   0.14770   0.15073
 Alpha virt. eigenvalues --    0.15838   0.16244   0.18851   0.20156   0.21114

 Mulliken charges:
               1
     1  C   -0.183059
     2  C   -0.049937
     3  H    0.047504
     4  H    0.105480
     5  H    0.030147
     6  C   -0.004677
     7  H    0.036281
     8  H   -0.007712
     9  C   -0.159696
    10  H    0.031585
    11  H    0.005169
    12  H    0.071676
    13  H    0.060378
    14  H    0.016860
 Sum of Mulliken charges =   0.00000

 Dipole moment (field-independent basis, Debye):
    X=             -0.1049    Y=             -0.1346    Z=             -0.1649  Tot=              0.2373
 Quadrupole moment (field-independent basis, Debye-Ang):
   XX=            -29.8411   YY=            -29.4217   ZZ=            -28.6211
   XY=              0.7611   XZ=             -1.0611   YZ=             -0.4966

 Normal termination of Gaussian 09 at Wed Aug 26 11:54:39 2020.
