 Gaussian 09, Revision D.01,
 Gaussian 09:  ES64L-G09RevD.01 24-Apr-2013

 --------------------
 #p B2PLYPD3/Def2QZVP
 --------------------

 ----------
 butane_opt
 ----------
 Symbolic Z-matrix:
 Charge =  0 Multiplicity = 1

                         Standard orientation:
 ---------------------------------------------------------------------
 Center     Atomic      Atomic             Coordinates (Angstroms)
 Number     Number       Type             X           Y           Z
 ---------------------------------------------------------------------
      1          6           0        1.925188   -0.154757   -0.057618
      2          6           0        0.519522    0.533099   -0.006627
      3          1           0        2.767455    0.577725   -0.003114
      4          1           0        2.131614   -0.909868   -0.944166
      5          1           0        2.148704   -0.660368    0.826406
      6          6           0       -0.556913   -0.409405    0.152789
      7          1           0        0.406668    1.076443   -0.809442
      8          1           0        0.468748    1.209231    0.798580
      9          6           0       -1.931125    0.070798   -0.079076
     10          1           0       -0.408146   -1.055166    1.163509
     11          1           0       -0.452147   -1.055138   -0.613212
     12          1           0       -2.325663    0.900054    0.840747
     13          1           0       -2.786077   -0.890744   -0.372628
     14          1           0       -1.691193    0.569424   -0.943490
 ---------------------------------------------------------------------

 SCF Done:  E(RB2PLYPD3) =  -158.030530485     A.U. after   11 cycles
 E2(B2PLYPD3) =    -0.2484001083D+00 E(B2PLYPD3) =    -0.15827893059353D+03

 The electronic state is 1-A.
 Alpha  occ. eigenvalues --  -10.63280 -10.60831 -10.59709 -10.58881  -0.93960
 Alpha  occ. eigenvalues --   -0.83306  -0.73162  -0.66742  -0.55848  -0.49443
 Alpha  occ. eigenvalues --   -0.48174  -0.47117  -0.41977  -0.41345  -0.39072
 Alpha  occ. eigenvalues --   -0.37774  -0.36731
 Alpha virt. eigenvalues --    0.05132   0.06436   0.08288   0.08474   0.10582
 Alpha virt. eigenvalues --    0.11137   0.12783   0.13677   0.14397   0.15036
 Alpha virt. eigenvalues --    0.15594   0.16198   0.19473   0.20086   0.21262

 Mulliken charges:
               1
     1  C   -0.132588
     2  C   -0.043392
     3  H    0.031809
     4  H    0.031071
     5  H    0.046517
     6  C   -0.029653
     7  H    0.044246
     8  H    0.028576
     9  C   -0.178719
    10  H    0.007341
    11  H    0.057480
    12  H    0.024176
    13  H    0.040206
    14  H    0.072932
 Sum of Mulliken charges =   0.00000

 Dipole moment (field-independent basis, Debye):
    X=              0.3521    Y=              0.0955    Z=             -0.2329  Tot=              0.4328
 Quadrupole moment (field-independent basis, Debye-Ang):
   XX=            -30.6464   YY=            -29.1407   ZZ=            -28.4087
   XY=              0.4388   XZ=              0.6376   YZ=              0.5740

 Normal termination of Gaussian 09 at Wed Aug 26 23:23:58 2020.
