 Gaussian 09, Revision D.01,
 Gaussian 09:  ES64L-G09RevD.01 24-Apr-2013

 --------------------
 #p B2PLYPD3/Def2QZVP
 --------------------

 ----------
 butane_opt
 ----------
 Symbolic Z-matrix:
 Charge =  0 Multiplicity = 1

                         Standard orientation:
 ---------------------------------------------------------------------
 Center     Atomic      Atomic             Coordinates (Angstroms)
 Number     Number       Type             X           Y           Z
 ---------------------------------------------------------------------
      1          6           0       -1.971544   -0.111340   -0.002328
      2          6           0       -0.609336    0.540798   -0.035029
      3          1           0       -2.857663    0.577430   -0.034142
      4          1           0       -2.109348   -0.585375    0.763368
      5          1           0       -2.055067   -0.982315   -1.054497
      6          6           0        0.538096   -0.609660    0.112347
      7          1           0       -0.428450    1.348947    0.837912
      8          1           0       -0.474446    1.153998   -0.953775
      9          6           0        2.014939    0.095381   -0.067040
     10          1           0        0.759531   -0.770557   -0.533090
     11          1           0        0.427325   -1.338547    1.138438
     12          1           0        2.027054    0.442535   -0.759811
     13          1           0        2.659676   -0.482324   -0.481984
     14          1           0        2.218456    1.145139    1.029881
 ---------------------------------------------------------------------

 SCF Done:  E(RB2PLYPD3) =  -157.551721605     A.U. after   11 cycles
 E2(B2PLYPD3) =    -0.2522262619D+00 E(B2PLYPD3) =    -0.15780394786657D+03

 The electronic state is 1-A.
 Alpha  occ. eigenvalues --  -10.63015 -10.60997 -10.60469 -10.60016  -0.95061
 Alpha  occ. eigenvalues --   -0.86675  -0.78529  -0.69189  -0.54831  -0.49326
 Alpha  occ. eigenvalues --   -0.49185  -0.46731  -0.43193  -0.41783  -0.38243
 Alpha  occ. eigenvalues --   -0.36264  -0.33339
 Alpha virt. eigenvalues --    0.04247   0.05743   0.07763   0.07910   0.09875
 Alpha virt. eigenvalues --    0.10676   0.11420   0.12748   0.14357   0.15151
 Alpha virt. eigenvalues --    0.15618   0.17154   0.18582   0.18985   0.20452

 Mulliken charges:
               1
     1  C   -0.165929
     2  C   -0.000045
     3  H    0.042779
     4  H    0.091503
     5  H    0.007076
     6  C   -0.661235
     7  H    0.022892
     8  H    0.033259
     9  C   -0.373304
    10  H    0.576438
    11  H    0.075503
    12  H    0.283990
    13  H    0.051055
    14  H    0.016017
 Sum of Mulliken charges =   0.00000

 Dipole moment (field-independent basis, Debye):
    X=             -0.0890    Y=             -0.1089    Z=             -0.4920  Tot=              0.5117
 Quadrupole moment (field-independent basis, Debye-Ang):
   XX=            -30.4392   YY=            -29.5296   ZZ=            -27.6116
   XY=             -1.1858   XZ=             -3.1646   YZ=             -0.2729

 Normal termination of Gaussian 09 at Wed Aug 26 23:23:38 2020.
