 Gaussian 09, Revision D.01,
 Gaussian 09:  ES64L-G09RevD.01 24-Apr-2013

 --------------------
 #p B2PLYPD3/Def2QZVP
 --------------------

 ----------
 butane_opt
 ----------
 Symbolic Z-matrix:
 Charge =  0 Multiplicity = 1

                         Standard orientation:
 ---------------------------------------------------------------------
 Center     Atomic      Atomic             Coordinates (Angstroms)
 Number     Number       Type             X           Y           Z
 ---------------------------------------------------------------------
      1          6           0       -1.973536    0.057865   -0.135118
      2          6           0       -0.574247   -0.446839    0.055100
      3          1           0       -2.739629   -0.794078    0.235118
      4          1           0       -2.207914    0.922474   -1.036341
      5          1           0       -1.976295    0.352282    0.426628
      6          6           0        0.567729    0.619196    0.235066
      7          1           0       -0.259815   -1.014888   -0.703385
      8          1           0       -0.614018   -1.316204    1.243532
      9          6           0        1.978876   -0.107918   -0.169357
     10          1           0        0.587458    1.477596    1.277395
     11          1           0        0.082242    1.036845   -0.572210
     12          1           0        2.715093   -0.967923    0.814228
     13          1           0        2.602878    0.329936   -0.545253
     14          1           0        1.817068   -0.759862   -1.053855
 ---------------------------------------------------------------------

 SCF Done:  E(RB2PLYPD3) =  -157.479399567     A.U. after   11 cycles
 E2(B2PLYPD3) =    -0.2544987767D+00 E(B2PLYPD3) =    -0.15773389834371D+03

 The electronic state is 1-A.
 Alpha  occ. eigenvalues --  -10.65024 -10.64144 -10.62629 -10.59332  -0.94757
 Alpha  occ. eigenvalues --   -0.86441  -0.78003  -0.66946  -0.52702  -0.50786
 Alpha  occ. eigenvalues --   -0.49106  -0.45346  -0.43000  -0.40716  -0.39295
 Alpha  occ. eigenvalues --   -0.37940  -0.32765
 Alpha virt. eigenvalues --    0.04349   0.05124   0.06296   0.07267   0.09416
 Alpha virt. eigenvalues --    0.10983   0.12060   0.13370   0.14509   0.14965
 Alpha virt. eigenvalues --    0.15144   0.15901   0.18109   0.19163   0.20188

 Mulliken charges:
               1
     1  C   -0.821431
     2  C    0.002648
     3  H    0.090829
     4  H    0.065460
     5  H    0.630733
     6  C   -0.103547
     7  H    0.088007
     8  H   -0.045281
     9  C   -0.227429
    10  H    0.039594
    11  H    0.084210
    12  H    0.013063
    13  H    0.153478
    14  H    0.029665
 Sum of Mulliken charges =   0.00000

 Dipole moment (field-independent basis, Debye):
    X=             -0.1205    Y=              0.6565    Z=             -0.6789  Tot=              0.9521
 Quadrupole moment (field-independent basis, Debye-Ang):
   XX=            -29.5046   YY=            -30.1225   ZZ=            -28.7031
   XY=             -0.3282   XZ=             -1.4706   YZ=              0.3619

 Normal termination of Gaussian 09 at Wed Aug 26 12:38:54 2020.
