 Gaussian 09, Revision D.01,
 Gaussian 09:  ES64L-G09RevD.01 24-Apr-2013

 --------------------
 #p B2PLYPD3/Def2QZVP
 --------------------

 ----------
 butane_opt
 ----------
 Symbolic Z-matrix:
 Charge =  0 Multiplicity = 1

                         Standard orientation:
 ---------------------------------------------------------------------
 Center     Atomic      Atomic             Coordinates (Angstroms)
 Number     Number       Type             X           Y           Z
 ---------------------------------------------------------------------
      1          6           0        2.037654    0.102540    0.006963
      2          6           0        0.558721   -0.640282   -0.082017
      3          1           0        2.647207   -0.557422   -0.287596
      4          1           0        2.484122    1.631867    1.420104
      5          1           0        2.012455    0.196934   -0.492311
      6          6           0       -0.639624    0.531385   -0.174660
      7          1           0        0.198108   -1.104160    0.955084
      8          1           0        0.478574   -1.248381   -0.782897
      9          6           0       -1.924722   -0.055932    0.147056
     10          1           0       -0.764041    1.203856   -1.174251
     11          1           0       -0.433563    1.078527    0.546037
     12          1           0       -1.917198   -0.462374   -0.489574
     13          1           0       -2.622773    0.580379   -0.358640
     14          1           0       -2.275062   -0.945491    1.279994
 ---------------------------------------------------------------------

 SCF Done:  E(RB2PLYPD3) =  -156.714849742     A.U. after   13 cycles
 E2(B2PLYPD3) =    -0.2609104121D+00 E(B2PLYPD3) =    -0.15697576015367D+03

 The electronic state is 1-A.
 Alpha  occ. eigenvalues --  -10.65219 -10.62741 -10.60510 -10.58310  -0.96980
 Alpha  occ. eigenvalues --   -0.93367  -0.78659  -0.70583  -0.53290  -0.50513
 Alpha  occ. eigenvalues --   -0.48960  -0.48063  -0.41970  -0.39381  -0.38765
 Alpha  occ. eigenvalues --   -0.35144  -0.33840
 Alpha virt. eigenvalues --   -0.05707   0.04843   0.06085   0.07162   0.09885
 Alpha virt. eigenvalues --    0.10256   0.12379   0.12776   0.13976   0.15738
 Alpha virt. eigenvalues --    0.16043   0.16852   0.18157   0.18474   0.19303

 Mulliken charges:
               1
     1  C   -0.953058
     2  C   -0.065379
     3  H    0.051642
     4  H    0.020320
     5  H    0.811484
     6  C   -0.071718
     7  H    0.039101
     8  H    0.090379
     9  C   -0.512883
    10  H    0.014575
    11  H    0.103813
    12  H    0.378474
    13  H    0.044699
    14  H    0.048552
 Sum of Mulliken charges =   0.00000

 Dipole moment (field-independent basis, Debye):
    X=             -0.1785    Y=             -0.4480    Z=             -1.1719  Tot=              1.2672
 Quadrupole moment (field-independent basis, Debye-Ang):
   XX=            -30.8459   YY=            -28.6437   ZZ=            -27.3995
   XY=             -0.4063   XZ=             -0.5811   YZ=              0.5938

 Normal termination of Gaussian 09 at Wed Aug 26 20:52:04 2020.
