 Gaussian 09, Revision D.01,
 Gaussian 09:  ES64L-G09RevD.01 24-Apr-2013

 --------------------
 #p B2PLYPD3/Def2QZVP
 --------------------

 ----------
 butane_opt
 ----------
 Symbolic Z-matrix:
 Charge =  0 Multiplicity = 1

                         Standard orientation:
 ---------------------------------------------------------------------
 Center     Atomic      Atomic             Coordinates (Angstroms)
 Number     Number       Type             X           Y           Z
 ---------------------------------------------------------------------
      1          6           0       -1.998965   -0.006990   -0.171754
      2          6           0       -0.612721   -0.342202    0.402318
      3          1           0       -2.886855   -0.989610   -0.435871
      4          1           0       -1.737368    0.490423   -1.098178
      5          1           0       -2.328027    0.902824    0.508295
      6          6           0        0.593204    0.598778   -0.001617
      7          1           0       -0.568001   -1.193978   -0.333324
      8          1           0       -0.449800   -0.702924    1.439494
      9          6           0        2.062466   -0.174140   -0.129285
     10          1           0        0.569477    1.549436    0.696153
     11          1           0        0.053123    0.905415   -1.032283
     12          1           0        2.239793   -0.363980    0.680423
     13          1           0        2.572953    0.179569   -0.143540
     14          1           0        2.270799   -1.229846   -0.879139
 ---------------------------------------------------------------------

 SCF Done:  E(RB2PLYPD3) =  -157.532137393     A.U. after   11 cycles
 E2(B2PLYPD3) =    -0.2526752579D+00 E(B2PLYPD3) =    -0.15778481265051D+03

 The electronic state is 1-A.
 Alpha  occ. eigenvalues --  -10.64712 -10.63860 -10.61441 -10.57383  -0.93346
 Alpha  occ. eigenvalues --   -0.88095  -0.74834  -0.64889  -0.53114  -0.52162
 Alpha  occ. eigenvalues --   -0.47178  -0.46766  -0.43337  -0.41158  -0.39321
 Alpha  occ. eigenvalues --   -0.36668  -0.33819
 Alpha virt. eigenvalues --    0.04795   0.06090   0.07903   0.08724   0.09908
 Alpha virt. eigenvalues --    0.11261   0.11922   0.13902   0.14781   0.15270
 Alpha virt. eigenvalues --    0.15596   0.16515   0.19042   0.19403   0.20383

 Mulliken charges:
               1
     1  C   -0.170103
     2  C   -0.046113
     3  H    0.053430
     4  H    0.062800
     5  H    0.028423
     6  C   -0.025108
     7  H    0.038492
     8  H    0.038219
     9  C   -0.652692
    10  H    0.030185
    11  H    0.017636
    12  H    0.080872
    13  H    0.487319
    14  H    0.056639
 Sum of Mulliken charges =   0.00000

 Dipole moment (field-independent basis, Debye):
    X=              0.4761    Y=             -0.0239    Z=              0.2286  Tot=              0.5286
 Quadrupole moment (field-independent basis, Debye-Ang):
   XX=            -28.6872   YY=            -29.2304   ZZ=            -28.6072
   XY=              0.4791   XZ=              1.6067   YZ=              1.1837

 Normal termination of Gaussian 09 at Wed Aug 26 19:22:37 2020.
