 Gaussian 09, Revision D.01,
 Gaussian 09:  ES64L-G09RevD.01 24-Apr-2013

 --------------------
 #p B2PLYPD3/Def2QZVP
 --------------------

 ----------
 butane_opt
 ----------
 Symbolic Z-matrix:
 Charge =  0 Multiplicity = 1

                         Standard orientation:
 ---------------------------------------------------------------------
 Center     Atomic      Atomic             Coordinates (Angstroms)
 Number     Number       Type             X           Y           Z
 ---------------------------------------------------------------------
      1          6           0        2.027108    0.143169   -0.117467
      2          6           0        0.593058   -0.497410    0.086987
      3          1           0        2.887116   -0.741876    0.232787
      4          1           0        1.854949    0.365174    0.503655
      5          1           0        2.004785    0.712071   -1.054704
      6          6           0       -0.539903    0.592791    0.169045
      7          1           0        0.572862   -1.288255    1.100330
      8          1           0        0.523676   -0.867739   -0.741090
      9          6           0       -2.060871   -0.124284   -0.125344
     10          1           0       -0.422312    0.991752   -0.499357
     11          1           0       -0.499978    1.494328    1.102407
     12          1           0       -1.646856   -0.844388   -1.108462
     13          1           0       -2.650160    0.314285   -0.521388
     14          1           0       -2.740432   -0.820957    0.906497
 ---------------------------------------------------------------------

 SCF Done:  E(RB2PLYPD3) =  -157.475852860     A.U. after   11 cycles
 E2(B2PLYPD3) =    -0.2529193165D+00 E(B2PLYPD3) =    -0.15772877217604D+03

 The electronic state is 1-A.
 Alpha  occ. eigenvalues --  -10.63697 -10.61876 -10.61571 -10.58106  -0.94534
 Alpha  occ. eigenvalues --   -0.86140  -0.77038  -0.70055  -0.57339  -0.50812
 Alpha  occ. eigenvalues --   -0.48373  -0.46681  -0.42688  -0.39558  -0.38108
 Alpha  occ. eigenvalues --   -0.37394  -0.34425
 Alpha virt. eigenvalues --    0.04484   0.05705   0.07759   0.08113   0.10032
 Alpha virt. eigenvalues --    0.11026   0.12194   0.13276   0.13680   0.15233
 Alpha virt. eigenvalues --    0.15803   0.16163   0.18087   0.19618   0.21013

 Mulliken charges:
               1
     1  C   -0.722265
     2  C   -0.090265
     3  H    0.053704
     4  H    0.549318
     5  H    0.088535
     6  C   -0.356414
     7  H    0.026393
     8  H    0.132797
     9  C   -0.285207
    10  H    0.323330
    11  H    0.028597
    12  H    0.022728
    13  H    0.191607
    14  H    0.037141
 Sum of Mulliken charges =   0.00000

 Dipole moment (field-independent basis, Debye):
    X=             -0.1953    Y=              0.4332    Z=             -0.5632  Tot=              0.7369
 Quadrupole moment (field-independent basis, Debye-Ang):
   XX=            -30.5926   YY=            -29.7263   ZZ=            -27.5575
   XY=             -1.2216   XZ=              0.2641   YZ=             -1.0205

 Normal termination of Gaussian 09 at Wed Aug 26 15:19:58 2020.
