 Gaussian 09, Revision D.01,
 Gaussian 09:  ES64L-G09RevD.01 24-Apr-2013

 --------------------
 #p B2PLYPD3/Def2QZVP
 --------------------

 ----------
 butane_opt
 ----------
 Symbolic Z-matrix:
 Charge =  0 Multiplicity = 1

                         Standard orientation:
 ---------------------------------------------------------------------
 Center     Atomic      Atomic             Coordinates (Angstroms)
 Number     Number       Type             X           Y           Z
 ---------------------------------------------------------------------
      1          6           0       -1.959718   -0.132745   -0.087378
      2          6           0       -0.532993    0.489976    0.103527
      3          1           0       -2.744362    0.746271   -0.160340
      4          1           0       -2.291596   -0.694651    0.728670
      5          1           0       -1.772995   -0.735545   -0.935170
      6          6           0        0.588014   -0.509088    0.099264
      7          1           0       -0.404715    1.175022    1.068351
      8          1           0       -0.333793    1.180387   -0.867390
      9          6           0        1.931279    0.113853   -0.066569
     10          1           0        0.382220   -1.195710   -0.770850
     11          1           0        0.391098   -1.165811    1.000021
     12          1           0        1.910175    0.738506   -1.010060
     13          1           0        2.652230   -0.602832   -0.115381
     14          1           0        2.052243    0.782384    0.769086
 ---------------------------------------------------------------------

 SCF Done:  E(RB2PLYPD3) =  -158.093884527     A.U. after   11 cycles
 E2(B2PLYPD3) =    -0.2478603637D+00 E(B2PLYPD3) =    -0.15834174489090D+03

 The electronic state is 1-A.
 Alpha  occ. eigenvalues --  -10.62500 -10.60726 -10.60409 -10.59301  -0.91459
 Alpha  occ. eigenvalues --   -0.83291  -0.72887  -0.64478  -0.54188  -0.50776
 Alpha  occ. eigenvalues --   -0.49334  -0.47008  -0.43239  -0.40656  -0.38588
 Alpha  occ. eigenvalues --   -0.37672  -0.36311
 Alpha virt. eigenvalues --    0.05745   0.06918   0.07922   0.08304   0.10648
 Alpha virt. eigenvalues --    0.11942   0.13068   0.14159   0.14957   0.15170
 Alpha virt. eigenvalues --    0.15548   0.16236   0.19242   0.20029   0.21694

 Mulliken charges:
               1
     1  C   -0.152006
     2  C   -0.049276
     3  H    0.041523
     4  H    0.048389
     5  H    0.067830
     6  C   -0.034113
     7  H    0.016431
     8  H    0.015897
     9  C   -0.140600
    10  H    0.011615
    11  H    0.026233
    12  H    0.040413
    13  H    0.057381
    14  H    0.050282
 Sum of Mulliken charges =   0.00000

 Dipole moment (field-independent basis, Debye):
    X=              0.0927    Y=             -0.2163    Z=              0.0812  Tot=              0.2490
 Quadrupole moment (field-independent basis, Debye-Ang):
   XX=            -29.6802   YY=            -29.3960   ZZ=            -28.4326
   XY=             -0.2569   XZ=             -0.5547   YZ=              0.0983

 Normal termination of Gaussian 09 at Wed Aug 26 18:38:38 2020.
