 Gaussian 09, Revision D.01,
 Gaussian 09:  ES64L-G09RevD.01 24-Apr-2013

 --------------------
 #p B2PLYPD3/Def2QZVP
 --------------------

 ----------
 butane_opt
 ----------
 Symbolic Z-matrix:
 Charge =  0 Multiplicity = 1

                         Standard orientation:
 ---------------------------------------------------------------------
 Center     Atomic      Atomic             Coordinates (Angstroms)
 Number     Number       Type             X           Y           Z
 ---------------------------------------------------------------------
      1          6           0        1.950050   -0.121056   -0.020808
      2          6           0        0.548204    0.535502    0.040721
      3          1           0        2.676832    0.604909   -0.256498
      4          1           0        1.951166   -0.526044   -0.729693
      5          1           0        2.215622   -1.059890    0.953201
      6          6           0       -0.588679   -0.528724   -0.063277
      7          1           0        0.358561    1.321236   -0.841508
      8          1           0        0.282287    1.159898    1.002283
      9          6           0       -1.901872    0.111362    0.002387
     10          1           0       -0.496882   -1.215378    0.856721
     11          1           0       -0.502961   -1.063166   -0.924076
     12          1           0       -1.856832    0.800923    1.044175
     13          1           0       -2.615813   -0.629211   -0.112593
     14          1           0       -2.058199    0.624210   -0.746154
 ---------------------------------------------------------------------

 SCF Done:  E(RB2PLYPD3) =  -157.942183292     A.U. after   11 cycles
 E2(B2PLYPD3) =    -0.2480607770D+00 E(B2PLYPD3) =    -0.15819024406933D+03

 The electronic state is 1-A.
 Alpha  occ. eigenvalues --  -10.62788 -10.59679 -10.59397 -10.58167  -0.92093
 Alpha  occ. eigenvalues --   -0.85933  -0.74230  -0.66466  -0.54516  -0.50948
 Alpha  occ. eigenvalues --   -0.49437  -0.47309  -0.42233  -0.40576  -0.39236
 Alpha  occ. eigenvalues --   -0.37405  -0.36652
 Alpha virt. eigenvalues --    0.05411   0.06412   0.07730   0.08392   0.10740
 Alpha virt. eigenvalues --    0.11929   0.12548   0.13369   0.14514   0.15542
 Alpha virt. eigenvalues --    0.15902   0.16325   0.19264   0.19797   0.21447

 Mulliken charges:
               1
     1  C   -0.320238
     2  C   -0.025940
     3  H    0.050602
     4  H    0.215403
     5  H    0.028388
     6  C   -0.027982
     7  H    0.012104
     8  H    0.022678
     9  C   -0.156253
    10  H    0.026587
    11  H    0.039569
    12  H    0.031429
    13  H    0.039855
    14  H    0.063799
 Sum of Mulliken charges =   0.00000

 Dipole moment (field-independent basis, Debye):
    X=             -0.0880    Y=             -0.1380    Z=             -0.7308  Tot=              0.7489
 Quadrupole moment (field-independent basis, Debye-Ang):
   XX=            -30.0829   YY=            -29.0360   ZZ=            -28.0029
   XY=              0.4451   XZ=             -0.0913   YZ=             -0.1179

 Normal termination of Gaussian 09 at Wed Aug 26 15:37:00 2020.
