 Gaussian 09, Revision D.01,
 Gaussian 09:  ES64L-G09RevD.01 24-Apr-2013

 --------------------
 #p B2PLYPD3/Def2QZVP
 --------------------

 ----------
 butane_opt
 ----------
 Symbolic Z-matrix:
 Charge =  0 Multiplicity = 1

                         Standard orientation:
 ---------------------------------------------------------------------
 Center     Atomic      Atomic             Coordinates (Angstroms)
 Number     Number       Type             X           Y           Z
 ---------------------------------------------------------------------
      1          6           0       -1.832256    0.047523   -0.215935
      2          6           0       -0.593431   -0.398089    0.318568
      3          1           0       -2.794955   -1.165205   -0.421544
      4          1           0       -1.592284    0.431843   -1.146965
      5          1           0       -2.372099    0.903918    0.644745
      6          6           0        0.540472    0.615331    0.088546
      7          1           0       -0.308447   -1.020563   -0.437132
      8          1           0       -0.631362   -0.863175    1.353171
      9          6           0        1.900690   -0.193100   -0.039056
     10          1           0        0.267779    1.528882    0.897138
     11          1           0        0.428001    1.226357   -0.978563
     12          1           0        2.394900   -0.625450    0.818844
     13          1           0        2.563483    0.398054   -0.675775
     14          1           0        1.952138   -1.244645   -0.966656
 ---------------------------------------------------------------------

 SCF Done:  E(RB2PLYPD3) =  -157.928839076     A.U. after   11 cycles
 E2(B2PLYPD3) =    -0.2552769676D+00 E(B2PLYPD3) =    -0.15818411604353D+03

 The electronic state is 1-A.
 Alpha  occ. eigenvalues --  -10.65622 -10.65155 -10.64336 -10.59924  -0.93111
 Alpha  occ. eigenvalues --   -0.82404  -0.70634  -0.64993  -0.55589  -0.50696
 Alpha  occ. eigenvalues --   -0.47245  -0.44343  -0.43102  -0.40074  -0.38534
 Alpha  occ. eigenvalues --   -0.36123  -0.32740
 Alpha virt. eigenvalues --    0.03568   0.04568   0.06605   0.07439   0.09328
 Alpha virt. eigenvalues --    0.10746   0.11623   0.12347   0.13685   0.14856
 Alpha virt. eigenvalues --    0.15208   0.16054   0.17903   0.19353   0.20313

 Mulliken charges:
               1
     1  C   -0.169447
     2  C   -0.053243
     3  H   -0.008816
     4  H    0.088350
     5  H    0.021391
     6  C   -0.055180
     7  H    0.089345
     8  H    0.050513
     9  C   -0.140380
    10  H    0.032426
    11  H    0.014548
    12  H    0.075888
    13  H    0.057449
    14  H   -0.002843
 Sum of Mulliken charges =   0.00000

 Dipole moment (field-independent basis, Debye):
    X=              0.9165    Y=              0.2104    Z=             -0.0034  Tot=              0.9403
 Quadrupole moment (field-independent basis, Debye-Ang):
   XX=            -32.9531   YY=            -30.4273   ZZ=            -28.4752
   XY=             -0.6687   XZ=             -0.6875   YZ=             -0.4725

 Normal termination of Gaussian 09 at Wed Aug 26 10:15:49 2020.
