 Gaussian 09, Revision D.01,
 Gaussian 09:  ES64L-G09RevD.01 24-Apr-2013

 --------------------
 #p B2PLYPD3/Def2QZVP
 --------------------

 ----------
 butane_opt
 ----------
 Symbolic Z-matrix:
 Charge =  0 Multiplicity = 1

                         Standard orientation:
 ---------------------------------------------------------------------
 Center     Atomic      Atomic             Coordinates (Angstroms)
 Number     Number       Type             X           Y           Z
 ---------------------------------------------------------------------
      1          6           0        1.957879   -0.251528   -0.125973
      2          6           0        0.483873    0.568431    0.070182
      3          1           0        2.789894    0.716526   -0.015991
      4          1           0        2.151993   -1.073960   -0.951748
      5          1           0        2.155223   -0.400048    0.549560
      6          6           0       -0.603517   -0.425462    0.283350
      7          1           0        0.242084    0.901913   -0.854344
      8          1           0        0.494176    1.317997    0.803391
      9          6           0       -1.839662    0.083878   -0.143622
     10          1           0       -0.514581   -0.934988    1.349463
     11          1           0       -0.753240   -0.939969   -0.371494
     12          1           0       -2.157721    0.750195    0.748859
     13          1           0       -2.823278   -0.902060   -0.552874
     14          1           0       -1.575981    0.712490   -1.208439
 ---------------------------------------------------------------------

 SCF Done:  E(RB2PLYPD3) =  -157.685969535     A.U. after   11 cycles
 E2(B2PLYPD3) =    -0.2529115095D+00 E(B2PLYPD3) =    -0.15793888104424D+03

 The electronic state is 1-A.
 Alpha  occ. eigenvalues --  -10.65423 -10.60601 -10.59772 -10.57288  -0.96451
 Alpha  occ. eigenvalues --   -0.86122  -0.75543  -0.66078  -0.58053  -0.51599
 Alpha  occ. eigenvalues --   -0.48797  -0.45818  -0.44525  -0.39797  -0.39236
 Alpha  occ. eigenvalues --   -0.34979  -0.33894
 Alpha virt. eigenvalues --    0.04459   0.05676   0.07583   0.08209   0.09436
 Alpha virt. eigenvalues --    0.11358   0.12046   0.13545   0.14268   0.14916
 Alpha virt. eigenvalues --    0.15899   0.16129   0.18939   0.19158   0.20707

 Mulliken charges:
               1
     1  C   -0.571121
     2  C   -0.029326
     3  H    0.011957
     4  H    0.086935
     5  H    0.408404
     6  C   -0.182091
     7  H    0.069043
     8  H    0.055918
     9  C   -0.189562
    10  H    0.034848
    11  H    0.198098
    12  H    0.047413
    13  H    0.014045
    14  H    0.045438
 Sum of Mulliken charges =   0.00000

 Dipole moment (field-independent basis, Debye):
    X=              0.2298    Y=             -0.1390    Z=              0.1949  Tot=              0.3318
 Quadrupole moment (field-independent basis, Debye-Ang):
   XX=            -32.5418   YY=            -29.1339   ZZ=            -27.6657
   XY=             -0.1359   XZ=              0.8737   YZ=              1.1420

 Normal termination of Gaussian 09 at Wed Aug 26 16:07:18 2020.
