 Gaussian 09, Revision D.01,
 Gaussian 09:  ES64L-G09RevD.01 24-Apr-2013

 --------------------
 #p B2PLYPD3/Def2QZVP
 --------------------

 ----------
 butane_opt
 ----------
 Symbolic Z-matrix:
 Charge =  0 Multiplicity = 1

                         Standard orientation:
 ---------------------------------------------------------------------
 Center     Atomic      Atomic             Coordinates (Angstroms)
 Number     Number       Type             X           Y           Z
 ---------------------------------------------------------------------
      1          6           0        1.893217   -0.150881   -0.055442
      2          6           0        0.536204    0.527872    0.030771
      3          1           0        2.722036    0.552741   -0.154557
      4          1           0        2.114222   -0.884035   -0.935332
      5          1           0        2.089500   -0.661146    0.868909
      6          6           0       -0.558761   -0.461094    0.152584
      7          1           0        0.437471    1.191750   -0.828096
      8          1           0        0.553125    1.281399    0.898240
      9          6           0       -1.919365    0.070148   -0.110119
     10          1           0       -0.525301   -1.078990    1.080950
     11          1           0       -0.408260   -1.172225   -0.671760
     12          1           0       -2.189435    0.960769    0.871632
     13          1           0       -2.703882   -0.728091   -0.222205
     14          1           0       -1.797243    0.621556   -1.014538
 ---------------------------------------------------------------------

 SCF Done:  E(RB2PLYPD3) =  -158.086558467     A.U. after   11 cycles
 E2(B2PLYPD3) =    -0.2479952116D+00 E(B2PLYPD3) =    -0.15833455367890D+03

 The electronic state is 1-A.
 Alpha  occ. eigenvalues --  -10.62229 -10.61087 -10.60367 -10.60295  -0.92264
 Alpha  occ. eigenvalues --   -0.83267  -0.71908  -0.66009  -0.53889  -0.50407
 Alpha  occ. eigenvalues --   -0.49626  -0.45957  -0.42283  -0.40529  -0.39402
 Alpha  occ. eigenvalues --   -0.38126  -0.35912
 Alpha virt. eigenvalues --    0.05542   0.06577   0.07818   0.08305   0.10841
 Alpha virt. eigenvalues --    0.11459   0.12774   0.13228   0.14583   0.14892
 Alpha virt. eigenvalues --    0.15519   0.16493   0.19590   0.20399   0.21714

 Mulliken charges:
               1
     1  C   -0.130348
     2  C   -0.023911
     3  H    0.035250
     4  H    0.026308
     5  H    0.048211
     6  C   -0.028367
     7  H    0.024790
     8  H    0.019531
     9  C   -0.165590
    10  H    0.032780
    11  H    0.032538
    12  H    0.005865
    13  H    0.060096
    14  H    0.062845
 Sum of Mulliken charges =   0.00000

 Dipole moment (field-independent basis, Debye):
    X=              0.2376    Y=             -0.1774    Z=             -0.2386  Tot=              0.3806
 Quadrupole moment (field-independent basis, Debye-Ang):
   XX=            -30.4082   YY=            -29.1523   ZZ=            -28.4776
   XY=              1.1834   XZ=              0.4056   YZ=             -0.0562

 Normal termination of Gaussian 09 at Wed Aug 26 21:48:53 2020.
