 Gaussian 09, Revision D.01,
 Gaussian 09:  ES64L-G09RevD.01 24-Apr-2013

 --------------------
 #p B2PLYPD3/Def2QZVP
 --------------------

 ----------
 butane_opt
 ----------
 Symbolic Z-matrix:
 Charge =  0 Multiplicity = 1

                         Standard orientation:
 ---------------------------------------------------------------------
 Center     Atomic      Atomic             Coordinates (Angstroms)
 Number     Number       Type             X           Y           Z
 ---------------------------------------------------------------------
      1          6           0       -1.874376    0.092046   -0.074981
      2          6           0       -0.567949   -0.493687    0.137529
      3          1           0       -2.654121   -0.756339   -0.289942
      4          1           0       -1.913684    0.741294   -1.003055
      5          1           0       -2.136978    0.758462    0.839910
      6          6           0        0.481755    0.544834    0.012227
      7          1           0       -0.441443   -1.080598   -0.617858
      8          1           0       -0.446804   -1.192673    1.031879
      9          6           0        1.959637   -0.134262   -0.050926
     10          1           0        0.330953    1.356466    0.941372
     11          1           0        0.460059    1.043713   -0.802383
     12          1           0        2.097093   -0.583702    0.769450
     13          1           0        2.691214    0.536763   -0.042575
     14          1           0        2.019307   -0.876965   -0.969887
 ---------------------------------------------------------------------

 SCF Done:  E(RB2PLYPD3) =  -158.037287169     A.U. after   11 cycles
 E2(B2PLYPD3) =    -0.2467706503D+00 E(B2PLYPD3) =    -0.15828405781924D+03

 The electronic state is 1-A.
 Alpha  occ. eigenvalues --  -10.61201 -10.60490 -10.58531 -10.58318  -0.92855
 Alpha  occ. eigenvalues --   -0.83576  -0.73407  -0.67697  -0.55157  -0.50015
 Alpha  occ. eigenvalues --   -0.48711  -0.47387  -0.43863  -0.41390  -0.39362
 Alpha  occ. eigenvalues --   -0.37167  -0.36559
 Alpha virt. eigenvalues --    0.05754   0.06884   0.08084   0.08497   0.11012
 Alpha virt. eigenvalues --    0.11916   0.12853   0.14205   0.14775   0.15183
 Alpha virt. eigenvalues --    0.15883   0.16505   0.19671   0.19949   0.21699

 Mulliken charges:
               1
     1  C   -0.152154
     2  C   -0.035454
     3  H    0.035574
     4  H    0.044530
     5  H    0.040801
     6  C   -0.085931
     7  H    0.057966
     8  H    0.027999
     9  C   -0.145014
    10  H   -0.001930
    11  H    0.076065
    12  H    0.062471
    13  H    0.044128
    14  H    0.030948
 Sum of Mulliken charges =   0.00000

 Dipole moment (field-independent basis, Debye):
    X=              0.1920    Y=             -0.1664    Z=             -0.2312  Tot=              0.3435
 Quadrupole moment (field-independent basis, Debye-Ang):
   XX=            -30.1404   YY=            -28.7641   ZZ=            -27.9685
   XY=              0.4470   XZ=              0.4898   YZ=             -0.0165

 Normal termination of Gaussian 09 at Wed Aug 26 16:23:06 2020.
