 Gaussian 09, Revision D.01,
 Gaussian 09:  ES64L-G09RevD.01 24-Apr-2013

 --------------------
 #p B2PLYPD3/Def2QZVP
 --------------------

 ----------
 butane_opt
 ----------
 Symbolic Z-matrix:
 Charge =  0 Multiplicity = 1

                         Standard orientation:
 ---------------------------------------------------------------------
 Center     Atomic      Atomic             Coordinates (Angstroms)
 Number     Number       Type             X           Y           Z
 ---------------------------------------------------------------------
      1          6           0       -2.004275   -0.189137    0.135410
      2          6           0       -0.584192    0.607485   -0.240709
      3          1           0       -2.739775    0.464446    0.650544
      4          1           0       -2.029983   -0.725162    1.112470
      5          1           0       -2.453962   -0.792165   -0.760393
      6          6           0        0.612644   -0.485776   -0.212975
      7          1           0       -0.160515    1.139645    0.520586
      8          1           0       -0.522400    1.499482   -1.271556
      9          6           0        1.895017    0.048749    0.184955
     10          1           0        0.987319   -1.142989   -1.060342
     11          1           0        0.314967   -1.180394    0.594814
     12          1           0        2.398121    0.537691   -0.503267
     13          1           0        2.693004   -0.723321    0.135003
     14          1           0        1.998058    1.034838    1.382054
 ---------------------------------------------------------------------

 SCF Done:  E(RB2PLYPD3) =  -157.942150582     A.U. after   11 cycles
 E2(B2PLYPD3) =    -0.2535393622D+00 E(B2PLYPD3) =    -0.15819568994439D+03

 The electronic state is 1-A.
 Alpha  occ. eigenvalues --  -10.64874 -10.62968 -10.62456 -10.62140  -0.91052
 Alpha  occ. eigenvalues --   -0.82436  -0.73568  -0.66756  -0.52349  -0.49540
 Alpha  occ. eigenvalues --   -0.47883  -0.46354  -0.40986  -0.39317  -0.39060
 Alpha  occ. eigenvalues --   -0.35895  -0.34802
 Alpha virt. eigenvalues --    0.04506   0.06007   0.06640   0.07411   0.10586
 Alpha virt. eigenvalues --    0.11146   0.11966   0.12654   0.13638   0.14354
 Alpha virt. eigenvalues --    0.15863   0.16942   0.18173   0.19210   0.20181

 Mulliken charges:
               1
     1  C   -0.137483
     2  C   -0.106058
     3  H    0.034219
     4  H    0.038385
     5  H    0.069622
     6  C   -0.007216
     7  H    0.082548
     8  H    0.018884
     9  C   -0.143698
    10  H    0.028016
    11  H    0.049478
    12  H    0.058618
    13  H    0.037923
    14  H   -0.023239
 Sum of Mulliken charges =   0.00000

 Dipole moment (field-independent basis, Debye):
    X=             -0.0234    Y=             -0.4311    Z=             -0.2221  Tot=              0.4855
 Quadrupole moment (field-independent basis, Debye-Ang):
   XX=            -28.9695   YY=            -29.9310   ZZ=            -29.3462
   XY=             -0.2348   XZ=             -2.8364   YZ=              0.3134

 Normal termination of Gaussian 09 at Wed Aug 26 22:41:36 2020.
