 Gaussian 09, Revision D.01,
 Gaussian 09:  ES64L-G09RevD.01 24-Apr-2013

 --------------------
 #p B2PLYPD3/Def2QZVP
 --------------------

 ----------
 butane_opt
 ----------
 Symbolic Z-matrix:
 Charge =  0 Multiplicity = 1

                         Standard orientation:
 ---------------------------------------------------------------------
 Center     Atomic      Atomic             Coordinates (Angstroms)
 Number     Number       Type             X           Y           Z
 ---------------------------------------------------------------------
      1          6           0       -1.936931    0.104641   -0.058924
      2          6           0       -0.567873   -0.495651    0.054220
      3          1           0       -2.774816   -0.716544   -0.024123
      4          1           0       -1.993746    0.775793   -0.939709
      5          1           0       -2.020484    0.711306    0.710888
      6          6           0        0.532965    0.515893    0.071865
      7          1           0       -0.348179   -1.012245   -0.763414
      8          1           0       -0.633455   -1.138778    0.917831
      9          6           0        1.998232   -0.130627   -0.072697
     10          1           0        0.435656    1.387282    1.096319
     11          1           0        0.305840    0.947942   -0.751962
     12          1           0        2.235670   -0.877757    0.892638
     13          1           0        2.772338    0.563875   -0.254189
     14          1           0        1.862819   -0.606411   -0.851065
 ---------------------------------------------------------------------

 SCF Done:  E(RB2PLYPD3) =  -158.017594468     A.U. after   11 cycles
 E2(B2PLYPD3) =    -0.2469559578D+00 E(B2PLYPD3) =    -0.15826455042537D+03

 The electronic state is 1-A.
 Alpha  occ. eigenvalues --  -10.61666 -10.59955 -10.59344 -10.58744  -0.92986
 Alpha  occ. eigenvalues --   -0.83944  -0.74388  -0.67227  -0.55406  -0.50207
 Alpha  occ. eigenvalues --   -0.48533  -0.48228  -0.43315  -0.41643  -0.38712
 Alpha  occ. eigenvalues --   -0.38409  -0.36491
 Alpha virt. eigenvalues --    0.05728   0.06847   0.08029   0.08771   0.10744
 Alpha virt. eigenvalues --    0.12054   0.12834   0.13625   0.14784   0.15169
 Alpha virt. eigenvalues --    0.15920   0.16408   0.19184   0.20031   0.21876

 Mulliken charges:
               1
     1  C   -0.153614
     2  C   -0.035653
     3  H    0.040030
     4  H    0.026196
     5  H    0.069215
     6  C   -0.103964
     7  H    0.054150
     8  H    0.025066
     9  C   -0.186773
    10  H   -0.014021
    11  H    0.092735
    12  H    0.036146
    13  H    0.054134
    14  H    0.096354
 Sum of Mulliken charges =   0.00000

 Dipole moment (field-independent basis, Debye):
    X=              0.0168    Y=             -0.1724    Z=             -0.4562  Tot=              0.4879
 Quadrupole moment (field-independent basis, Debye-Ang):
   XX=            -29.5753   YY=            -29.3221   ZZ=            -28.0702
   XY=              0.4353   XZ=             -0.8617   YZ=             -0.4250

 Normal termination of Gaussian 09 at Wed Aug 26 18:58:56 2020.
