 Gaussian 09, Revision D.01,
 Gaussian 09:  ES64L-G09RevD.01 24-Apr-2013

 --------------------
 #p B2PLYPD3/Def2QZVP
 --------------------

 ----------
 butane_opt
 ----------
 Symbolic Z-matrix:
 Charge =  0 Multiplicity = 1

                         Standard orientation:
 ---------------------------------------------------------------------
 Center     Atomic      Atomic             Coordinates (Angstroms)
 Number     Number       Type             X           Y           Z
 ---------------------------------------------------------------------
      1          6           0       -1.920840    0.086815    0.061531
      2          6           0       -0.547530   -0.466234   -0.070049
      3          1           0       -2.835420   -0.752297   -0.211575
      4          1           0       -1.861574    0.573127   -0.730886
      5          1           0       -2.051555    0.921333    1.083295
      6          6           0        0.522639    0.521727   -0.021360
      7          1           0       -0.503284   -1.085296   -0.990429
      8          1           0       -0.500613   -0.990902    0.763749
      9          6           0        1.956611   -0.144504    0.017515
     10          1           0        0.549553    1.165281    0.865589
     11          1           0        0.266816    1.170786   -0.890490
     12          1           0        2.104139   -1.179473    1.080407
     13          1           0        2.714953    0.676844   -0.283382
     14          1           0        2.051708   -0.486226   -0.612100
 ---------------------------------------------------------------------

 SCF Done:  E(RB2PLYPD3) =  -157.768807019     A.U. after   11 cycles
 E2(B2PLYPD3) =    -0.2507801892D+00 E(B2PLYPD3) =    -0.15801958720837D+03

 The electronic state is 1-A.
 Alpha  occ. eigenvalues --  -10.61449 -10.61025 -10.60732 -10.58679  -0.93889
 Alpha  occ. eigenvalues --   -0.86328  -0.75404  -0.67226  -0.56450  -0.50200
 Alpha  occ. eigenvalues --   -0.48245  -0.45814  -0.42020  -0.39579  -0.38556
 Alpha  occ. eigenvalues --   -0.37698  -0.36590
 Alpha virt. eigenvalues --    0.04300   0.05453   0.07666   0.07838   0.10368
 Alpha virt. eigenvalues --    0.11320   0.11855   0.12873   0.13493   0.15548
 Alpha virt. eigenvalues --    0.15717   0.16287   0.19094   0.19351   0.21820

 Mulliken charges:
               1
     1  C   -0.212026
     2  C   -0.040453
     3  H    0.035967
     4  H    0.098184
     5  H    0.034852
     6  C   -0.005484
     7  H    0.031197
     8  H    0.055374
     9  C   -0.532958
    10  H    0.042510
    11  H    0.022021
    12  H    0.037165
    13  H    0.053247
    14  H    0.380403
 Sum of Mulliken charges =   0.00000

 Dipole moment (field-independent basis, Debye):
    X=              0.1088    Y=             -0.0359    Z=             -0.6762  Tot=              0.6859
 Quadrupole moment (field-independent basis, Debye-Ang):
   XX=            -31.3688   YY=            -29.0757   ZZ=            -28.0061
   XY=              0.5045   XZ=             -0.5266   YZ=              0.1220

 Normal termination of Gaussian 09 at Wed Aug 26 22:25:13 2020.
