 Gaussian 09, Revision D.01,
 Gaussian 09:  ES64L-G09RevD.01 24-Apr-2013

 --------------------
 #p B2PLYPD3/Def2QZVP
 --------------------

 ----------
 butane_opt
 ----------
 Symbolic Z-matrix:
 Charge =  0 Multiplicity = 1

                         Standard orientation:
 ---------------------------------------------------------------------
 Center     Atomic      Atomic             Coordinates (Angstroms)
 Number     Number       Type             X           Y           Z
 ---------------------------------------------------------------------
      1          6           0       -1.987362    0.126424    0.095648
      2          6           0       -0.534745   -0.642423   -0.077830
      3          1           0       -2.625370   -0.332799   -0.693489
      4          1           0       -1.890641    0.227723   -0.546850
      5          1           0       -2.474981    1.311371    1.414387
      6          6           0        0.545897    0.467273   -0.197595
      7          1           0       -0.414606   -1.324270   -0.875212
      8          1           0       -0.128208   -1.153350    0.820911
      9          6           0        1.959682   -0.057822    0.109987
     10          1           0        0.236512    1.272257    0.680445
     11          1           0        0.692201    1.228557   -1.144747
     12          1           0        1.864447   -1.163165    1.338035
     13          1           0        2.714246    0.850484   -0.014300
     14          1           0        2.125572   -0.277512   -0.560437
 ---------------------------------------------------------------------

 SCF Done:  E(RB2PLYPD3) =  -157.230601150     A.U. after   13 cycles
 E2(B2PLYPD3) =    -0.2631705099D+00 E(B2PLYPD3) =    -0.15749377165969D+03

 The electronic state is 1-A.
 Alpha  occ. eigenvalues --  -10.63827 -10.63331 -10.62446 -10.61852  -0.96717
 Alpha  occ. eigenvalues --   -0.90693  -0.79304  -0.66387  -0.52534  -0.49515
 Alpha  occ. eigenvalues --   -0.47822  -0.43735  -0.39513  -0.37746  -0.36988
 Alpha  occ. eigenvalues --   -0.36138  -0.33543
 Alpha virt. eigenvalues --   -0.02666   0.02194   0.05761   0.06454   0.08949
 Alpha virt. eigenvalues --    0.09989   0.11355   0.12774   0.13703   0.15059
 Alpha virt. eigenvalues --    0.15859   0.17055   0.17332   0.18358   0.20018

 Mulliken charges:
               1
     1  C   -0.833616
     2  C   -0.057614
     3  H    0.037592
     4  H    0.705725
     5  H    0.081341
     6  C   -0.025959
     7  H    0.053507
     8  H    0.055072
     9  C   -0.543097
    10  H    0.025282
    11  H    0.008124
    12  H    0.020714
    13  H    0.053337
    14  H    0.419593
 Sum of Mulliken charges =   0.00000

 Dipole moment (field-independent basis, Debye):
    X=              0.1348    Y=              0.3476    Z=             -1.2265  Tot=              1.2819
 Quadrupole moment (field-independent basis, Debye-Ang):
   XX=            -32.0530   YY=            -29.6332   ZZ=            -27.5490
   XY=             -0.9540   XZ=             -0.3240   YZ=              1.0179

 Normal termination of Gaussian 09 at Wed Aug 26 16:10:07 2020.
