 Gaussian 09, Revision D.01,
 Gaussian 09:  ES64L-G09RevD.01 24-Apr-2013

 --------------------
 #p B2PLYPD3/Def2QZVP
 --------------------

 ----------
 butane_opt
 ----------
 Symbolic Z-matrix:
 Charge =  0 Multiplicity = 1

                         Standard orientation:
 ---------------------------------------------------------------------
 Center     Atomic      Atomic             Coordinates (Angstroms)
 Number     Number       Type             X           Y           Z
 ---------------------------------------------------------------------
      1          6           0        2.034664    0.113205    0.129451
      2          6           0        0.621432   -0.449228   -0.052845
      3          1           0        2.902843   -0.786200   -0.384705
      4          1           0        2.198851    1.440908    1.223546
      5          1           0        1.946792    0.192745   -0.447378
      6          6           0       -0.581992    0.518712   -0.309531
      7          1           0        0.556387   -1.035452    0.839409
      8          1           0        0.540829   -1.292217   -0.978525
      9          6           0       -1.979686   -0.144258    0.156421
     10          1           0       -0.665597    1.119851   -1.287582
     11          1           0       -0.691958    1.192787    0.621870
     12          1           0       -2.503196   -0.684038   -0.523856
     13          1           0       -2.808749    0.667416    0.173090
     14          1           0       -2.042703   -1.046384    1.223156
 ---------------------------------------------------------------------

 SCF Done:  E(RB2PLYPD3) =  -157.319660586     A.U. after   13 cycles
 E2(B2PLYPD3) =    -0.2596263298D+00 E(B2PLYPD3) =    -0.15757928691553D+03

 The electronic state is 1-A.
 Alpha  occ. eigenvalues --  -10.64392 -10.63724 -10.63591 -10.63265  -0.95460
 Alpha  occ. eigenvalues --   -0.85707  -0.74267  -0.66421  -0.53048  -0.48673
 Alpha  occ. eigenvalues --   -0.47048  -0.44723  -0.39877  -0.39498  -0.37240
 Alpha  occ. eigenvalues --   -0.36042  -0.34020
 Alpha virt. eigenvalues --   -0.00178   0.04802   0.05277   0.07328   0.09560
 Alpha virt. eigenvalues --    0.10311   0.11266   0.12462   0.12669   0.14454
 Alpha virt. eigenvalues --    0.15383   0.15655   0.18026   0.19704   0.21678

 Mulliken charges:
               1
     1  C   -0.955694
     2  C   -0.000225
     3  H    0.060266
     4  H    0.050821
     5  H    0.772083
     6  C   -0.070950
     7  H    0.064886
     8  H    0.007569
     9  C   -0.153598
    10  H    0.058601
    11  H    0.042371
    12  H    0.047532
    13  H    0.040926
    14  H    0.035412
 Sum of Mulliken charges =   0.00000

 Dipole moment (field-independent basis, Debye):
    X=             -0.6810    Y=              0.1559    Z=             -0.7601  Tot=              1.0324
 Quadrupole moment (field-independent basis, Debye-Ang):
   XX=            -31.4032   YY=            -29.3110   ZZ=            -28.6598
   XY=             -0.4272   XZ=             -0.3639   YZ=              0.4610

 Normal termination of Gaussian 09 at Wed Aug 26 21:31:04 2020.
