 Gaussian 09, Revision D.01,
 Gaussian 09:  ES64L-G09RevD.01 24-Apr-2013

 --------------------
 #p B2PLYPD3/Def2QZVP
 --------------------

 ----------
 butane_opt
 ----------
 Symbolic Z-matrix:
 Charge =  0 Multiplicity = 1

                         Standard orientation:
 ---------------------------------------------------------------------
 Center     Atomic      Atomic             Coordinates (Angstroms)
 Number     Number       Type             X           Y           Z
 ---------------------------------------------------------------------
      1          6           0       -1.908242   -0.236345    0.106291
      2          6           0       -0.517163    0.594570   -0.055569
      3          1           0       -2.634519    0.639427   -0.361020
      4          1           0       -2.448817   -1.280626    1.137182
      5          1           0       -1.931445   -0.221360   -0.404561
      6          6           0        0.608907   -0.389710   -0.239264
      7          1           0       -0.305903    1.046667    0.742956
      8          1           0       -0.271323    1.460770   -0.876737
      9          6           0        1.825908    0.010855    0.103598
     10          1           0        0.504095   -0.991185   -1.238004
     11          1           0        0.612851   -0.929388    0.331120
     12          1           0        2.018691    0.306500   -0.307494
     13          1           0        2.510023   -0.715818    0.094271
     14          1           0        1.889882    0.808801    1.391953
 ---------------------------------------------------------------------

 SCF Done:  E(RB2PLYPD3) =  -156.165907754     A.U. after   13 cycles
 E2(B2PLYPD3) =    -0.2562970483D+00 E(B2PLYPD3) =    -0.15642220480270D+03

 The electronic state is 1-A.
 Alpha  occ. eigenvalues --  -10.65043 -10.60909 -10.58953 -10.55296  -0.99588
 Alpha  occ. eigenvalues --   -0.93655  -0.81983  -0.73565  -0.57411  -0.52155
 Alpha  occ. eigenvalues --   -0.49508  -0.46224  -0.42991  -0.39093  -0.38925
 Alpha  occ. eigenvalues --   -0.36677  -0.34280
 Alpha virt. eigenvalues --    0.02058   0.05044   0.05678   0.07548   0.09490
 Alpha virt. eigenvalues --    0.10912   0.11807   0.13696   0.14546   0.15000
 Alpha virt. eigenvalues --    0.16424   0.16509   0.18920   0.19240   0.21262

 Mulliken charges:
               1
     1  C   -1.174588
     2  C   -0.014789
     3  H    0.028716
     4  H    0.119830
     5  H    0.957783
     6  C   -0.226288
     7  H    0.088479
     8  H    0.018187
     9  C   -0.732726
    10  H    0.018913
    11  H    0.297528
    12  H    0.549133
    13  H    0.072193
    14  H   -0.002372
 Sum of Mulliken charges =   0.00000

 Dipole moment (field-independent basis, Debye):
    X=              0.2180    Y=             -0.5796    Z=             -0.3833  Tot=              0.7283
 Quadrupole moment (field-independent basis, Debye-Ang):
   XX=            -29.0092   YY=            -27.8842   ZZ=            -27.3910
   XY=              0.7051   XZ=             -0.9808   YZ=             -1.4092

 Normal termination of Gaussian 09 at Wed Aug 26 12:55:47 2020.
