 Gaussian 09, Revision D.01,
 Gaussian 09:  ES64L-G09RevD.01 24-Apr-2013

 --------------------
 #p B2PLYPD3/Def2QZVP
 --------------------

 ----------
 butane_opt
 ----------
 Symbolic Z-matrix:
 Charge =  0 Multiplicity = 1

                         Standard orientation:
 ---------------------------------------------------------------------
 Center     Atomic      Atomic             Coordinates (Angstroms)
 Number     Number       Type             X           Y           Z
 ---------------------------------------------------------------------
      1          6           0        1.883910    0.058130   -0.200478
      2          6           0        0.544207   -0.405644    0.175009
      3          1           0        2.626826   -0.776293    0.298440
      4          1           0        1.961864    0.392369    0.419986
      5          1           0        1.747119    0.735635   -1.232510
      6          6           0       -0.506327    0.598733    0.123495
      7          1           0        0.691735   -1.173022    1.168887
      8          1           0        0.498837   -1.034760   -0.658862
      9          6           0       -1.878406   -0.158197   -0.104337
     10          1           0       -0.524928    0.895826   -0.463433
     11          1           0       -0.275223    1.836411    1.119834
     12          1           0       -1.915925   -0.911201   -1.007157
     13          1           0       -2.601340    0.352823   -0.487455
     14          1           0       -2.469273   -0.875924    0.880139
 ---------------------------------------------------------------------

 SCF Done:  E(RB2PLYPD3) =  -157.371155199     A.U. after   12 cycles
 E2(B2PLYPD3) =    -0.2545435004D+00 E(B2PLYPD3) =    -0.15762569869943D+03

 The electronic state is 1-A.
 Alpha  occ. eigenvalues --  -10.62935 -10.62447 -10.61032 -10.58158  -0.97278
 Alpha  occ. eigenvalues --   -0.89195  -0.75922  -0.70568  -0.57032  -0.51997
 Alpha  occ. eigenvalues --   -0.48980  -0.45777  -0.40931  -0.40165  -0.38811
 Alpha  occ. eigenvalues --   -0.36366  -0.34472
 Alpha virt. eigenvalues --    0.02792   0.05214   0.06022   0.07631   0.10507
 Alpha virt. eigenvalues --    0.10937   0.11559   0.13603   0.13765   0.14945
 Alpha virt. eigenvalues --    0.15603   0.16195   0.18447   0.19450   0.21042

 Mulliken charges:
               1
     1  C   -0.637552
     2  C    0.034220
     3  H    0.044915
     4  H    0.478108
     5  H    0.070496
     6  C   -0.705186
     7  H    0.009875
     8  H    0.079496
     9  C   -0.102074
    10  H    0.624741
    11  H   -0.006161
    12  H    0.026828
    13  H    0.059018
    14  H    0.023276
 Sum of Mulliken charges =   0.00000

 Dipole moment (field-independent basis, Debye):
    X=             -0.0933    Y=              0.0057    Z=             -0.7020  Tot=              0.7081
 Quadrupole moment (field-independent basis, Debye-Ang):
   XX=            -30.2169   YY=            -29.8237   ZZ=            -28.1867
   XY=             -0.0807   XZ=              2.4690   YZ=             -1.0600

 Normal termination of Gaussian 09 at Wed Aug 26 16:10:44 2020.
