 Gaussian 09, Revision D.01,
 Gaussian 09:  ES64L-G09RevD.01 24-Apr-2013

 --------------------
 #p B2PLYPD3/Def2QZVP
 --------------------

 ----------
 butane_opt
 ----------
 Symbolic Z-matrix:
 Charge =  0 Multiplicity = 1

                         Standard orientation:
 ---------------------------------------------------------------------
 Center     Atomic      Atomic             Coordinates (Angstroms)
 Number     Number       Type             X           Y           Z
 ---------------------------------------------------------------------
      1          6           0       -1.960003    0.030723   -0.058765
      2          6           0       -0.612946   -0.489456   -0.115023
      3          1           0       -2.830000   -0.738973    0.778005
      4          1           0       -2.417940    1.147262   -1.182940
      5          1           0       -1.744223    0.284199    0.586074
      6          6           0        0.607132    0.592200    0.150616
      7          1           0       -0.669191   -0.812689   -0.672299
      8          1           0       -0.404189   -1.149689    0.795756
      9          6           0        1.983525   -0.105861   -0.100835
     10          1           0        0.378135    1.394666    1.169383
     11          1           0        0.467043    1.157115   -0.500763
     12          1           0        2.336405   -0.879995    0.873081
     13          1           0        2.540173    0.303400   -0.030055
     14          1           0        2.237539   -0.870923   -1.072194
 ---------------------------------------------------------------------

 SCF Done:  E(RB2PLYPD3) =  -157.060708864     A.U. after   12 cycles
 E2(B2PLYPD3) =    -0.2556355441D+00 E(B2PLYPD3) =    -0.15731634440845D+03

 The electronic state is 1-A.
 Alpha  occ. eigenvalues --  -10.62801 -10.62043 -10.61121 -10.58408  -0.97161
 Alpha  occ. eigenvalues --   -0.88892  -0.78610  -0.75295  -0.57112  -0.50986
 Alpha  occ. eigenvalues --   -0.47438  -0.45253  -0.42486  -0.40042  -0.39903
 Alpha  occ. eigenvalues --   -0.37717  -0.32812
 Alpha virt. eigenvalues --    0.01265   0.04535   0.05909   0.07167   0.09815
 Alpha virt. eigenvalues --    0.10471   0.12036   0.13492   0.14077   0.14848
 Alpha virt. eigenvalues --    0.15415   0.16244   0.18478   0.19906   0.20312

 Mulliken charges:
               1
     1  C   -0.608856
     2  C   -0.594987
     3  H    0.028028
     4  H    0.031268
     5  H    0.495624
     6  C   -0.099506
     7  H    0.546408
     8  H    0.072358
     9  C   -0.550958
    10  H    0.022104
    11  H    0.164381
    12  H    0.017815
    13  H    0.411347
    14  H    0.064974
 Sum of Mulliken charges =   0.00000

 Dipole moment (field-independent basis, Debye):
    X=              1.0425    Y=              0.4212    Z=              0.1794  Tot=              1.1386
 Quadrupole moment (field-independent basis, Debye-Ang):
   XX=            -31.3770   YY=            -28.8928   ZZ=            -27.8600
   XY=             -0.1530   XZ=             -1.3214   YZ=             -0.4381

 Normal termination of Gaussian 09 at Wed Aug 26 19:22:07 2020.
