 Gaussian 09, Revision D.01,
 Gaussian 09:  ES64L-G09RevD.01 24-Apr-2013

 --------------------
 #p B2PLYPD3/Def2QZVP
 --------------------

 ----------
 butane_opt
 ----------
 Symbolic Z-matrix:
 Charge =  0 Multiplicity = 1

                         Standard orientation:
 ---------------------------------------------------------------------
 Center     Atomic      Atomic             Coordinates (Angstroms)
 Number     Number       Type             X           Y           Z
 ---------------------------------------------------------------------
      1          6           0       -1.968187   -0.140026    0.087992
      2          6           0       -0.605257    0.601984   -0.172144
      3          1           0       -2.623933    0.565542   -0.335069
      4          1           0       -2.455188   -0.980740    1.280997
      5          1           0       -2.290167   -0.521004   -0.598695
      6          6           0        0.610109   -0.551416    0.040574
      7          1           0       -0.435268    1.059949    0.346890
      8          1           0       -0.444735    1.259435   -1.044977
      9          6           0        1.981006    0.132154    0.091514
     10          1           0        0.835207   -1.484096   -0.963809
     11          1           0        0.297002   -1.008680    0.828286
     12          1           0        1.836855    0.283686   -0.417522
     13          1           0        2.845090   -0.822350   -0.679767
     14          1           0        2.329111    1.392079    1.296044
 ---------------------------------------------------------------------

 SCF Done:  E(RB2PLYPD3) =  -156.823304815     A.U. after   13 cycles
 E2(B2PLYPD3) =    -0.2608988931D+00 E(B2PLYPD3) =    -0.15708420370797D+03

 The electronic state is 1-A.
 Alpha  occ. eigenvalues --  -10.65891 -10.63987 -10.61654 -10.60028  -0.95944
 Alpha  occ. eigenvalues --   -0.90359  -0.81055  -0.71811  -0.52228  -0.50290
 Alpha  occ. eigenvalues --   -0.46651  -0.44355  -0.42489  -0.41922  -0.39639
 Alpha  occ. eigenvalues --   -0.35359  -0.32252
 Alpha virt. eigenvalues --   -0.01335   0.03155   0.03270   0.06938   0.09473
 Alpha virt. eigenvalues --    0.10270   0.12130   0.12449   0.13722   0.15412
 Alpha virt. eigenvalues --    0.15645   0.15923   0.16828   0.18714   0.19863

 Mulliken charges:
               1
     1  C   -0.244514
     2  C   -0.490468
     3  H    0.033895
     4  H    0.054232
     5  H    0.163930
     6  C    0.002090
     7  H    0.434124
     8  H    0.051949
     9  C   -1.014755
    10  H    0.002921
    11  H    0.096972
    12  H    0.854113
    13  H    0.022967
    14  H    0.032545
 Sum of Mulliken charges =   0.00000

 Dipole moment (field-independent basis, Debye):
    X=             -1.1926    Y=              0.3786    Z=             -0.6295  Tot=              1.4006
 Quadrupole moment (field-independent basis, Debye-Ang):
   XX=            -32.4682   YY=            -28.5364   ZZ=            -28.0509
   XY=              0.7316   XZ=              0.0470   YZ=             -0.0073

 Normal termination of Gaussian 09 at Wed Aug 26 19:44:51 2020.
