 Gaussian 09, Revision D.01,
 Gaussian 09:  ES64L-G09RevD.01 24-Apr-2013

 --------------------
 #p B2PLYPD3/Def2QZVP
 --------------------

 ----------
 butane_opt
 ----------
 Symbolic Z-matrix:
 Charge =  0 Multiplicity = 1

                         Standard orientation:
 ---------------------------------------------------------------------
 Center     Atomic      Atomic             Coordinates (Angstroms)
 Number     Number       Type             X           Y           Z
 ---------------------------------------------------------------------
      1          6           0       -1.966713   -0.171549   -0.070688
      2          6           0       -0.547314    0.571702    0.090695
      3          1           0       -2.789882    0.599258   -0.171918
      4          1           0       -2.415496   -0.609618    0.738850
      5          1           0       -1.902417   -0.850975   -1.005379
      6          6           0        0.601129   -0.518152    0.128253
      7          1           0       -0.472539    1.236807    0.898580
      8          1           0       -0.276259    1.260064   -0.756865
      9          6           0        1.904388    0.081157   -0.097590
     10          1           0        0.332182   -1.140072   -0.684455
     11          1           0        0.672640   -1.195744    1.090964
     12          1           0        1.940373    0.762591   -0.981282
     13          1           0        2.738252   -0.665705   -0.273287
     14          1           0        2.224210    0.824445    0.840774
 ---------------------------------------------------------------------

 SCF Done:  E(RB2PLYPD3) =  -158.082604777     A.U. after   11 cycles
 E2(B2PLYPD3) =    -0.2481854282D+00 E(B2PLYPD3) =    -0.15833079020536D+03

 The electronic state is 1-A.
 Alpha  occ. eigenvalues --  -10.61556 -10.61470 -10.61003 -10.60876  -0.90550
 Alpha  occ. eigenvalues --   -0.82374  -0.72400  -0.66559  -0.53723  -0.49068
 Alpha  occ. eigenvalues --   -0.47797  -0.47074  -0.42089  -0.40334  -0.40225
 Alpha  occ. eigenvalues --   -0.37255  -0.36088
 Alpha virt. eigenvalues --    0.05683   0.06613   0.07992   0.08775   0.10684
 Alpha virt. eigenvalues --    0.11747   0.12792   0.13569   0.14629   0.15257
 Alpha virt. eigenvalues --    0.15847   0.16469   0.18930   0.20193   0.21362

 Mulliken charges:
               1
     1  C   -0.143144
     2  C   -0.045948
     3  H    0.022561
     4  H    0.052479
     5  H    0.045571
     6  C   -0.034647
     7  H    0.041512
     8  H    0.032987
     9  C   -0.150809
    10  H    0.044368
    11  H    0.025987
    12  H    0.036039
    13  H    0.047853
    14  H    0.025190
 Sum of Mulliken charges =   0.00000

 Dipole moment (field-independent basis, Debye):
    X=             -0.1460    Y=             -0.0004    Z=             -0.0323  Tot=              0.1496
 Quadrupole moment (field-independent basis, Debye-Ang):
   XX=            -29.6752   YY=            -28.9718   ZZ=            -28.6395
   XY=             -0.2419   XZ=             -0.8719   YZ=              0.2803

 Normal termination of Gaussian 09 at Wed Aug 26 21:08:32 2020.
