 Gaussian 09, Revision D.01,
 Gaussian 09:  ES64L-G09RevD.01 24-Apr-2013

 --------------------
 #p B2PLYPD3/Def2QZVP
 --------------------

 ----------
 butane_opt
 ----------
 Symbolic Z-matrix:
 Charge =  0 Multiplicity = 1

                         Standard orientation:
 ---------------------------------------------------------------------
 Center     Atomic      Atomic             Coordinates (Angstroms)
 Number     Number       Type             X           Y           Z
 ---------------------------------------------------------------------
      1          6           0        1.887507    0.040155    0.070753
      2          6           0        0.530913   -0.394997   -0.111900
      3          1           0        2.795119   -0.846275   -0.595071
      4          1           0        2.094153    1.089014    1.428593
      5          1           0        1.895458    0.329272   -0.453157
      6          6           0       -0.475002    0.581815   -0.116053
      7          1           0        0.553146   -1.410577    0.887145
      8          1           0        0.328306   -0.952888   -0.861439
      9          6           0       -1.954059   -0.169788    0.073307
     10          1           0       -0.565698    1.451410   -1.092921
     11          1           0       -0.370908    1.163035    0.726187
     12          1           0       -2.122859   -0.559420   -0.746587
     13          1           0       -2.504465    0.315255    0.127788
     14          1           0       -2.038406   -0.921937    1.082822
 ---------------------------------------------------------------------

 SCF Done:  E(RB2PLYPD3) =  -157.169176140     A.U. after   12 cycles
 E2(B2PLYPD3) =    -0.2566196528D+00 E(B2PLYPD3) =    -0.15742579579242D+03

 The electronic state is 1-A.
 Alpha  occ. eigenvalues --  -10.63767 -10.62883 -10.61692 -10.57064  -0.97529
 Alpha  occ. eigenvalues --   -0.88886  -0.80575  -0.68117  -0.56710  -0.51712
 Alpha  occ. eigenvalues --   -0.48971  -0.48747  -0.41962  -0.40590  -0.38157
 Alpha  occ. eigenvalues --   -0.36173  -0.32340
 Alpha virt. eigenvalues --   -0.00425   0.05080   0.05636   0.06294   0.09360
 Alpha virt. eigenvalues --    0.10415   0.12231   0.13192   0.13576   0.14900
 Alpha virt. eigenvalues --    0.15463   0.17032   0.17441   0.19984   0.21186

 Mulliken charges:
               1
     1  C   -0.871574
     2  C    0.020757
     3  H    0.035430
     4  H    0.026015
     5  H    0.722706
     6  C   -0.037033
     7  H   -0.016397
     8  H    0.073443
     9  C   -0.430482
    10  H    0.006381
    11  H    0.054805
    12  H    0.053107
    13  H    0.311318
    14  H    0.051524
 Sum of Mulliken charges =   0.00000

 Dipole moment (field-independent basis, Debye):
    X=             -0.8257    Y=              0.4942    Z=             -0.8979  Tot=              1.3161
 Quadrupole moment (field-independent basis, Debye-Ang):
   XX=            -30.7150   YY=            -29.6045   ZZ=            -27.9006
   XY=             -0.2654   XZ=             -0.9291   YZ=              0.9059

 Normal termination of Gaussian 09 at Wed Aug 26 09:52:41 2020.
