 Gaussian 09, Revision D.01,
 Gaussian 09:  ES64L-G09RevD.01 24-Apr-2013

 --------------------
 #p B2PLYPD3/Def2QZVP
 --------------------

 ----------
 butane_opt
 ----------
 Symbolic Z-matrix:
 Charge =  0 Multiplicity = 1

                         Standard orientation:
 ---------------------------------------------------------------------
 Center     Atomic      Atomic             Coordinates (Angstroms)
 Number     Number       Type             X           Y           Z
 ---------------------------------------------------------------------
      1          6           0       -1.908286    0.066292   -0.187976
      2          6           0       -0.582996   -0.463075    0.100523
      3          1           0       -2.761441   -0.682319    0.206285
      4          1           0       -2.312379    0.820428   -1.220260
      5          1           0       -2.000739    0.531227    0.610462
      6          6           0        0.493236    0.604195    0.206228
      7          1           0       -0.342897   -0.920086   -0.632711
      8          1           0       -0.769914   -1.321746    0.985094
      9          6           0        2.007382   -0.150520   -0.108511
     10          1           0        0.345345    1.449029    1.219152
     11          1           0        0.568831    0.815940   -0.422901
     12          1           0        2.454586   -0.848213    0.779567
     13          1           0        2.770947    0.505390   -0.677416
     14          1           0        1.991649   -0.691001   -0.908857
 ---------------------------------------------------------------------

 SCF Done:  E(RB2PLYPD3) =  -157.610561064     A.U. after   11 cycles
 E2(B2PLYPD3) =    -0.2516526597D+00 E(B2PLYPD3) =    -0.15786221372367D+03

 The electronic state is 1-A.
 Alpha  occ. eigenvalues --  -10.61705 -10.60922 -10.60605 -10.59916  -0.95236
 Alpha  occ. eigenvalues --   -0.85668  -0.75844  -0.70341  -0.55532  -0.48824
 Alpha  occ. eigenvalues --   -0.48322  -0.45904  -0.43677  -0.40470  -0.38393
 Alpha  occ. eigenvalues --   -0.36513  -0.35934
 Alpha virt. eigenvalues --    0.05143   0.06101   0.07324   0.08062   0.10900
 Alpha virt. eigenvalues --    0.11169   0.11993   0.13601   0.14450   0.14969
 Alpha virt. eigenvalues --    0.15873   0.16987   0.18299   0.19200   0.20718

 Mulliken charges:
               1
     1  C   -0.212614
     2  C   -0.046045
     3  H    0.024216
     4  H    0.039368
     5  H    0.102645
     6  C   -0.740941
     7  H    0.118535
     8  H    0.022027
     9  C   -0.174264
    10  H    0.059662
    11  H    0.659682
    12  H    0.047095
    13  H    0.025807
    14  H    0.074828
 Sum of Mulliken charges =   0.00000

 Dipole moment (field-independent basis, Debye):
    X=             -0.0392    Y=             -0.0644    Z=             -0.3069  Tot=              0.3160
 Quadrupole moment (field-independent basis, Debye-Ang):
   XX=            -30.4783   YY=            -29.2856   ZZ=            -27.5020
   XY=             -0.5456   XZ=             -2.1354   YZ=             -0.4990

 Normal termination of Gaussian 09 at Wed Aug 26 10:57:51 2020.
