 Gaussian 09, Revision D.01,
 Gaussian 09:  ES64L-G09RevD.01 24-Apr-2013

 --------------------
 #p B2PLYPD3/Def2QZVP
 --------------------

 ----------
 butane_opt
 ----------
 Symbolic Z-matrix:
 Charge =  0 Multiplicity = 1

                         Standard orientation:
 ---------------------------------------------------------------------
 Center     Atomic      Atomic             Coordinates (Angstroms)
 Number     Number       Type             X           Y           Z
 ---------------------------------------------------------------------
      1          6           0       -1.847186   -0.069119   -0.131514
      2          6           0       -0.547294    0.383557    0.327735
      3          1           0       -2.642428    0.989508   -0.794160
      4          1           0       -2.609548   -1.128040    0.831936
      5          1           0       -1.406834   -0.302857   -0.955187
      6          6           0        0.470062   -0.509435   -0.027350
      7          1           0       -0.392606    0.747175    1.285453
      8          1           0       -0.653338    1.255934   -0.344459
      9          6           0        1.970051    0.108258   -0.030933
     10          1           0        0.185973   -0.868311   -0.956958
     11          1           0        0.454910   -1.236625    0.490640
     12          1           0        1.944876    1.113197   -0.778464
     13          1           0        2.729325   -0.532571   -0.479680
     14          1           0        2.115866    0.483026    0.873254
 ---------------------------------------------------------------------

 SCF Done:  E(RB2PLYPD3) =  -157.855799864     A.U. after   12 cycles
 E2(B2PLYPD3) =    -0.2536840382D+00 E(B2PLYPD3) =    -0.15810948390245D+03

 The electronic state is 1-A.
 Alpha  occ. eigenvalues --  -10.66091 -10.61597 -10.59724 -10.57881  -0.97212
 Alpha  occ. eigenvalues --   -0.84318  -0.74348  -0.68654  -0.56682  -0.51818
 Alpha  occ. eigenvalues --   -0.48761  -0.46312  -0.43896  -0.40539  -0.39756
 Alpha  occ. eigenvalues --   -0.37422  -0.32464
 Alpha virt. eigenvalues --    0.01972   0.05605   0.06260   0.08225   0.10099
 Alpha virt. eigenvalues --    0.10412   0.12308   0.12816   0.14281   0.14764
 Alpha virt. eigenvalues --    0.16067   0.17376   0.17965   0.19481   0.20795

 Mulliken charges:
               1
     1  C   -0.209684
     2  C   -0.017493
     3  H    0.006572
     4  H    0.004544
     5  H    0.128080
     6  C   -0.084118
     7  H    0.036098
     8  H    0.051677
     9  C   -0.168228
    10  H    0.024541
    11  H    0.079521
    12  H    0.010241
    13  H    0.061744
    14  H    0.076506
 Sum of Mulliken charges =   0.00000

 Dipole moment (field-independent basis, Debye):
    X=              1.0145    Y=             -0.0033    Z=             -0.0811  Tot=              1.0178
 Quadrupole moment (field-independent basis, Debye-Ang):
   XX=            -33.1474   YY=            -29.4799   ZZ=            -28.2224
   XY=             -0.9897   XZ=              0.5147   YZ=             -0.5185

 Normal termination of Gaussian 09 at Wed Aug 26 12:41:49 2020.
