 Gaussian 09, Revision D.01,
 Gaussian 09:  ES64L-G09RevD.01 24-Apr-2013

 --------------------
 #p B2PLYPD3/Def2QZVP
 --------------------

 ----------
 butane_opt
 ----------
 Symbolic Z-matrix:
 Charge =  0 Multiplicity = 1

                         Standard orientation:
 ---------------------------------------------------------------------
 Center     Atomic      Atomic             Coordinates (Angstroms)
 Number     Number       Type             X           Y           Z
 ---------------------------------------------------------------------
      1          6           0       -2.004229   -0.146213   -0.098089
      2          6           0       -0.588513    0.514943    0.106098
      3          1           0       -2.597495    0.405924   -0.259868
      4          1           0       -2.367092   -0.252815    0.492567
      5          1           0       -2.169971   -1.295321   -1.134878
      6          6           0        0.613000   -0.422232    0.381974
      7          1           0       -0.333642    1.317362    0.772119
      8          1           0       -0.414470    1.131644   -0.903511
      9          6           0        1.966093    0.087199   -0.241935
     10          1           0        0.386035   -0.791925   -0.213363
     11          1           0        0.553948   -1.017219    1.426692
     12          1           0        1.657313    0.365089   -0.939498
     13          1           0        2.906555   -0.982541   -0.625706
     14          1           0        2.460713    0.917620    0.497154
 ---------------------------------------------------------------------

 SCF Done:  E(RB2PLYPD3) =  -157.373070396     A.U. after   11 cycles
 E2(B2PLYPD3) =    -0.2518568752D+00 E(B2PLYPD3) =    -0.15762492727155D+03

 The electronic state is 1-A.
 Alpha  occ. eigenvalues --  -10.62969 -10.62219 -10.58701 -10.57965  -0.95688
 Alpha  occ. eigenvalues --   -0.91555  -0.78420  -0.69956  -0.56146  -0.51333
 Alpha  occ. eigenvalues --   -0.50332  -0.45200  -0.43167  -0.40709  -0.38894
 Alpha  occ. eigenvalues --   -0.37718  -0.34170
 Alpha virt. eigenvalues --    0.03815   0.04784   0.07530   0.08057   0.09697
 Alpha virt. eigenvalues --    0.11098   0.12075   0.13570   0.14188   0.15151
 Alpha virt. eigenvalues --    0.16293   0.16394   0.18272   0.19215   0.20900

 Mulliken charges:
               1
     1  C   -0.535279
     2  C   -0.007001
     3  H    0.129659
     4  H    0.348263
     5  H    0.022138
     6  C   -0.562696
     7  H    0.033800
     8  H    0.005976
     9  C   -0.333895
    10  H    0.519655
    11  H    0.054159
    12  H    0.258779
    13  H    0.014332
    14  H    0.052111
 Sum of Mulliken charges =   0.00000

 Dipole moment (field-independent basis, Debye):
    X=             -0.8949    Y=              0.4828    Z=              0.1658  Tot=              1.0303
 Quadrupole moment (field-independent basis, Debye-Ang):
   XX=            -29.0650   YY=            -29.1774   ZZ=            -28.2962
   XY=             -0.2062   XZ=             -0.4743   YZ=              0.5291

 Normal termination of Gaussian 09 at Wed Aug 26 14:33:09 2020.
