 Gaussian 09, Revision D.01,
 Gaussian 09:  ES64L-G09RevD.01 24-Apr-2013

 --------------------
 #p B2PLYPD3/Def2QZVP
 --------------------

 ----------
 butane_opt
 ----------
 Symbolic Z-matrix:
 Charge =  0 Multiplicity = 1

                         Standard orientation:
 ---------------------------------------------------------------------
 Center     Atomic      Atomic             Coordinates (Angstroms)
 Number     Number       Type             X           Y           Z
 ---------------------------------------------------------------------
      1          6           0        2.053855   -0.149534   -0.084505
      2          6           0        0.490090    0.513661    0.127291
      3          1           0        2.858085    0.678575   -0.523840
      4          1           0        2.029213   -0.697761   -1.003953
      5          1           0        2.389110   -0.924406    0.942260
      6          6           0       -0.622798   -0.482910    0.012595
      7          1           0        0.359824    1.033591   -0.596093
      8          1           0        0.632425    1.488478    1.246968
      9          6           0       -1.971415    0.064705   -0.057944
     10          1           0       -0.494011   -1.298620    0.999187
     11          1           0       -0.662013   -0.947920   -0.571691
     12          1           0       -2.225111    0.621936    0.773805
     13          1           0       -2.680414   -0.626928   -0.245879
     14          1           0       -1.905498    0.997522   -1.005380
 ---------------------------------------------------------------------

 SCF Done:  E(RB2PLYPD3) =  -157.776408910     A.U. after   11 cycles
 E2(B2PLYPD3) =    -0.2516065240D+00 E(B2PLYPD3) =    -0.15802801543388D+03

 The electronic state is 1-A.
 Alpha  occ. eigenvalues --  -10.64869 -10.63645 -10.60769 -10.59085  -0.94524
 Alpha  occ. eigenvalues --   -0.82486  -0.73512  -0.70465  -0.55730  -0.50984
 Alpha  occ. eigenvalues --   -0.46371  -0.45311  -0.44340  -0.40481  -0.38578
 Alpha  occ. eigenvalues --   -0.36127  -0.34914
 Alpha virt. eigenvalues --    0.04166   0.06032   0.07128   0.07581   0.10469
 Alpha virt. eigenvalues --    0.11064   0.11834   0.12715   0.13787   0.14603
 Alpha virt. eigenvalues --    0.15300   0.16581   0.18437   0.19397   0.20126

 Mulliken charges:
               1
     1  C   -0.175877
     2  C   -0.097930
     3  H    0.042127
     4  H    0.054764
     5  H    0.052615
     6  C   -0.374773
     7  H    0.143505
     8  H    0.002652
     9  C   -0.116085
    10  H    0.004651
    11  H    0.345389
    12  H    0.066385
    13  H    0.062601
    14  H   -0.010022
 Sum of Mulliken charges =   0.00000

 Dipole moment (field-independent basis, Debye):
    X=             -0.2976    Y=             -0.3088    Z=             -0.6749  Tot=              0.7996
 Quadrupole moment (field-independent basis, Debye-Ang):
   XX=            -29.9319   YY=            -29.5509   ZZ=            -28.8444
   XY=              0.8660   XZ=             -0.9517   YZ=             -0.1065

 Normal termination of Gaussian 09 at Wed Aug 26 13:45:05 2020.
