 Gaussian 09, Revision D.01,
 Gaussian 09:  ES64L-G09RevD.01 24-Apr-2013

 --------------------
 #p B2PLYPD3/Def2QZVP
 --------------------

 ----------
 butane_opt
 ----------
 Symbolic Z-matrix:
 Charge =  0 Multiplicity = 1

                         Standard orientation:
 ---------------------------------------------------------------------
 Center     Atomic      Atomic             Coordinates (Angstroms)
 Number     Number       Type             X           Y           Z
 ---------------------------------------------------------------------
      1          6           0       -1.886138    0.056841    0.100206
      2          6           0       -0.577025   -0.457070   -0.205064
      3          1           0       -2.642096   -0.719572    0.407791
      4          1           0       -2.339077    0.933883   -0.744822
      5          1           0       -1.739879    0.535029    0.939542
      6          6           0        0.476326    0.543931   -0.038181
      7          1           0       -0.495043   -1.111349   -1.111044
      8          1           0       -0.442009   -1.074909    0.608605
      9          6           0        1.972212   -0.120009    0.060824
     10          1           0        0.444017    1.147544    0.888808
     11          1           0        0.364599    1.232138   -0.804439
     12          1           0        1.938970   -1.072434    1.025162
     13          1           0        2.722617    0.591317    0.096863
     14          1           0        2.275653   -0.603805   -0.813173
 ---------------------------------------------------------------------

 SCF Done:  E(RB2PLYPD3) =  -158.032554162     A.U. after   11 cycles
 E2(B2PLYPD3) =    -0.2481567114D+00 E(B2PLYPD3) =    -0.15828071087376D+03

 The electronic state is 1-A.
 Alpha  occ. eigenvalues --  -10.61925 -10.60584 -10.60288 -10.59108  -0.93457
 Alpha  occ. eigenvalues --   -0.82846  -0.73483  -0.67202  -0.55094  -0.50368
 Alpha  occ. eigenvalues --   -0.49308  -0.45925  -0.43160  -0.39816  -0.39159
 Alpha  occ. eigenvalues --   -0.37775  -0.36557
 Alpha virt. eigenvalues --    0.05444   0.06399   0.08062   0.08537   0.10813
 Alpha virt. eigenvalues --    0.11565   0.12514   0.13681   0.14140   0.15032
 Alpha virt. eigenvalues --    0.15774   0.16487   0.19527   0.19893   0.21363

 Mulliken charges:
               1
     1  C   -0.157803
     2  C   -0.039501
     3  H    0.043162
     4  H    0.007823
     5  H    0.071957
     6  C   -0.042455
     7  H    0.036151
     8  H    0.046589
     9  C   -0.151724
    10  H    0.028493
    11  H    0.038084
    12  H    0.017910
    13  H    0.057826
    14  H    0.043487
 Sum of Mulliken charges =   0.00000

 Dipole moment (field-independent basis, Debye):
    X=              0.1836    Y=              0.0368    Z=              0.0779  Tot=              0.2028
 Quadrupole moment (field-independent basis, Debye-Ang):
   XX=            -30.3714   YY=            -28.8743   ZZ=            -28.4332
   XY=              1.0666   XZ=             -1.3627   YZ=             -0.2277

 Normal termination of Gaussian 09 at Wed Aug 26 22:19:31 2020.
