 Gaussian 09, Revision D.01,
 Gaussian 09:  ES64L-G09RevD.01 24-Apr-2013

 --------------------
 #p B2PLYPD3/Def2QZVP
 --------------------

 ----------
 butane_opt
 ----------
 Symbolic Z-matrix:
 Charge =  0 Multiplicity = 1

                         Standard orientation:
 ---------------------------------------------------------------------
 Center     Atomic      Atomic             Coordinates (Angstroms)
 Number     Number       Type             X           Y           Z
 ---------------------------------------------------------------------
      1          6           0       -1.916796   -0.153797   -0.103450
      2          6           0       -0.539448    0.536860    0.062182
      3          1           0       -2.764260    0.530846   -0.109034
      4          1           0       -2.145631   -0.430849    0.510473
      5          1           0       -2.265133   -1.271810   -1.113125
      6          6           0        0.520204   -0.355481    0.288572
      7          1           0       -0.627723    1.391964    0.810148
      8          1           0       -0.264228    0.929922   -0.840554
      9          6           0        1.950985    0.034999   -0.244460
     10          1           0        0.416872   -0.907340   -0.265910
     11          1           0        0.608173   -1.250268    1.639883
     12          1           0        1.905841    0.397121   -1.000172
     13          1           0        2.871279   -0.975247   -0.305807
     14          1           0        2.175144    1.210170    0.657036
 ---------------------------------------------------------------------

 SCF Done:  E(RB2PLYPD3) =  -157.485949518     A.U. after   12 cycles
 E2(B2PLYPD3) =    -0.2545619376D+00 E(B2PLYPD3) =    -0.15774051145572D+03

 The electronic state is 1-A.
 Alpha  occ. eigenvalues --  -10.64832 -10.62115 -10.61790 -10.60774  -0.96769
 Alpha  occ. eigenvalues --   -0.87565  -0.78622  -0.70865  -0.55340  -0.51960
 Alpha  occ. eigenvalues --   -0.50372  -0.45856  -0.44498  -0.40697  -0.37818
 Alpha  occ. eigenvalues --   -0.35156  -0.34103
 Alpha virt. eigenvalues --    0.02643   0.03982   0.05392   0.07158   0.08963
 Alpha virt. eigenvalues --    0.10522   0.11978   0.12066   0.13422   0.14675
 Alpha virt. eigenvalues --    0.15125   0.16360   0.18412   0.19404   0.19932

 Mulliken charges:
               1
     1  C   -0.519204
     2  C    0.028202
     3  H    0.053692
     4  H    0.385418
     5  H    0.007437
     6  C   -0.320268
     7  H    0.035576
     8  H    0.065479
     9  C   -0.308827
    10  H    0.349468
    11  H   -0.035549
    12  H    0.200381
    13  H    0.060230
    14  H   -0.002035
 Sum of Mulliken charges =   0.00000

 Dipole moment (field-independent basis, Debye):
    X=             -0.5510    Y=              0.2878    Z=             -0.7085  Tot=              0.9426
 Quadrupole moment (field-independent basis, Debye-Ang):
   XX=            -30.4510   YY=            -29.6369   ZZ=            -29.7403
   XY=             -1.7291   XZ=             -2.9143   YZ=              0.8875

 Normal termination of Gaussian 09 at Wed Aug 26 18:46:09 2020.
