 Gaussian 09, Revision D.01,
 Gaussian 09:  ES64L-G09RevD.01 24-Apr-2013

 --------------------
 #p B2PLYPD3/Def2QZVP
 --------------------

 ----------
 butane_opt
 ----------
 Symbolic Z-matrix:
 Charge =  0 Multiplicity = 1

                         Standard orientation:
 ---------------------------------------------------------------------
 Center     Atomic      Atomic             Coordinates (Angstroms)
 Number     Number       Type             X           Y           Z
 ---------------------------------------------------------------------
      1          6           0       -2.002734   -0.152973   -0.170978
      2          6           0       -0.509696    0.620110    0.197407
      3          1           0       -2.750206    0.740610   -0.216176
      4          1           0       -2.357696   -0.815283    0.752091
      5          1           0       -2.060371   -1.013903   -1.134340
      6          6           0        0.672334   -0.522735    0.108952
      7          1           0       -0.507376    1.404295    1.138239
      8          1           0       -0.281617    0.990449   -0.634307
      9          6           0        1.861818    0.108878   -0.154559
     10          1           0        0.487022   -0.912647   -0.455050
     11          1           0        0.473381   -1.416310    1.154176
     12          1           0        2.198906    0.909991   -1.038462
     13          1           0        2.688451   -0.717464   -0.071949
     14          1           0        1.979177    0.510584    0.620849
 ---------------------------------------------------------------------

 SCF Done:  E(RB2PLYPD3) =  -157.702374115     A.U. after   11 cycles
 E2(B2PLYPD3) =    -0.2522844227D+00 E(B2PLYPD3) =    -0.15795465853734D+03

 The electronic state is 1-A.
 Alpha  occ. eigenvalues --  -10.64809 -10.62264 -10.59184 -10.58699  -0.95126
 Alpha  occ. eigenvalues --   -0.81844  -0.74468  -0.69540  -0.53780  -0.49421
 Alpha  occ. eigenvalues --   -0.48108  -0.45765  -0.43779  -0.39948  -0.39225
 Alpha  occ. eigenvalues --   -0.37702  -0.32892
 Alpha virt. eigenvalues --    0.04894   0.06093   0.06650   0.08189   0.11151
 Alpha virt. eigenvalues --    0.11338   0.12091   0.13759   0.14264   0.14494
 Alpha virt. eigenvalues --    0.15347   0.15801   0.18420   0.19636   0.20993

 Mulliken charges:
               1
     1  C   -0.191187
     2  C   -0.125504
     3  H    0.059671
     4  H    0.042891
     5  H    0.040947
     6  C   -0.483175
     7  H    0.043729
     8  H    0.132932
     9  C   -0.182477
    10  H    0.445745
    11  H    0.014828
    12  H    0.046332
    13  H    0.029049
    14  H    0.126219
 Sum of Mulliken charges =   0.00000

 Dipole moment (field-independent basis, Debye):
    X=              0.2122    Y=              0.2959    Z=             -0.1579  Tot=              0.3969
 Quadrupole moment (field-independent basis, Debye-Ang):
   XX=            -30.4405   YY=            -28.4468   ZZ=            -28.6690
   XY=              0.4332   XZ=             -0.4149   YZ=              0.4900

 Normal termination of Gaussian 09 at Wed Aug 26 23:12:14 2020.
