 Gaussian 09, Revision D.01,
 Gaussian 09:  ES64L-G09RevD.01 24-Apr-2013

 --------------------
 #p B2PLYPD3/Def2QZVP
 --------------------

 ----------
 butane_opt
 ----------
 Symbolic Z-matrix:
 Charge =  0 Multiplicity = 1

                         Standard orientation:
 ---------------------------------------------------------------------
 Center     Atomic      Atomic             Coordinates (Angstroms)
 Number     Number       Type             X           Y           Z
 ---------------------------------------------------------------------
      1          6           0       -1.985627    0.074727   -0.125557
      2          6           0       -0.599363   -0.437270    0.074416
      3          1           0       -2.932794   -0.881638   -0.152313
      4          1           0       -1.544526    1.042743   -1.305935
      5          1           0       -2.176088    0.568171    0.687754
      6          6           0        0.590207    0.573584    0.190167
      7          1           0       -0.502748   -0.972898   -0.693656
      8          1           0       -0.765186   -1.296147    1.081694
      9          6           0        2.023440   -0.201105   -0.129466
     10          1           0        0.373259    1.713758    1.379793
     11          1           0        0.407685    0.922982   -0.362876
     12          1           0        2.538095   -1.214287    0.870344
     13          1           0        2.653979    0.537818   -0.705486
     14          1           0        1.776383   -0.480117   -0.856682
 ---------------------------------------------------------------------

 SCF Done:  E(RB2PLYPD3) =  -157.425808494     A.U. after   12 cycles
 E2(B2PLYPD3) =    -0.2586337419D+00 E(B2PLYPD3) =    -0.15768444223636D+03

 The electronic state is 1-A.
 Alpha  occ. eigenvalues --  -10.65935 -10.63905 -10.63531 -10.62401  -0.95295
 Alpha  occ. eigenvalues --   -0.86276  -0.78473  -0.68985  -0.53936  -0.48604
 Alpha  occ. eigenvalues --   -0.47668  -0.45525  -0.42396  -0.40603  -0.39165
 Alpha  occ. eigenvalues --   -0.35184  -0.33215
 Alpha virt. eigenvalues --    0.01617   0.03125   0.04402   0.06279   0.08764
 Alpha virt. eigenvalues --    0.09539   0.11194   0.11629   0.13046   0.14224
 Alpha virt. eigenvalues --    0.15948   0.16379   0.17045   0.18477   0.19868

 Mulliken charges:
               1
     1  C   -0.158913
     2  C   -0.035242
     3  H    0.052801
     4  H   -0.031849
     5  H    0.103862
     6  C   -0.646194
     7  H    0.110109
     8  H   -0.021917
     9  C   -0.363160
    10  H   -0.018997
    11  H    0.595512
    12  H    0.076678
    13  H    0.053764
    14  H    0.283545
 Sum of Mulliken charges =   0.00000

 Dipole moment (field-independent basis, Debye):
    X=              0.1356    Y=             -0.7575    Z=             -0.6258  Tot=              0.9918
 Quadrupole moment (field-independent basis, Debye-Ang):
   XX=            -30.2571   YY=            -30.5136   ZZ=            -29.6462
   XY=              0.8490   XZ=             -2.9323   YZ=             -0.6266

 Normal termination of Gaussian 09 at Wed Aug 26 21:51:15 2020.
