 Gaussian 09, Revision D.01,
 Gaussian 09:  ES64L-G09RevD.01 24-Apr-2013

 --------------------
 #p B2PLYPD3/Def2QZVP
 --------------------

 ----------
 butane_opt
 ----------
 Symbolic Z-matrix:
 Charge =  0 Multiplicity = 1

                         Standard orientation:
 ---------------------------------------------------------------------
 Center     Atomic      Atomic             Coordinates (Angstroms)
 Number     Number       Type             X           Y           Z
 ---------------------------------------------------------------------
      1          6           0        1.970211    0.022957   -0.127091
      2          6           0        0.588955   -0.450233    0.100387
      3          1           0        2.732013   -0.703376   -0.036871
      4          1           0        2.018126    0.572303    0.599647
      5          1           0        1.928002    0.815353   -1.229322
      6          6           0       -0.486496    0.591012    0.181016
      7          1           0        0.537813   -1.156469    1.160700
      8          1           0        0.505147   -0.741207   -0.482907
      9          6           0       -2.005000   -0.203979   -0.136990
     10          1           0       -0.476790    1.056734   -0.473247
     11          1           0       -0.360707    1.449296    1.080045
     12          1           0       -1.705552   -0.819408   -1.038077
     13          1           0       -2.958847    0.591813   -0.394765
     14          1           0       -2.625223   -0.823584    0.710862
 ---------------------------------------------------------------------

 SCF Done:  E(RB2PLYPD3) =  -157.570862278     A.U. after   11 cycles
 E2(B2PLYPD3) =    -0.2502698295D+00 E(B2PLYPD3) =    -0.15782113210794D+03

 The electronic state is 1-A.
 Alpha  occ. eigenvalues --  -10.65043 -10.60673 -10.59770 -10.58026  -0.96023
 Alpha  occ. eigenvalues --   -0.83420  -0.74509  -0.71579  -0.57046  -0.50499
 Alpha  occ. eigenvalues --   -0.48480  -0.45576  -0.42433  -0.40295  -0.39342
 Alpha  occ. eigenvalues --   -0.37491  -0.36082
 Alpha virt. eigenvalues --    0.05283   0.05981   0.07580   0.08487   0.10600
 Alpha virt. eigenvalues --    0.11155   0.12264   0.13426   0.14056   0.15219
 Alpha virt. eigenvalues --    0.15642   0.16048   0.17737   0.20077   0.21558

 Mulliken charges:
               1
     1  C   -0.154487
     2  C   -0.688652
     3  H    0.065523
     4  H    0.105814
     5  H    0.004700
     6  C   -0.216670
     7  H    0.039228
     8  H    0.606539
     9  C   -0.187024
    10  H    0.256593
    11  H    0.023373
    12  H    0.069598
    13  H    0.026038
    14  H    0.049428
 Sum of Mulliken charges =   0.00000

 Dipole moment (field-independent basis, Debye):
    X=              0.1766    Y=             -0.0641    Z=             -0.1131  Tot=              0.2193
 Quadrupole moment (field-independent basis, Debye-Ang):
   XX=            -29.4944   YY=            -29.0995   ZZ=            -28.5666
   XY=             -0.7196   XZ=              0.5959   YZ=             -0.0249

 Normal termination of Gaussian 09 at Wed Aug 26 21:59:15 2020.
