 Gaussian 09, Revision D.01,
 Gaussian 09:  ES64L-G09RevD.01 24-Apr-2013

 --------------------
 #p B2PLYPD3/Def2QZVP
 --------------------

 ----------
 butane_opt
 ----------
 Symbolic Z-matrix:
 Charge =  0 Multiplicity = 1

                         Standard orientation:
 ---------------------------------------------------------------------
 Center     Atomic      Atomic             Coordinates (Angstroms)
 Number     Number       Type             X           Y           Z
 ---------------------------------------------------------------------
      1          6           0       -2.037679   -0.194747   -0.163623
      2          6           0       -0.537470    0.564558    0.018991
      3          1           0       -2.791599    0.558160   -0.081112
      4          1           0       -2.340399   -0.549415    0.761451
      5          1           0       -1.993625   -0.970039   -0.886810
      6          6           0        0.591718   -0.464112    0.274422
      7          1           0       -0.605126    1.687825    1.053224
      8          1           0       -0.413252    0.924982   -0.751889
      9          6           0        1.982313    0.121283   -0.194585
     10          1           0        0.271983   -0.946783   -0.473466
     11          1           0        0.627239   -1.295822    1.462883
     12          1           0        1.879082    0.397970   -1.042682
     13          1           0        2.898247   -0.867612   -0.408583
     14          1           0        2.474153    0.898840    0.755748
 ---------------------------------------------------------------------

 SCF Done:  E(RB2PLYPD3) =  -157.818508113     A.U. after   11 cycles
 E2(B2PLYPD3) =    -0.2535222571D+00 E(B2PLYPD3) =    -0.15807203036983D+03

 The electronic state is 1-A.
 Alpha  occ. eigenvalues --  -10.63930 -10.63797 -10.63662 -10.60440  -0.92321
 Alpha  occ. eigenvalues --   -0.82970  -0.75466  -0.68377  -0.53908  -0.50885
 Alpha  occ. eigenvalues --   -0.48891  -0.45400  -0.41830  -0.40850  -0.37647
 Alpha  occ. eigenvalues --   -0.36398  -0.34225
 Alpha virt. eigenvalues --    0.03870   0.06095   0.06928   0.07223   0.09785
 Alpha virt. eigenvalues --    0.10276   0.11748   0.13243   0.14339   0.14584
 Alpha virt. eigenvalues --    0.15131   0.15817   0.18686   0.18904   0.20334

 Mulliken charges:
               1
     1  C   -0.132993
     2  C   -0.202157
     3  H    0.052597
     4  H    0.047499
     5  H    0.061059
     6  C   -0.111042
     7  H   -0.033760
     8  H    0.191466
     9  C   -0.216566
    10  H    0.125918
    11  H    0.026887
    12  H    0.120311
    13  H    0.010638
    14  H    0.060143
 Sum of Mulliken charges =   0.00000

 Dipole moment (field-independent basis, Debye):
    X=             -0.4189    Y=             -0.3572    Z=             -0.7704  Tot=              0.9469
 Quadrupole moment (field-independent basis, Debye-Ang):
   XX=            -30.2626   YY=            -30.5249   ZZ=            -28.4902
   XY=              0.4643   XZ=             -0.4710   YZ=              0.0845

 Normal termination of Gaussian 09 at Wed Aug 26 13:00:32 2020.
