 Gaussian 09, Revision D.01,
 Gaussian 09:  ES64L-G09RevD.01 24-Apr-2013

 --------------------
 #p B2PLYPD3/Def2QZVP
 --------------------

 ----------
 butane_opt
 ----------
 Symbolic Z-matrix:
 Charge =  0 Multiplicity = 1

                         Standard orientation:
 ---------------------------------------------------------------------
 Center     Atomic      Atomic             Coordinates (Angstroms)
 Number     Number       Type             X           Y           Z
 ---------------------------------------------------------------------
      1          6           0        1.977625   -0.153732    0.124823
      2          6           0        0.539873    0.577232   -0.226322
      3          1           0        2.603261    0.354521    0.735111
      4          1           0        2.464593   -0.772189   -0.866447
      5          1           0        1.754454   -0.806957    0.839609
      6          6           0       -0.605279   -0.441241   -0.148470
      7          1           0        0.560479    1.232058   -0.962045
      8          1           0       -0.000362    1.287276    0.729774
      9          6           0       -1.812199    0.043985    0.121163
     10          1           0       -0.394328   -1.016685    0.674037
     11          1           0       -0.841090   -1.032749   -0.960859
     12          1           0       -1.967295    0.648414    1.091921
     13          1           0       -2.719851   -0.661911    0.186198
     14          1           0       -2.059980    0.610752   -0.694466
 ---------------------------------------------------------------------

 SCF Done:  E(RB2PLYPD3) =  -157.988043839     A.U. after   11 cycles
 E2(B2PLYPD3) =    -0.2490101148D+00 E(B2PLYPD3) =    -0.15823705395347D+03

 The electronic state is 1-A.
 Alpha  occ. eigenvalues --  -10.62577 -10.60728 -10.58597 -10.57611  -0.94775
 Alpha  occ. eigenvalues --   -0.84010  -0.73797  -0.67661  -0.57213  -0.51593
 Alpha  occ. eigenvalues --   -0.49905  -0.46162  -0.42441  -0.41439  -0.37988
 Alpha  occ. eigenvalues --   -0.37455  -0.35366
 Alpha virt. eigenvalues --    0.05766   0.06705   0.08134   0.08802   0.10635
 Alpha virt. eigenvalues --    0.11784   0.12288   0.12852   0.14711   0.15813
 Alpha virt. eigenvalues --    0.16186   0.17094   0.19096   0.19477   0.20809

 Mulliken charges:
               1
     1  C   -0.160360
     2  C   -0.081379
     3  H    0.054826
     4  H    0.042557
     5  H    0.062531
     6  C   -0.005750
     7  H    0.071557
     8  H   -0.012256
     9  C   -0.134024
    10  H    0.049018
    11  H    0.026329
    12  H    0.019609
    13  H    0.024286
    14  H    0.043057
 Sum of Mulliken charges =   0.00000

 Dipole moment (field-independent basis, Debye):
    X=             -0.0827    Y=             -0.2897    Z=             -0.0534  Tot=              0.3059
 Quadrupole moment (field-independent basis, Debye-Ang):
   XX=            -29.3475   YY=            -29.7006   ZZ=            -27.6606
   XY=              0.0788   XZ=              0.6811   YZ=             -0.3373

 Normal termination of Gaussian 09 at Wed Aug 26 21:09:28 2020.
