 Gaussian 09, Revision D.01,
 Gaussian 09:  ES64L-G09RevD.01 24-Apr-2013

 --------------------
 #p B2PLYPD3/Def2QZVP
 --------------------

 ----------
 butane_opt
 ----------
 Symbolic Z-matrix:
 Charge =  0 Multiplicity = 1

                         Standard orientation:
 ---------------------------------------------------------------------
 Center     Atomic      Atomic             Coordinates (Angstroms)
 Number     Number       Type             X           Y           Z
 ---------------------------------------------------------------------
      1          6           0       -2.025211   -0.186970    0.113299
      2          6           0       -0.543476    0.603644   -0.194874
      3          1           0       -2.775926    0.405897    0.637766
      4          1           0       -1.679142   -0.781559    1.053060
      5          1           0       -2.703379   -0.795689   -0.779969
      6          6           0        0.549917   -0.440262   -0.111740
      7          1           0       -0.456504    0.966752    0.377406
      8          1           0       -0.397660    1.467136   -1.265804
      9          6           0        2.042618    0.071171    0.174433
     10          1           0        0.696949   -1.173825   -0.995610
     11          1           0        0.377594   -0.976897    0.556378
     12          1           0        2.078986    0.452036   -0.689974
     13          1           0        2.940685   -0.905561   -0.151483
     14          1           0        1.775316    1.056215    1.371517
 ---------------------------------------------------------------------

 SCF Done:  E(RB2PLYPD3) =  -157.587624350     A.U. after   11 cycles
 E2(B2PLYPD3) =    -0.2554205077D+00 E(B2PLYPD3) =    -0.15784304485780D+03

 The electronic state is 1-A.
 Alpha  occ. eigenvalues --  -10.65277 -10.64431 -10.61768 -10.59538  -0.93732
 Alpha  occ. eigenvalues --   -0.82958  -0.74147  -0.70864  -0.54303  -0.47778
 Alpha  occ. eigenvalues --   -0.46832  -0.45473  -0.41719  -0.39835  -0.38455
 Alpha  occ. eigenvalues --   -0.37413  -0.35122
 Alpha virt. eigenvalues --    0.01361   0.05516   0.06550   0.07582   0.10060
 Alpha virt. eigenvalues --    0.10937   0.11295   0.12669   0.13864   0.14565
 Alpha virt. eigenvalues --    0.15977   0.16133   0.17668   0.18566   0.19868

 Mulliken charges:
               1
     1  C   -0.150603
     2  C   -0.597447
     3  H    0.048481
     4  H    0.043248
     5  H    0.057242
     6  C   -0.059393
     7  H    0.526822
     8  H    0.027370
     9  C   -0.222003
    10  H    0.002742
    11  H    0.145360
    12  H    0.122580
    13  H    0.034308
    14  H    0.021296
 Sum of Mulliken charges =   0.00000

 Dipole moment (field-independent basis, Debye):
    X=             -0.4587    Y=             -0.1907    Z=              0.0313  Tot=              0.4977
 Quadrupole moment (field-independent basis, Debye-Ang):
   XX=            -30.7366   YY=            -29.9136   ZZ=            -28.6069
   XY=             -0.9978   XZ=             -2.1986   YZ=              0.8405

 Normal termination of Gaussian 09 at Wed Aug 26 23:35:24 2020.
