 Gaussian 09, Revision D.01,
 Gaussian 09:  ES64L-G09RevD.01 24-Apr-2013

 --------------------
 #p B2PLYPD3/Def2QZVP
 --------------------

 ----------
 butane_opt
 ----------
 Symbolic Z-matrix:
 Charge =  0 Multiplicity = 1

                         Standard orientation:
 ---------------------------------------------------------------------
 Center     Atomic      Atomic             Coordinates (Angstroms)
 Number     Number       Type             X           Y           Z
 ---------------------------------------------------------------------
      1          6           0        1.931167    0.120516    0.031634
      2          6           0        0.526838   -0.454486   -0.164202
      3          1           0        2.729497   -0.844734    0.452159
      4          1           0        1.851134    0.303359    0.687250
      5          1           0        2.170919    0.796703   -0.811244
      6          6           0       -0.514810    0.596731    0.052040
      7          1           0        0.494668   -1.190145    0.599424
      8          1           0        0.614477   -1.011077   -0.975711
      9          6           0       -1.949805   -0.164468   -0.003487
     10          1           0       -0.694283    1.051986   -0.617469
     11          1           0       -0.072537    1.326013    0.988847
     12          1           0       -2.057815   -0.538702   -0.650755
     13          1           0       -2.685018    0.574934   -0.150667
     14          1           0       -2.311377   -1.058096    0.982257
 ---------------------------------------------------------------------

 SCF Done:  E(RB2PLYPD3) =  -157.538079188     A.U. after   11 cycles
 E2(B2PLYPD3) =    -0.2487069187D+00 E(B2PLYPD3) =    -0.15778678610688D+03

 The electronic state is 1-A.
 Alpha  occ. eigenvalues --  -10.60703 -10.59531 -10.58275 -10.57769  -0.94442
 Alpha  occ. eigenvalues --   -0.88091  -0.78053  -0.71355  -0.57450  -0.52437
 Alpha  occ. eigenvalues --   -0.50457  -0.46876  -0.43304  -0.41346  -0.38818
 Alpha  occ. eigenvalues --   -0.37473  -0.35597
 Alpha virt. eigenvalues --    0.05065   0.06206   0.08153   0.08869   0.10790
 Alpha virt. eigenvalues --    0.11042   0.12418   0.14100   0.14541   0.14953
 Alpha virt. eigenvalues --    0.15778   0.16602   0.19038   0.19840   0.20481

 Mulliken charges:
               1
     1  C   -0.699499
     2  C    0.020818
     3  H    0.015525
     4  H    0.508625
     5  H    0.091603
     6  C   -0.197830
     7  H    0.035356
     8  H    0.037294
     9  C   -0.423125
    10  H    0.198008
    11  H    0.038066
    12  H    0.309127
    13  H    0.043093
    14  H    0.022940
 Sum of Mulliken charges =   0.00000

 Dipole moment (field-independent basis, Debye):
    X=             -0.3015    Y=              0.3372    Z=             -0.5713  Tot=              0.7287
 Quadrupole moment (field-independent basis, Debye-Ang):
   XX=            -31.0484   YY=            -28.2697   ZZ=            -27.5582
   XY=             -0.0062   XZ=              1.6889   YZ=             -0.6586

 Normal termination of Gaussian 09 at Wed Aug 26 21:32:08 2020.
