 Gaussian 09, Revision D.01,
 Gaussian 09:  ES64L-G09RevD.01 24-Apr-2013

 --------------------
 #p B2PLYPD3/Def2QZVP
 --------------------

 ----------
 butane_opt
 ----------
 Symbolic Z-matrix:
 Charge =  0 Multiplicity = 1

                         Standard orientation:
 ---------------------------------------------------------------------
 Center     Atomic      Atomic             Coordinates (Angstroms)
 Number     Number       Type             X           Y           Z
 ---------------------------------------------------------------------
      1          6           0       -1.903796    0.072948   -0.051790
      2          6           0       -0.655113   -0.500641    0.065346
      3          1           0       -2.575689   -0.808327    0.068434
      4          1           0       -2.077304    0.761411   -0.912672
      5          1           0       -1.941981    0.542901    0.698056
      6          6           0        0.499557    0.618358   -0.047695
      7          1           0       -0.656203   -0.959771   -0.522289
      8          1           0       -0.389261   -1.202660    1.131659
      9          6           0        2.055094   -0.163712   -0.099354
     10          1           0        0.476433    1.362180    0.977055
     11          1           0        0.196646    1.250205   -0.993200
     12          1           0        1.647552   -0.430461    0.587946
     13          1           0        2.745370    0.424683    0.940216
     14          1           0        2.599989   -1.101880   -1.174246
 ---------------------------------------------------------------------

 SCF Done:  E(RB2PLYPD3) =  -157.608755494     A.U. after   12 cycles
 E2(B2PLYPD3) =    -0.2566275115D+00 E(B2PLYPD3) =    -0.15786538300545D+03

 The electronic state is 1-A.
 Alpha  occ. eigenvalues --  -10.66311 -10.64076 -10.58813 -10.57366  -0.95843
 Alpha  occ. eigenvalues --   -0.85312  -0.74599  -0.68828  -0.55475  -0.50214
 Alpha  occ. eigenvalues --   -0.47215  -0.45997  -0.42066  -0.41543  -0.38068
 Alpha  occ. eigenvalues --   -0.35074  -0.33691
 Alpha virt. eigenvalues --    0.01960   0.04974   0.06799   0.07366   0.10059
 Alpha virt. eigenvalues --    0.10602   0.11915   0.12674   0.14457   0.15131
 Alpha virt. eigenvalues --    0.15809   0.16550   0.17885   0.18728   0.19857

 Mulliken charges:
               1
     1  C   -0.173405
     2  C   -0.366205
     3  H    0.043972
     4  H    0.048139
     5  H    0.108412
     6  C   -0.056639
     7  H    0.352650
     8  H    0.013737
     9  C   -0.419559
    10  H    0.026399
    11  H    0.040782
    12  H    0.289272
    13  H    0.010766
    14  H    0.081679
 Sum of Mulliken charges =   0.00000

 Dipole moment (field-independent basis, Debye):
    X=             -0.9376    Y=             -0.4466    Z=              0.1102  Tot=              1.0443
 Quadrupole moment (field-independent basis, Debye-Ang):
   XX=            -32.6616   YY=            -29.3621   ZZ=            -27.4594
   XY=             -1.4029   XZ=              0.4999   YZ=              1.2062

 Normal termination of Gaussian 09 at Wed Aug 26 15:27:10 2020.
