 Gaussian 09, Revision D.01,
 Gaussian 09:  ES64L-G09RevD.01 24-Apr-2013

 --------------------
 #p B2PLYPD3/Def2QZVP
 --------------------

 ----------
 butane_opt
 ----------
 Symbolic Z-matrix:
 Charge =  0 Multiplicity = 1

                         Standard orientation:
 ---------------------------------------------------------------------
 Center     Atomic      Atomic             Coordinates (Angstroms)
 Number     Number       Type             X           Y           Z
 ---------------------------------------------------------------------
      1          6           0       -1.952287    0.116587   -0.120058
      2          6           0       -0.590905   -0.463991    0.182964
      3          1           0       -2.936302   -0.830816   -0.531784
      4          1           0       -1.482597    0.649133   -1.160347
      5          1           0       -2.341712    0.788080    0.660788
      6          6           0        0.543096    0.579529    0.189372
      7          1           0       -0.467310   -1.182228   -0.563301
      8          1           0       -0.696355   -1.269192    1.221399
      9          6           0        2.014852   -0.149624   -0.150623
     10          1           0        0.374030    1.345720    1.075847
     11          1           0        0.461472    1.195591   -0.693503
     12          1           0        2.645102   -0.787277    0.774197
     13          1           0        2.691885    0.264808   -0.499579
     14          1           0        1.663250   -0.668822   -0.893645
 ---------------------------------------------------------------------

 SCF Done:  E(RB2PLYPD3) =  -157.923075564     A.U. after   11 cycles
 E2(B2PLYPD3) =    -0.2524163158D+00 E(B2PLYPD3) =    -0.15817549188016D+03

 The electronic state is 1-A.
 Alpha  occ. eigenvalues --  -10.65221 -10.63887 -10.62925 -10.59564  -0.90976
 Alpha  occ. eigenvalues --   -0.83910  -0.73567  -0.65636  -0.53402  -0.52000
 Alpha  occ. eigenvalues --   -0.47121  -0.45818  -0.42950  -0.40236  -0.38422
 Alpha  occ. eigenvalues --   -0.36639  -0.34848
 Alpha virt. eigenvalues --    0.04497   0.06086   0.07435   0.08081   0.09314
 Alpha virt. eigenvalues --    0.11067   0.12361   0.12794   0.14847   0.15105
 Alpha virt. eigenvalues --    0.16114   0.16829   0.17883   0.18828   0.20779

 Mulliken charges:
               1
     1  C   -0.179543
     2  C   -0.036060
     3  H    0.027285
     4  H    0.035839
     5  H    0.077550
     6  C   -0.059699
     7  H    0.063247
     8  H   -0.005684
     9  C   -0.215037
    10  H    0.037494
    11  H    0.050880
    12  H    0.025891
    13  H    0.107627
    14  H    0.070209
 Sum of Mulliken charges =   0.00000

 Dipole moment (field-independent basis, Debye):
    X=              0.3322    Y=              0.3021    Z=             -0.4759  Tot=              0.6543
 Quadrupole moment (field-independent basis, Debye-Ang):
   XX=            -29.9974   YY=            -29.8957   ZZ=            -29.1150
   XY=              0.5702   XZ=             -1.4974   YZ=              0.8212

 Normal termination of Gaussian 09 at Wed Aug 26 09:29:43 2020.
