 Gaussian 09, Revision D.01,
 Gaussian 09:  ES64L-G09RevD.01 24-Apr-2013

 --------------------
 #p B2PLYPD3/Def2QZVP
 --------------------

 ----------
 butane_opt
 ----------
 Symbolic Z-matrix:
 Charge =  0 Multiplicity = 1

                         Standard orientation:
 ---------------------------------------------------------------------
 Center     Atomic      Atomic             Coordinates (Angstroms)
 Number     Number       Type             X           Y           Z
 ---------------------------------------------------------------------
      1          6           0        1.929472   -0.079644   -0.202993
      2          6           0        0.621925    0.422173    0.248055
      3          1           0        2.668002    0.777921   -0.443511
      4          1           0        1.717368   -0.441308   -0.998848
      5          1           0        2.604197   -0.728145    0.607267
      6          6           0       -0.577661   -0.642452    0.139285
      7          1           0        0.470953    1.052165   -0.462470
      8          1           0        0.860107    1.429197    1.424107
      9          6           0       -1.992658    0.162198   -0.107589
     10          1           0       -0.634974   -1.106261    0.908838
     11          1           0       -0.122082   -1.435356   -0.885337
     12          1           0       -2.413571    0.254370    0.564025
     13          1           0       -2.661216   -0.283228    0.100417
     14          1           0       -2.375255    1.306994   -1.275033
 ---------------------------------------------------------------------

 SCF Done:  E(RB2PLYPD3) =  -157.534255698     A.U. after   12 cycles
 E2(B2PLYPD3) =    -0.2555856156D+00 E(B2PLYPD3) =    -0.15778984131394D+03

 The electronic state is 1-A.
 Alpha  occ. eigenvalues --  -10.65121 -10.63098 -10.60764 -10.59742  -0.99919
 Alpha  occ. eigenvalues --   -0.91045  -0.79559  -0.67740  -0.54089  -0.51258
 Alpha  occ. eigenvalues --   -0.48793  -0.44721  -0.41287  -0.38349  -0.37651
 Alpha  occ. eigenvalues --   -0.35571  -0.33683
 Alpha virt. eigenvalues --    0.01699   0.04201   0.05825   0.07160   0.10028
 Alpha virt. eigenvalues --    0.10652   0.11301   0.12576   0.14693   0.15191
 Alpha virt. eigenvalues --    0.16080   0.16700   0.18207   0.19094   0.20821

 Mulliken charges:
               1
     1  C   -0.170749
     2  C   -0.091421
     3  H    0.030244
     4  H    0.106159
     5  H    0.032572
     6  C   -0.110862
     7  H    0.110547
     8  H   -0.035205
     9  C   -0.574511
    10  H    0.125216
    11  H    0.014198
    12  H    0.285313
    13  H    0.237709
    14  H    0.040790
 Sum of Mulliken charges =   0.00000

 Dipole moment (field-independent basis, Debye):
    X=             -0.7163    Y=             -0.5335    Z=              0.0470  Tot=              0.8944
 Quadrupole moment (field-independent basis, Debye-Ang):
   XX=            -27.1120   YY=            -30.3421   ZZ=            -29.1840
   XY=              0.6149   XZ=             -2.5361   YZ=             -2.1214

 Normal termination of Gaussian 09 at Wed Aug 26 18:36:37 2020.
