 Gaussian 09, Revision D.01,
 Gaussian 09:  ES64L-G09RevD.01 24-Apr-2013

 --------------------
 #p B2PLYPD3/Def2QZVP
 --------------------

 ----------
 butane_opt
 ----------
 Symbolic Z-matrix:
 Charge =  0 Multiplicity = 1

                         Standard orientation:
 ---------------------------------------------------------------------
 Center     Atomic      Atomic             Coordinates (Angstroms)
 Number     Number       Type             X           Y           Z
 ---------------------------------------------------------------------
      1          6           0       -2.001390   -0.096387   -0.209891
      2          6           0       -0.591512    0.430807    0.273666
      3          1           0       -2.959925    0.803381   -0.028302
      4          1           0       -2.028303   -0.564654    0.454454
      5          1           0       -1.885128   -0.710627   -1.176471
      6          6           0        0.592439   -0.596504    0.019085
      7          1           0       -0.738161    1.261404    1.417339
      8          1           0       -0.420084    0.755173   -0.339705
      9          6           0        1.979120    0.195210   -0.173432
     10          1           0        0.372990   -0.819798   -0.683233
     11          1           0        0.585645   -1.390723    0.924181
     12          1           0        2.577504    1.514989   -1.086005
     13          1           0        2.699272   -0.783955    0.563813
     14          1           0        1.924246    0.336058    0.497363
 ---------------------------------------------------------------------

 SCF Done:  E(RB2PLYPD3) =  -157.127919112     A.U. after   13 cycles
 E2(B2PLYPD3) =    -0.2594818102D+00 E(B2PLYPD3) =    -0.15738740092238D+03

 The electronic state is 1-A.
 Alpha  occ. eigenvalues --  -10.63664 -10.61390 -10.60041 -10.59846  -0.96573
 Alpha  occ. eigenvalues --   -0.88214  -0.79150  -0.72447  -0.55571  -0.49920
 Alpha  occ. eigenvalues --   -0.46511  -0.44242  -0.41670  -0.41578  -0.39044
 Alpha  occ. eigenvalues --   -0.35548  -0.33222
 Alpha virt. eigenvalues --   -0.01827   0.04224   0.05824   0.06922   0.10266
 Alpha virt. eigenvalues --    0.10572   0.12312   0.12531   0.13407   0.15247
 Alpha virt. eigenvalues --    0.15525   0.15867   0.17218   0.17738   0.19914

 Mulliken charges:
               1
     1  C   -0.359087
     2  C   -0.668612
     3  H    0.042388
     4  H    0.276165
     5  H    0.056106
     6  C   -0.330852
     7  H    0.029176
     8  H    0.588637
     9  C   -0.770659
    10  H    0.357817
    11  H    0.055521
    12  H    0.090668
    13  H    0.003130
    14  H    0.629602
 Sum of Mulliken charges =   0.00000

 Dipole moment (field-independent basis, Debye):
    X=             -0.3032    Y=              0.1657    Z=              0.2353  Tot=              0.4181
 Quadrupole moment (field-independent basis, Debye-Ang):
   XX=            -32.5148   YY=            -28.3934   ZZ=            -27.8782
   XY=              1.6093   XZ=              0.1956   YZ=             -1.1403

 Normal termination of Gaussian 09 at Wed Aug 26 15:41:03 2020.
