 Gaussian 09, Revision D.01,
 Gaussian 09:  ES64L-G09RevD.01 24-Apr-2013

 --------------------
 #p B2PLYPD3/Def2QZVP
 --------------------

 ----------
 butane_opt
 ----------
 Symbolic Z-matrix:
 Charge =  0 Multiplicity = 1

                         Standard orientation:
 ---------------------------------------------------------------------
 Center     Atomic      Atomic             Coordinates (Angstroms)
 Number     Number       Type             X           Y           Z
 ---------------------------------------------------------------------
      1          6           0        1.912284    0.034563   -0.247206
      2          6           0        0.598953   -0.442684    0.374574
      3          1           0        2.738560   -0.862778   -0.512121
      4          1           0        2.321674    1.108657    0.684073
      5          1           0        1.528365    0.470770   -1.221285
      6          6           0       -0.526656    0.588562    0.024336
      7          1           0        0.580629   -1.017356    1.566016
      8          1           0        0.221072   -0.931895   -0.283045
      9          6           0       -1.916425   -0.194732   -0.185857
     10          1           0       -0.421963    0.896719   -0.661123
     11          1           0       -0.610161    1.555506    0.914402
     12          1           0       -2.040516   -1.036616   -0.984584
     13          1           0       -2.661255    0.516148    0.024813
     14          1           0       -2.065341   -0.613409    0.677775
 ---------------------------------------------------------------------

 SCF Done:  E(RB2PLYPD3) =  -157.776297849     A.U. after   11 cycles
 E2(B2PLYPD3) =    -0.2528564707D+00 E(B2PLYPD3) =    -0.15802915431988D+03

 The electronic state is 1-A.
 Alpha  occ. eigenvalues --  -10.66005 -10.61198 -10.60576 -10.59409  -0.93991
 Alpha  occ. eigenvalues --   -0.83393  -0.74639  -0.68554  -0.53927  -0.48844
 Alpha  occ. eigenvalues --   -0.48033  -0.47357  -0.41979  -0.39898  -0.39562
 Alpha  occ. eigenvalues --   -0.37006  -0.34346
 Alpha virt. eigenvalues --    0.03976   0.06296   0.07492   0.08008   0.09871
 Alpha virt. eigenvalues --    0.11036   0.11928   0.13560   0.14019   0.14651
 Alpha virt. eigenvalues --    0.15726   0.16009   0.18663   0.19216   0.19963

 Mulliken charges:
               1
     1  C   -0.175703
     2  C   -0.147088
     3  H    0.057042
     4  H    0.017841
     5  H    0.059833
     6  C   -0.378790
     7  H    0.033367
     8  H    0.177797
     9  C   -0.166761
    10  H    0.339334
    11  H    0.010442
    12  H    0.051168
    13  H    0.049434
    14  H    0.072084
 Sum of Mulliken charges =   0.00000

 Dipole moment (field-independent basis, Debye):
    X=             -0.5452    Y=             -0.5175    Z=             -0.3885  Tot=              0.8461
 Quadrupole moment (field-independent basis, Debye-Ang):
   XX=            -31.3337   YY=            -29.5590   ZZ=            -28.2275
   XY=             -0.8079   XZ=             -0.7817   YZ=              0.5261

 Normal termination of Gaussian 09 at Wed Aug 26 15:55:24 2020.
