 Gaussian 09, Revision D.01,
 Gaussian 09:  ES64L-G09RevD.01 24-Apr-2013

 --------------------
 #p B2PLYPD3/Def2QZVP
 --------------------

 ----------
 butane_opt
 ----------
 Symbolic Z-matrix:
 Charge =  0 Multiplicity = 1

                         Standard orientation:
 ---------------------------------------------------------------------
 Center     Atomic      Atomic             Coordinates (Angstroms)
 Number     Number       Type             X           Y           Z
 ---------------------------------------------------------------------
      1          6           0       -1.938084    0.060864   -0.252020
      2          6           0       -0.574302   -0.460063    0.280388
      3          1           0       -2.634505   -0.624165   -0.451566
      4          1           0       -1.801718    0.269847   -0.850767
      5          1           0       -2.565110    0.971303    0.731027
      6          6           0        0.540977    0.647461    0.103408
      7          1           0       -0.629274   -1.042386   -0.414543
      8          1           0       -0.834140   -1.274752    1.470989
      9          6           0        2.031233   -0.191243   -0.109499
     10          1           0        0.609889    1.125471    0.841635
     11          1           0        0.135425    1.160943   -0.870818
     12          1           0        2.379722   -0.337290    0.595323
     13          1           0        2.739509    0.500739   -0.006196
     14          1           0        2.241253   -1.091827   -1.178747
 ---------------------------------------------------------------------

 SCF Done:  E(RB2PLYPD3) =  -157.389495867     A.U. after   11 cycles
 E2(B2PLYPD3) =    -0.2524813189D+00 E(B2PLYPD3) =    -0.15764197718578D+03

 The electronic state is 1-A.
 Alpha  occ. eigenvalues --  -10.62685 -10.62233 -10.59985 -10.58869  -0.94410
 Alpha  occ. eigenvalues --   -0.88833  -0.80306  -0.71196  -0.55521  -0.51042
 Alpha  occ. eigenvalues --   -0.49098  -0.46921  -0.43550  -0.40255  -0.37714
 Alpha  occ. eigenvalues --   -0.36420  -0.33945
 Alpha virt. eigenvalues --    0.04595   0.05366   0.06963   0.08336   0.09738
 Alpha virt. eigenvalues --    0.10589   0.11909   0.12977   0.14072   0.15500
 Alpha virt. eigenvalues --    0.16209   0.17245   0.18390   0.19257   0.21111

 Mulliken charges:
               1
     1  C   -0.663244
     2  C   -0.133884
     3  H    0.064007
     4  H    0.526101
     5  H   -0.003686
     6  C   -0.120615
     7  H    0.169148
     8  H   -0.002178
     9  C   -0.343261
    10  H    0.134814
    11  H    0.050995
    12  H    0.224514
    13  H    0.043435
    14  H    0.053853
 Sum of Mulliken charges =   0.00000

 Dipole moment (field-independent basis, Debye):
    X=              0.5455    Y=              0.0289    Z=             -0.4259  Tot=              0.6927
 Quadrupole moment (field-independent basis, Debye-Ang):
   XX=            -29.1448   YY=            -29.6250   ZZ=            -27.7307
   XY=              1.7132   XZ=              2.4880   YZ=              1.5161

 Normal termination of Gaussian 09 at Wed Aug 26 18:55:10 2020.
