 Gaussian 09, Revision D.01,
 Gaussian 09:  ES64L-G09RevD.01 24-Apr-2013

 --------------------
 #p B2PLYPD3/Def2QZVP
 --------------------

 ----------
 butane_opt
 ----------
 Symbolic Z-matrix:
 Charge =  0 Multiplicity = 1

                         Standard orientation:
 ---------------------------------------------------------------------
 Center     Atomic      Atomic             Coordinates (Angstroms)
 Number     Number       Type             X           Y           Z
 ---------------------------------------------------------------------
      1          6           0        2.016749   -0.134164    0.032419
      2          6           0        0.519926    0.565730   -0.037447
      3          1           0        2.760735    0.614579   -0.017569
      4          1           0        2.076332   -0.700791   -0.799982
      5          1           0        2.249438   -0.837130    0.916692
      6          6           0       -0.582780   -0.520830    0.035547
      7          1           0        0.455855    1.365765   -1.093720
      8          1           0        0.427260    1.006501    0.738838
      9          6           0       -1.965280    0.068592   -0.013553
     10          1           0       -0.595543   -1.131162    0.872035
     11          1           0       -0.467269   -1.234790   -0.859310
     12          1           0       -2.204336    1.171151    1.125013
     13          1           0       -2.732457   -0.624334   -0.296422
     14          1           0       -1.901705    0.494240   -0.687367
 ---------------------------------------------------------------------

 SCF Done:  E(RB2PLYPD3) =  -157.868796676     A.U. after   11 cycles
 E2(B2PLYPD3) =    -0.2492346141D+00 E(B2PLYPD3) =    -0.15811803129029D+03

 The electronic state is 1-A.
 Alpha  occ. eigenvalues --  -10.61965 -10.61063 -10.60370 -10.59968  -0.92294
 Alpha  occ. eigenvalues --   -0.84303  -0.75022  -0.68662  -0.54563  -0.50181
 Alpha  occ. eigenvalues --   -0.48202  -0.46706  -0.42965  -0.41170  -0.39359
 Alpha  occ. eigenvalues --   -0.37362  -0.35445
 Alpha virt. eigenvalues --    0.03929   0.05916   0.07471   0.07628   0.10589
 Alpha virt. eigenvalues --    0.11311   0.12481   0.13127   0.14164   0.15209
 Alpha virt. eigenvalues --    0.15570   0.16691   0.18908   0.19711   0.21025

 Mulliken charges:
               1
     1  C   -0.151534
     2  C   -0.141795
     3  H    0.051023
     4  H    0.062264
     5  H    0.036981
     6  C   -0.001921
     7  H    0.009928
     8  H    0.128187
     9  C   -0.354131
    10  H    0.052193
    11  H    0.010198
    12  H   -0.015321
    13  H    0.060581
    14  H    0.253346
 Sum of Mulliken charges =   0.00000

 Dipole moment (field-independent basis, Debye):
    X=              0.2987    Y=             -0.3729    Z=             -0.4675  Tot=              0.6685
 Quadrupole moment (field-independent basis, Debye-Ang):
   XX=            -30.4141   YY=            -28.9462   ZZ=            -28.3714
   XY=              1.1696   XZ=              1.4391   YZ=             -0.0263

 Normal termination of Gaussian 09 at Wed Aug 26 21:57:21 2020.
