 Gaussian 09, Revision D.01,
 Gaussian 09:  ES64L-G09RevD.01 24-Apr-2013

 --------------------
 #p B2PLYPD3/Def2QZVP
 --------------------

 ----------
 butane_opt
 ----------
 Symbolic Z-matrix:
 Charge =  0 Multiplicity = 1

                         Standard orientation:
 ---------------------------------------------------------------------
 Center     Atomic      Atomic             Coordinates (Angstroms)
 Number     Number       Type             X           Y           Z
 ---------------------------------------------------------------------
      1          6           0        2.001755   -0.109174    0.056364
      2          6           0        0.479915    0.580464    0.022447
      3          1           0        2.704828    0.490816   -0.741568
      4          1           0        1.590442   -0.300516   -0.603191
      5          1           0        2.614429   -1.063715    1.192020
      6          6           0       -0.527463   -0.514837   -0.045922
      7          1           0        0.393395    1.245277   -0.918290
      8          1           0        0.231407    0.987872    0.738621
      9          6           0       -1.858865    0.056404    0.027691
     10          1           0       -0.485227   -1.075306    0.619680
     11          1           0       -0.663589   -1.253526   -0.985194
     12          1           0       -2.258582    1.186394    1.092758
     13          1           0       -2.754956   -0.747395   -0.125356
     14          1           0       -1.944199    0.452951   -0.632961
 ---------------------------------------------------------------------

 SCF Done:  E(RB2PLYPD3) =  -157.528957614     A.U. after   11 cycles
 E2(B2PLYPD3) =    -0.2556379645D+00 E(B2PLYPD3) =    -0.15778459557867D+03

 The electronic state is 1-A.
 Alpha  occ. eigenvalues --  -10.62259 -10.61726 -10.61649 -10.59659  -0.96801
 Alpha  occ. eigenvalues --   -0.88105  -0.77321  -0.72341  -0.56178  -0.49865
 Alpha  occ. eigenvalues --   -0.48861  -0.46583  -0.43202  -0.41175  -0.38418
 Alpha  occ. eigenvalues --   -0.35442  -0.33864
 Alpha virt. eigenvalues --    0.02159   0.03828   0.05556   0.07169   0.10189
 Alpha virt. eigenvalues --    0.10551   0.11279   0.12731   0.14124   0.15554
 Alpha virt. eigenvalues --    0.16329   0.16543   0.17895   0.18605   0.20349

 Mulliken charges:
               1
     1  C   -0.485717
     2  C   -0.144364
     3  H    0.031406
     4  H    0.326732
     5  H    0.074923
     6  C   -0.058672
     7  H    0.035730
     8  H    0.169131
     9  C   -0.392342
    10  H    0.118662
    11  H    0.006016
    12  H   -0.018319
    13  H    0.049277
    14  H    0.287540
 Sum of Mulliken charges =   0.00000

 Dipole moment (field-independent basis, Debye):
    X=             -0.4328    Y=             -0.4430    Z=             -0.8531  Tot=              1.0542
 Quadrupole moment (field-independent basis, Debye-Ang):
   XX=            -32.4270   YY=            -29.3216   ZZ=            -28.0055
   XY=              0.1579   XZ=              1.2485   YZ=             -1.3387

 Normal termination of Gaussian 09 at Wed Aug 26 23:23:13 2020.
