 Gaussian 09, Revision D.01,
 Gaussian 09:  ES64L-G09RevD.01 24-Apr-2013

 --------------------
 #p B2PLYPD3/Def2QZVP
 --------------------

 ----------
 butane_opt
 ----------
 Symbolic Z-matrix:
 Charge =  0 Multiplicity = 1

                         Standard orientation:
 ---------------------------------------------------------------------
 Center     Atomic      Atomic             Coordinates (Angstroms)
 Number     Number       Type             X           Y           Z
 ---------------------------------------------------------------------
      1          6           0        1.944274    0.115089   -0.077264
      2          6           0        0.515693   -0.527135    0.012509
      3          1           0        2.757077   -0.663519    0.027818
      4          1           0        2.075962    0.553334    0.724387
      5          1           0        2.140163    1.016479   -1.037918
      6          6           0       -0.584418    0.473154    0.174798
      7          1           0        0.313259   -1.245020    0.938647
      8          1           0        0.431721   -0.994430   -0.748975
      9          6           0       -1.859757   -0.098969   -0.089440
     10          1           0       -0.432119    1.044397   -0.633202
     11          1           0       -0.406454    1.267217    1.299994
     12          1           0       -1.907903   -0.629721   -1.044925
     13          1           0       -2.771296    0.727294   -0.448209
     14          1           0       -2.295161   -0.848861    0.798768
 ---------------------------------------------------------------------

 SCF Done:  E(RB2PLYPD3) =  -157.947003767     A.U. after   11 cycles
 E2(B2PLYPD3) =    -0.2503187824D+00 E(B2PLYPD3) =    -0.15819732254976D+03

 The electronic state is 1-A.
 Alpha  occ. eigenvalues --  -10.63159 -10.61705 -10.61009 -10.59814  -0.93709
 Alpha  occ. eigenvalues --   -0.83953  -0.73444  -0.66718  -0.55679  -0.50281
 Alpha  occ. eigenvalues --   -0.47489  -0.46131  -0.43016  -0.40351  -0.39624
 Alpha  occ. eigenvalues --   -0.36675  -0.35368
 Alpha virt. eigenvalues --    0.05032   0.05995   0.07122   0.08040   0.10609
 Alpha virt. eigenvalues --    0.10946   0.12360   0.13473   0.13826   0.14930
 Alpha virt. eigenvalues --    0.15681   0.16230   0.19299   0.19489   0.21011

 Mulliken charges:
               1
     1  C   -0.177257
     2  C   -0.097007
     3  H    0.041836
     4  H    0.092361
     5  H    0.022619
     6  C   -0.046242
     7  H    0.012951
     8  H    0.111376
     9  C   -0.149210
    10  H    0.073241
    11  H    0.005883
    12  H    0.050765
    13  H    0.025604
    14  H    0.033080
 Sum of Mulliken charges =   0.00000

 Dipole moment (field-independent basis, Debye):
    X=              0.1458    Y=             -0.1735    Z=             -0.3390  Tot=              0.4078
 Quadrupole moment (field-independent basis, Debye-Ang):
   XX=            -30.5882   YY=            -29.7627   ZZ=            -28.3304
   XY=              0.2661   XZ=              1.2615   YZ=             -0.4004

 Normal termination of Gaussian 09 at Wed Aug 26 10:04:58 2020.
