 Gaussian 09, Revision D.01,
 Gaussian 09:  ES64L-G09RevD.01 24-Apr-2013

 --------------------
 #p B2PLYPD3/Def2QZVP
 --------------------

 ----------
 butane_opt
 ----------
 Symbolic Z-matrix:
 Charge =  0 Multiplicity = 1

                         Standard orientation:
 ---------------------------------------------------------------------
 Center     Atomic      Atomic             Coordinates (Angstroms)
 Number     Number       Type             X           Y           Z
 ---------------------------------------------------------------------
      1          6           0       -2.088003   -0.118566   -0.212322
      2          6           0       -0.517638    0.608701    0.147266
      3          1           0       -2.700621    0.423643   -0.133602
      4          1           0       -2.385856   -0.724970    0.553997
      5          1           0       -1.940687   -0.770039   -1.009038
      6          6           0        0.639489   -0.489399    0.264895
      7          1           0       -0.479658    1.468925    0.981925
      8          1           0       -0.203644    0.826730   -0.471992
      9          6           0        1.965149    0.092422   -0.197037
     10          1           0        0.602016   -0.917264   -0.313992
     11          1           0        0.303860   -1.449398    1.478955
     12          1           0        1.494528    0.452902   -1.028579
     13          1           0        2.687108   -0.709758   -0.781461
     14          1           0        2.628974    0.840284    0.706970
 ---------------------------------------------------------------------

 SCF Done:  E(RB2PLYPD3) =  -157.485830831     A.U. after   11 cycles
 E2(B2PLYPD3) =    -0.2519313576D+00 E(B2PLYPD3) =    -0.15773776218873D+03

 The electronic state is 1-A.
 Alpha  occ. eigenvalues --  -10.64572 -10.61740 -10.60182 -10.57626  -0.96256
 Alpha  occ. eigenvalues --   -0.85777  -0.79071  -0.70595  -0.54425  -0.53204
 Alpha  occ. eigenvalues --   -0.48706  -0.47361  -0.44057  -0.42268  -0.38889
 Alpha  occ. eigenvalues --   -0.37123  -0.33097
 Alpha virt. eigenvalues --    0.04456   0.05790   0.06959   0.08663   0.09948
 Alpha virt. eigenvalues --    0.10774   0.12223   0.14221   0.14628   0.15194
 Alpha virt. eigenvalues --    0.16258   0.16649   0.17422   0.18437   0.20598

 Mulliken charges:
               1
     1  C   -0.250142
     2  C   -0.499418
     3  H    0.173860
     4  H    0.046798
     5  H    0.058216
     6  C   -0.527859
     7  H    0.058999
     8  H    0.468729
     9  C   -0.165008
    10  H    0.492670
    11  H   -0.032210
    12  H    0.080254
    13  H    0.040362
    14  H    0.054747
 Sum of Mulliken charges =   0.00000

 Dipole moment (field-independent basis, Debye):
    X=             -0.2891    Y=              0.3135    Z=             -1.0245  Tot=              1.1098
 Quadrupole moment (field-independent basis, Debye-Ang):
   XX=            -28.0883   YY=            -29.6376   ZZ=            -28.7373
   XY=              0.3217   XZ=             -1.1936   YZ=              1.9434

 Normal termination of Gaussian 09 at Wed Aug 26 10:20:41 2020.
