 Gaussian 09, Revision D.01,
 Gaussian 09:  ES64L-G09RevD.01 24-Apr-2013

 --------------------
 #p B2PLYPD3/Def2QZVP
 --------------------

 ----------
 butane_opt
 ----------
 Symbolic Z-matrix:
 Charge =  0 Multiplicity = 1

                         Standard orientation:
 ---------------------------------------------------------------------
 Center     Atomic      Atomic             Coordinates (Angstroms)
 Number     Number       Type             X           Y           Z
 ---------------------------------------------------------------------
      1          6           0        1.990094   -0.214348    0.090420
      2          6           0        0.547878    0.581263   -0.217847
      3          1           0        2.830824    0.578079    0.839428
      4          1           0        2.522635   -0.651436   -0.659993
      5          1           0        1.791076   -0.882654    0.985746
      6          6           0       -0.570098   -0.414648   -0.225640
      7          1           0        0.372042    1.426853   -1.181096
      8          1           0       -0.099340    1.189410    0.916948
      9          6           0       -1.888561    0.046889    0.184850
     10          1           0       -0.399364   -1.169939    0.514282
     11          1           0       -0.668215   -0.950272   -1.228542
     12          1           0       -1.854646    0.621450    1.161844
     13          1           0       -2.901971   -0.796423    0.179939
     14          1           0       -2.068918    0.639997   -0.519250
 ---------------------------------------------------------------------

 SCF Done:  E(RB2PLYPD3) =  -157.933071049     A.U. after   11 cycles
 E2(B2PLYPD3) =    -0.2551411058D+00 E(B2PLYPD3) =    -0.15818821215522D+03

 The electronic state is 1-A.
 Alpha  occ. eigenvalues --  -10.67544 -10.64863 -10.60458 -10.60335  -0.92346
 Alpha  occ. eigenvalues --   -0.81831  -0.72775  -0.64483  -0.55211  -0.50026
 Alpha  occ. eigenvalues --   -0.48206  -0.45676  -0.42305  -0.39684  -0.37321
 Alpha  occ. eigenvalues --   -0.36820  -0.33847
 Alpha virt. eigenvalues --    0.04421   0.05708   0.07282   0.07455   0.09842
 Alpha virt. eigenvalues --    0.10721   0.11931   0.12301   0.14049   0.14932
 Alpha virt. eigenvalues --    0.15607   0.16142   0.18211   0.19024   0.19800

 Mulliken charges:
               1
     1  C   -0.153004
     2  C   -0.098353
     3  H    0.017751
     4  H    0.092306
     5  H    0.059264
     6  C    0.006132
     7  H    0.041147
     8  H   -0.005475
     9  C   -0.168495
    10  H    0.041731
    11  H    0.013469
    12  H    0.042544
    13  H    0.023924
    14  H    0.087059
 Sum of Mulliken charges =   0.00000

 Dipole moment (field-independent basis, Debye):
    X=             -0.0148    Y=             -0.4727    Z=             -0.2809  Tot=              0.5501
 Quadrupole moment (field-independent basis, Debye-Ang):
   XX=            -30.3545   YY=            -30.7296   ZZ=            -28.5721
   XY=             -1.3155   XZ=             -0.1509   YZ=             -0.5593

 Normal termination of Gaussian 09 at Wed Aug 26 20:37:41 2020.
