 Gaussian 09, Revision D.01,
 Gaussian 09:  ES64L-G09RevD.01 24-Apr-2013

 --------------------
 #p B2PLYPD3/Def2QZVP
 --------------------

 ----------
 butane_opt
 ----------
 Symbolic Z-matrix:
 Charge =  0 Multiplicity = 1

                         Standard orientation:
 ---------------------------------------------------------------------
 Center     Atomic      Atomic             Coordinates (Angstroms)
 Number     Number       Type             X           Y           Z
 ---------------------------------------------------------------------
      1          6           0        1.900090   -0.144634    0.012819
      2          6           0        0.458557    0.526686   -0.114731
      3          1           0        2.616828    0.446960    0.531501
      4          1           0        2.577065   -0.728990   -0.854076
      5          1           0        1.799867   -0.761591    0.840151
      6          6           0       -0.596679   -0.455717   -0.111757
      7          1           0        0.470690    1.387158   -1.020014
      8          1           0        0.563098    1.225096    0.952521
      9          6           0       -1.879341    0.086927    0.074466
     10          1           0       -0.326846   -1.241194    0.736621
     11          1           0       -0.632781   -1.052647   -0.862287
     12          1           0       -1.535484    0.623230    1.072707
     13          1           0       -2.589258   -0.630582    0.185476
     14          1           0       -2.238946    0.652994   -0.747381
 ---------------------------------------------------------------------

 SCF Done:  E(RB2PLYPD3) =  -158.003488109     A.U. after   11 cycles
 E2(B2PLYPD3) =    -0.2503284342D+00 E(B2PLYPD3) =    -0.15825381654353D+03

 The electronic state is 1-A.
 Alpha  occ. eigenvalues --  -10.64634 -10.60624 -10.58972 -10.58608  -0.94278
 Alpha  occ. eigenvalues --   -0.83817  -0.73353  -0.65968  -0.56112  -0.52000
 Alpha  occ. eigenvalues --   -0.49355  -0.46489  -0.40800  -0.40160  -0.38398
 Alpha  occ. eigenvalues --   -0.37927  -0.35457
 Alpha virt. eigenvalues --    0.05330   0.06700   0.07295   0.07989   0.10624
 Alpha virt. eigenvalues --    0.11781   0.12376   0.13509   0.14747   0.15434
 Alpha virt. eigenvalues --    0.15983   0.17184   0.19019   0.19520   0.21557

 Mulliken charges:
               1
     1  C   -0.150220
     2  C   -0.033310
     3  H    0.034753
     4  H    0.034869
     5  H    0.050015
     6  C   -0.008259
     7  H    0.028902
     8  H    0.008595
     9  C   -0.136259
    10  H    0.003013
    11  H    0.038729
    12  H    0.040220
    13  H    0.041748
    14  H    0.047205
 Sum of Mulliken charges =   0.00000

 Dipole moment (field-independent basis, Debye):
    X=             -0.0989    Y=             -0.3649    Z=             -0.0453  Tot=              0.3808
 Quadrupole moment (field-independent basis, Debye-Ang):
   XX=            -29.4966   YY=            -29.6657   ZZ=            -28.4286
   XY=              0.9898   XZ=              1.7654   YZ=             -0.0472

 Normal termination of Gaussian 09 at Wed Aug 26 11:57:20 2020.
