 Gaussian 09, Revision D.01,
 Gaussian 09:  ES64L-G09RevD.01 24-Apr-2013

 --------------------
 #p B2PLYPD3/Def2QZVP
 --------------------

 ----------
 butane_opt
 ----------
 Symbolic Z-matrix:
 Charge =  0 Multiplicity = 1

                         Standard orientation:
 ---------------------------------------------------------------------
 Center     Atomic      Atomic             Coordinates (Angstroms)
 Number     Number       Type             X           Y           Z
 ---------------------------------------------------------------------
      1          6           0        1.925967    0.101589    0.031461
      2          6           0        0.591889   -0.505111   -0.026628
      3          1           0        2.693460   -0.647085   -0.224800
      4          1           0        2.043109    0.990875    1.049511
      5          1           0        1.972535    0.521638   -0.693806
      6          6           0       -0.536334    0.538445   -0.070271
      7          1           0        0.460372   -1.173230    0.856572
      8          1           0        0.436725   -1.128631   -0.842604
      9          6           0       -1.948747   -0.126197    0.039189
     10          1           0       -0.442355    1.205832   -0.941486
     11          1           0       -0.397974    1.111878    0.773175
     12          1           0       -2.123625   -0.732104   -0.788154
     13          1           0       -2.725989    0.660705   -0.051566
     14          1           0       -2.112907   -0.862231    1.020657
 ---------------------------------------------------------------------

 SCF Done:  E(RB2PLYPD3) =  -158.001071846     A.U. after   11 cycles
 E2(B2PLYPD3) =    -0.2472826049D+00 E(B2PLYPD3) =    -0.15824835445058D+03

 The electronic state is 1-A.
 Alpha  occ. eigenvalues --  -10.61070 -10.60059 -10.59445 -10.59039  -0.92385
 Alpha  occ. eigenvalues --   -0.84207  -0.73542  -0.67592  -0.54567  -0.49680
 Alpha  occ. eigenvalues --   -0.48999  -0.46612  -0.42586  -0.40234  -0.39481
 Alpha  occ. eigenvalues --   -0.38185  -0.37049
 Alpha virt. eigenvalues --    0.05512   0.06447   0.08160   0.08480   0.10891
 Alpha virt. eigenvalues --    0.11998   0.12503   0.13522   0.14471   0.15154
 Alpha virt. eigenvalues --    0.15816   0.16385   0.19509   0.19812   0.21928

 Mulliken charges:
               1
     1  C   -0.277225
     2  C   -0.014249
     3  H    0.041679
     4  H    0.028467
     5  H    0.168484
     6  C   -0.049269
     7  H    0.024782
     8  H    0.032827
     9  C   -0.151799
    10  H    0.025193
    11  H    0.047013
    12  H    0.046756
    13  H    0.044328
    14  H    0.033013
 Sum of Mulliken charges =   0.00000

 Dipole moment (field-independent basis, Debye):
    X=             -0.0249    Y=              0.0204    Z=             -0.5607  Tot=              0.5617
 Quadrupole moment (field-independent basis, Debye-Ang):
   XX=            -30.2876   YY=            -28.6572   ZZ=            -28.1169
   XY=             -0.3577   XZ=             -0.6184   YZ=              0.1844

 Normal termination of Gaussian 09 at Wed Aug 26 16:06:30 2020.
