 Gaussian 09, Revision D.01,
 Gaussian 09:  ES64L-G09RevD.01 24-Apr-2013

 --------------------
 #p B2PLYPD3/Def2QZVP
 --------------------

 ----------
 butane_opt
 ----------
 Symbolic Z-matrix:
 Charge =  0 Multiplicity = 1

                         Standard orientation:
 ---------------------------------------------------------------------
 Center     Atomic      Atomic             Coordinates (Angstroms)
 Number     Number       Type             X           Y           Z
 ---------------------------------------------------------------------
      1          6           0       -2.007453   -0.197987   -0.169586
      2          6           0       -0.546012    0.614651    0.150697
      3          1           0       -2.696764    0.413859   -0.195156
      4          1           0       -2.561654   -0.868484    0.770134
      5          1           0       -2.169728   -0.682266   -0.909635
      6          6           0        0.680192   -0.514088    0.185744
      7          1           0       -0.483068    1.749315    1.090045
      8          1           0       -0.422478    1.143644   -0.690819
      9          6           0        1.950977    0.083514   -0.149001
     10          1           0        0.388363   -1.168021   -0.610629
     11          1           0        0.576840   -1.116578    1.135021
     12          1           0        1.874072    0.827397   -1.055315
     13          1           0        2.851239   -0.734637   -0.114332
     14          1           0        2.176948    0.519226    0.473569
 ---------------------------------------------------------------------

 SCF Done:  E(RB2PLYPD3) =  -157.833280888     A.U. after   11 cycles
 E2(B2PLYPD3) =    -0.2500789187D+00 E(B2PLYPD3) =    -0.15808335980686D+03

 The electronic state is 1-A.
 Alpha  occ. eigenvalues --  -10.65421 -10.61494 -10.58977 -10.58325  -0.91325
 Alpha  occ. eigenvalues --   -0.84941  -0.75726  -0.68198  -0.53705  -0.50519
 Alpha  occ. eigenvalues --   -0.47916  -0.47151  -0.42816  -0.41578  -0.38748
 Alpha  occ. eigenvalues --   -0.37023  -0.35268
 Alpha virt. eigenvalues --    0.04674   0.06297   0.06889   0.08610   0.10411
 Alpha virt. eigenvalues --    0.11715   0.12664   0.13710   0.14647   0.15213
 Alpha virt. eigenvalues --    0.15698   0.16171   0.18840   0.19312   0.20226

 Mulliken charges:
               1
     1  C   -0.178680
     2  C   -0.124171
     3  H    0.074979
     4  H    0.005054
     5  H    0.082734
     6  C   -0.007110
     7  H    0.004809
     8  H    0.077954
     9  C   -0.344605
    10  H    0.049751
    11  H    0.042681
    12  H    0.044171
    13  H    0.032462
    14  H    0.239972
 Sum of Mulliken charges =   0.00000

 Dipole moment (field-independent basis, Debye):
    X=              0.0407    Y=              0.1139    Z=             -0.4564  Tot=              0.4721
 Quadrupole moment (field-independent basis, Debye-Ang):
   XX=            -28.6922   YY=            -28.8213   ZZ=            -28.7940
   XY=              0.1435   XZ=              1.7263   YZ=             -0.3826

 Normal termination of Gaussian 09 at Wed Aug 26 18:35:16 2020.
