 Gaussian 09, Revision D.01,
 Gaussian 09:  ES64L-G09RevD.01 24-Apr-2013

 --------------------
 #p B2PLYPD3/Def2QZVP
 --------------------

 ----------
 butane_opt
 ----------
 Symbolic Z-matrix:
 Charge =  0 Multiplicity = 1

                         Standard orientation:
 ---------------------------------------------------------------------
 Center     Atomic      Atomic             Coordinates (Angstroms)
 Number     Number       Type             X           Y           Z
 ---------------------------------------------------------------------
      1          6           0        1.882899    0.052986    0.067449
      2          6           0        0.585768   -0.484340   -0.057960
      3          1           0        2.808456   -0.736431    0.127183
      4          1           0        2.214376    1.146407    1.201242
      5          1           0        2.148964    0.366528   -0.665868
      6          6           0       -0.490933    0.573205   -0.265845
      7          1           0        0.495442   -1.159907    0.813286
      8          1           0        0.795927   -1.200497   -0.933793
      9          6           0       -2.034641   -0.135204    0.120501
     10          1           0       -0.316275    1.273957   -1.273891
     11          1           0       -0.322049    1.259198    0.696896
     12          1           0       -2.927869   -0.797169   -0.823711
     13          1           0       -2.725065    0.517826    0.718356
     14          1           0       -1.830474   -0.709794    0.955431
 ---------------------------------------------------------------------

 SCF Done:  E(RB2PLYPD3) =  -157.853845025     A.U. after   11 cycles
 E2(B2PLYPD3) =    -0.2549661037D+00 E(B2PLYPD3) =    -0.15810881112917D+03

 The electronic state is 1-A.
 Alpha  occ. eigenvalues --  -10.66383 -10.64673 -10.62188 -10.62083  -0.93383
 Alpha  occ. eigenvalues --   -0.82203  -0.73634  -0.67007  -0.53184  -0.49561
 Alpha  occ. eigenvalues --   -0.48929  -0.43579  -0.42028  -0.39815  -0.38899
 Alpha  occ. eigenvalues --   -0.36476  -0.34155
 Alpha virt. eigenvalues --    0.04199   0.04847   0.06182   0.07356   0.08429
 Alpha virt. eigenvalues --    0.10636   0.11432   0.12779   0.13484   0.14974
 Alpha virt. eigenvalues --    0.15705   0.16557   0.17682   0.18709   0.20378

 Mulliken charges:
               1
     1  C   -0.240188
     2  C    0.019689
     3  H    0.032583
     4  H   -0.034809
     5  H    0.163987
     6  C   -0.094240
     7  H    0.050608
     8  H    0.020826
     9  C   -0.180257
    10  H    0.051205
    11  H    0.053199
    12  H    0.032273
    13  H    0.044064
    14  H    0.081060
 Sum of Mulliken charges =   0.00000

 Dipole moment (field-independent basis, Debye):
    X=              0.0867    Y=             -0.3653    Z=             -0.2838  Tot=              0.4707
 Quadrupole moment (field-independent basis, Debye-Ang):
   XX=            -31.0962   YY=            -30.3966   ZZ=            -28.8262
   XY=             -1.1955   XZ=             -2.6834   YZ=             -0.3938

 Normal termination of Gaussian 09 at Wed Aug 26 15:34:25 2020.
