 Gaussian 09, Revision D.01,
 Gaussian 09:  ES64L-G09RevD.01 24-Apr-2013

 --------------------
 #p B2PLYPD3/Def2QZVP
 --------------------

 ----------
 butane_opt
 ----------
 Symbolic Z-matrix:
 Charge =  0 Multiplicity = 1

                         Standard orientation:
 ---------------------------------------------------------------------
 Center     Atomic      Atomic             Coordinates (Angstroms)
 Number     Number       Type             X           Y           Z
 ---------------------------------------------------------------------
      1          6           0        2.000654    0.085010   -0.228772
      2          6           0        0.671038   -0.386207    0.356422
      3          1           0        2.817451   -0.896284   -0.660754
      4          1           0        2.554307    1.050976    0.578192
      5          1           0        1.498118    0.191494   -0.853507
      6          6           0       -0.566598    0.532777   -0.027399
      7          1           0        0.610538   -1.105000    1.607087
      8          1           0        0.466570   -0.796818   -0.279116
      9          6           0       -1.984009   -0.188064   -0.132164
     10          1           0       -0.671686    0.780846   -0.814239
     11          1           0       -0.554691    1.585609    0.870387
     12          1           0       -2.147313   -1.155254   -0.837717
     13          1           0       -2.821574    0.474467   -0.100203
     14          1           0       -2.478231   -0.391130    0.681349
 ---------------------------------------------------------------------

 SCF Done:  E(RB2PLYPD3) =  -157.570792679     A.U. after   11 cycles
 E2(B2PLYPD3) =    -0.2552009109D+00 E(B2PLYPD3) =    -0.15782599359037D+03

 The electronic state is 1-A.
 Alpha  occ. eigenvalues --  -10.63011 -10.62779 -10.61693 -10.60700  -0.97354
 Alpha  occ. eigenvalues --   -0.87605  -0.76888  -0.70252  -0.54742  -0.50725
 Alpha  occ. eigenvalues --   -0.48482  -0.46219  -0.42071  -0.40013  -0.37911
 Alpha  occ. eigenvalues --   -0.36815  -0.33344
 Alpha virt. eigenvalues --    0.04253   0.05845   0.07224   0.07540   0.09536
 Alpha virt. eigenvalues --    0.10342   0.11705   0.13141   0.14108   0.15149
 Alpha virt. eigenvalues --    0.15417   0.16399   0.17561   0.19228   0.20601

 Mulliken charges:
               1
     1  C   -0.366864
     2  C   -0.429356
     3  H    0.037081
     4  H    0.057163
     5  H    0.280889
     6  C   -0.271070
     7  H    0.021370
     8  H    0.426615
     9  C   -0.152082
    10  H    0.264444
    11  H   -0.000030
    12  H    0.037352
    13  H    0.045299
    14  H    0.049189
 Sum of Mulliken charges =   0.00000

 Dipole moment (field-independent basis, Debye):
    X=             -0.7543    Y=             -0.2343    Z=             -0.4475  Tot=              0.9079
 Quadrupole moment (field-independent basis, Debye-Ang):
   XX=            -28.8176   YY=            -30.1275   ZZ=            -29.0192
   XY=             -0.1788   XZ=             -0.4937   YZ=              1.4005

 Normal termination of Gaussian 09 at Wed Aug 26 14:06:33 2020.
