 Gaussian 09, Revision D.01,
 Gaussian 09:  ES64L-G09RevD.01 24-Apr-2013

 --------------------
 #p B2PLYPD3/Def2QZVP
 --------------------

 ----------
 butane_opt
 ----------
 Symbolic Z-matrix:
 Charge =  0 Multiplicity = 1

                         Standard orientation:
 ---------------------------------------------------------------------
 Center     Atomic      Atomic             Coordinates (Angstroms)
 Number     Number       Type             X           Y           Z
 ---------------------------------------------------------------------
      1          6           0       -1.984385   -0.193328   -0.107569
      2          6           0       -0.502968    0.619085   -0.037745
      3          1           0       -2.699417    0.336373   -0.260750
      4          1           0       -1.996985   -0.489065    0.754963
      5          1           0       -2.263064   -1.325690   -0.785138
      6          6           0        0.622525   -0.346342    0.392224
      7          1           0       -0.655305    1.849029    0.771202
      8          1           0       -0.175287    0.702260   -0.760798
      9          6           0        1.846081   -0.034079   -0.216222
     10          1           0        0.243808   -0.769251   -0.228599
     11          1           0        0.780087   -0.866473    1.532771
     12          1           0        1.788102    0.222935   -1.282406
     13          1           0        2.663755   -0.828282   -0.395458
     14          1           0        2.426788    0.896148    0.470086
 ---------------------------------------------------------------------

 SCF Done:  E(RB2PLYPD3) =  -157.711396894     A.U. after   11 cycles
 E2(B2PLYPD3) =    -0.2520964214D+00 E(B2PLYPD3) =    -0.15796349331522D+03

 The electronic state is 1-A.
 Alpha  occ. eigenvalues --  -10.63586 -10.62245 -10.59704 -10.59532  -0.97920
 Alpha  occ. eigenvalues --   -0.84616  -0.77223  -0.68351  -0.55696  -0.54011
 Alpha  occ. eigenvalues --   -0.48873  -0.46166  -0.43347  -0.40795  -0.39369
 Alpha  occ. eigenvalues --   -0.37890  -0.32882
 Alpha virt. eigenvalues --    0.04852   0.05844   0.06770   0.07839   0.10839
 Alpha virt. eigenvalues --    0.11352   0.12083   0.13072   0.13886   0.14288
 Alpha virt. eigenvalues --    0.15613   0.17521   0.18423   0.19606   0.20471

 Mulliken charges:
               1
     1  C   -0.220330
     2  C   -0.348310
     3  H    0.091639
     4  H    0.120554
     5  H    0.006653
     6  C   -0.277815
     7  H   -0.003337
     8  H    0.336544
     9  C   -0.138412
    10  H    0.288085
    11  H    0.047143
    12  H    0.036361
    13  H    0.042357
    14  H    0.018869
 Sum of Mulliken charges =   0.00000

 Dipole moment (field-independent basis, Debye):
    X=             -0.1802    Y=             -0.5338    Z=             -0.2858  Tot=              0.6317
 Quadrupole moment (field-independent basis, Debye-Ang):
   XX=            -29.0998   YY=            -30.3049   ZZ=            -28.2837
   XY=             -0.6438   XZ=             -0.6503   YZ=              0.1741

 Normal termination of Gaussian 09 at Wed Aug 26 23:48:26 2020.
