 Gaussian 09, Revision D.01,
 Gaussian 09:  ES64L-G09RevD.01 24-Apr-2013

 --------------------
 #p B2PLYPD3/Def2QZVP
 --------------------

 ----------
 butane_opt
 ----------
 Symbolic Z-matrix:
 Charge =  0 Multiplicity = 1

                         Standard orientation:
 ---------------------------------------------------------------------
 Center     Atomic      Atomic             Coordinates (Angstroms)
 Number     Number       Type             X           Y           Z
 ---------------------------------------------------------------------
      1          6           0        2.016511   -0.167974    0.050574
      2          6           0        0.583984    0.560522    0.052918
      3          1           0        2.869671    0.651817   -0.473630
      4          1           0        2.075668   -0.363033   -0.663634
      5          1           0        2.332997   -1.263402    1.119429
      6          6           0       -0.622496   -0.505970   -0.143100
      7          1           0        0.459429    1.423993   -0.779295
      8          1           0        0.390086    1.093274    0.867236
      9          6           0       -2.043073    0.079996    0.117558
     10          1           0       -0.302468   -0.866561    0.510165
     11          1           0       -0.538236   -1.219966   -1.155263
     12          1           0       -2.088380    0.684969    1.051728
     13          1           0       -2.761809   -0.758361   -0.070116
     14          1           0       -2.046516    0.817830   -0.874319
 ---------------------------------------------------------------------

 SCF Done:  E(RB2PLYPD3) =  -157.685462951     A.U. after   11 cycles
 E2(B2PLYPD3) =    -0.2536333575D+00 E(B2PLYPD3) =    -0.15793909630819D+03

 The electronic state is 1-A.
 Alpha  occ. eigenvalues --  -10.63049 -10.62679 -10.62401 -10.59467  -0.91948
 Alpha  occ. eigenvalues --   -0.85266  -0.75335  -0.68985  -0.53480  -0.49699
 Alpha  occ. eigenvalues --   -0.46663  -0.45535  -0.41880  -0.39825  -0.38770
 Alpha  occ. eigenvalues --   -0.37979  -0.33818
 Alpha virt. eigenvalues --    0.02646   0.05285   0.06979   0.08036   0.10319
 Alpha virt. eigenvalues --    0.11248   0.12205   0.12431   0.14107   0.14752
 Alpha virt. eigenvalues --    0.15629   0.16455   0.18193   0.18539   0.20061

 Mulliken charges:
               1
     1  C   -0.551027
     2  C   -0.013705
     3  H    0.022525
     4  H    0.425779
     5  H    0.058571
     6  C   -0.292698
     7  H   -0.005269
     8  H    0.058946
     9  C   -0.168308
    10  H    0.274298
    11  H    0.027360
    12  H    0.064213
    13  H    0.067210
    14  H    0.032105
 Sum of Mulliken charges =   0.00000

 Dipole moment (field-independent basis, Debye):
    X=             -0.1768    Y=             -0.2776    Z=             -0.0795  Tot=              0.3386
 Quadrupole moment (field-independent basis, Debye-Ang):
   XX=            -31.5470   YY=            -29.2231   ZZ=            -28.0098
   XY=             -0.1568   XZ=             -1.4661   YZ=             -0.2321

 Normal termination of Gaussian 09 at Wed Aug 26 15:23:54 2020.
