 Gaussian 09, Revision D.01,
 Gaussian 09:  ES64L-G09RevD.01 24-Apr-2013

 --------------------
 #p B2PLYPD3/Def2QZVP
 --------------------

 ----------
 butane_opt
 ----------
 Symbolic Z-matrix:
 Charge =  0 Multiplicity = 1

                         Standard orientation:
 ---------------------------------------------------------------------
 Center     Atomic      Atomic             Coordinates (Angstroms)
 Number     Number       Type             X           Y           Z
 ---------------------------------------------------------------------
      1          6           0        1.960544   -0.225340   -0.060369
      2          6           0        0.527306    0.547976   -0.009345
      3          1           0        2.887920    0.524501   -0.213182
      4          1           0        2.057489   -1.254677   -0.896683
      5          1           0        2.231426   -0.445370    0.567082
      6          6           0       -0.620010   -0.342550    0.391295
      7          1           0        0.098702    0.973509   -1.175611
      8          1           0        0.459605    1.658917    0.877046
      9          6           0       -1.872209    0.050159   -0.190299
     10          1           0       -0.594489   -0.762431    1.462951
     11          1           0       -0.781135   -1.131085   -0.239831
     12          1           0       -2.377990    0.885391    0.490059
     13          1           0       -2.741831   -0.923947   -0.523241
     14          1           0       -1.213485    0.293726   -1.136280
 ---------------------------------------------------------------------

 SCF Done:  E(RB2PLYPD3) =  -157.704642667     A.U. after   11 cycles
 E2(B2PLYPD3) =    -0.2574947063D+00 E(B2PLYPD3) =    -0.15796213737283D+03

 The electronic state is 1-A.
 Alpha  occ. eigenvalues --  -10.67772 -10.64232 -10.61423 -10.60153  -0.94598
 Alpha  occ. eigenvalues --   -0.86484  -0.73161  -0.64179  -0.56018  -0.51687
 Alpha  occ. eigenvalues --   -0.46490  -0.46089  -0.40746  -0.39501  -0.38501
 Alpha  occ. eigenvalues --   -0.37189  -0.32850
 Alpha virt. eigenvalues --    0.04300   0.05451   0.06355   0.07342   0.09587
 Alpha virt. eigenvalues --    0.10756   0.11714   0.13276   0.13963   0.14674
 Alpha virt. eigenvalues --    0.15625   0.16316   0.17544   0.19349   0.19953

 Mulliken charges:
               1
     1  C   -0.503621
     2  C   -0.027879
     3  H    0.046486
     4  H    0.045872
     5  H    0.380085
     6  C   -0.053838
     7  H    0.016798
     8  H    0.009816
     9  C   -0.164006
    10  H    0.030437
    11  H    0.079164
    12  H    0.041120
    13  H    0.026262
    14  H    0.073303
 Sum of Mulliken charges =   0.00000

 Dipole moment (field-independent basis, Debye):
    X=              0.3626    Y=             -0.5180    Z=              0.2773  Tot=              0.6904
 Quadrupole moment (field-independent basis, Debye-Ang):
   XX=            -30.5680   YY=            -30.1363   ZZ=            -29.3477
   XY=              0.4012   XZ=              0.4159   YZ=              0.8846

 Normal termination of Gaussian 09 at Wed Aug 26 23:02:09 2020.
