 Gaussian 09, Revision D.01,
 Gaussian 09:  ES64L-G09RevD.01 24-Apr-2013

 --------------------
 #p B2PLYPD3/Def2QZVP
 --------------------

 ----------
 butane_opt
 ----------
 Symbolic Z-matrix:
 Charge =  0 Multiplicity = 1

                         Standard orientation:
 ---------------------------------------------------------------------
 Center     Atomic      Atomic             Coordinates (Angstroms)
 Number     Number       Type             X           Y           Z
 ---------------------------------------------------------------------
      1          6           0       -2.008033    0.146017   -0.142706
      2          6           0       -0.570754   -0.601927    0.067047
      3          1           0       -2.580468   -0.381045    0.216836
      4          1           0       -2.154330    1.585903   -1.106120
      5          1           0       -2.320665    0.327003    0.612478
      6          6           0        0.634415    0.370801    0.333581
      7          1           0       -0.339570   -1.182123   -0.908575
      8          1           0       -0.425092   -1.141055    0.694923
      9          6           0        1.941069   -0.027436   -0.217661
     10          1           0        0.770983    0.977950    1.455290
     11          1           0        0.295017    0.922593   -0.234777
     12          1           0        2.327162   -0.899803    0.446564
     13          1           0        2.873789    0.958444   -0.385068
     14          1           0        1.572987   -0.492600   -1.033115
 ---------------------------------------------------------------------

 SCF Done:  E(RB2PLYPD3) =  -157.579131224     A.U. after   12 cycles
 E2(B2PLYPD3) =    -0.2551718403D+00 E(B2PLYPD3) =    -0.15783430306469D+03

 The electronic state is 1-A.
 Alpha  occ. eigenvalues --  -10.61722 -10.61164 -10.60761 -10.58711  -0.96684
 Alpha  occ. eigenvalues --   -0.91264  -0.78938  -0.69016  -0.55969  -0.49862
 Alpha  occ. eigenvalues --   -0.46490  -0.45798  -0.40763  -0.40032  -0.37477
 Alpha  occ. eigenvalues --   -0.36430  -0.34313
 Alpha virt. eigenvalues --   -0.00476   0.05602   0.06923   0.07791   0.10010
 Alpha virt. eigenvalues --    0.11218   0.11660   0.13253   0.14660   0.15220
 Alpha virt. eigenvalues --    0.15579   0.17092   0.18419   0.19270   0.20269

 Mulliken charges:
               1
     1  C   -0.456731
     2  C   -0.228159
     3  H    0.178572
     4  H    0.060252
     5  H    0.237602
     6  C   -0.197148
     7  H    0.030828
     8  H    0.197163
     9  C   -0.157409
    10  H    0.005148
    11  H    0.188958
    12  H    0.032784
    13  H    0.039591
    14  H    0.068549
 Sum of Mulliken charges =   0.00000

 Dipole moment (field-independent basis, Debye):
    X=             -0.7403    Y=             -0.1039    Z=              0.5718  Tot=              0.9412
 Quadrupole moment (field-independent basis, Debye-Ang):
   XX=            -29.5220   YY=            -28.4683   ZZ=            -29.1200
   XY=             -0.0932   XZ=             -2.0640   YZ=             -1.5059

 Normal termination of Gaussian 09 at Wed Aug 26 19:29:31 2020.
