 Gaussian 09, Revision D.01,
 Gaussian 09:  ES64L-G09RevD.01 24-Apr-2013

 --------------------
 #p B2PLYPD3/Def2QZVP
 --------------------

 ----------
 butane_opt
 ----------
 Symbolic Z-matrix:
 Charge =  0 Multiplicity = 1

                         Standard orientation:
 ---------------------------------------------------------------------
 Center     Atomic      Atomic             Coordinates (Angstroms)
 Number     Number       Type             X           Y           Z
 ---------------------------------------------------------------------
      1          6           0       -2.012569   -0.170990   -0.165810
      2          6           0       -0.548486    0.548499    0.196772
      3          1           0       -2.644898    0.418975   -0.755371
      4          1           0       -2.775699   -0.734034    0.818251
      5          1           0       -1.739300   -0.541730   -0.846111
      6          6           0        0.586845   -0.466362    0.233778
      7          1           0       -0.320010    1.550244    1.270647
      8          1           0       -0.447586    0.941849   -0.697867
      9          6           0        1.931454    0.047479   -0.149099
     10          1           0        0.675751   -1.352506   -0.651331
     11          1           0        0.773841   -1.024201    1.216299
     12          1           0        1.867718    0.969580   -1.232540
     13          1           0        2.651134   -0.621225   -0.369814
     14          1           0        2.215586    0.641294    0.553988
 ---------------------------------------------------------------------

 SCF Done:  E(RB2PLYPD3) =  -157.827405139     A.U. after   11 cycles
 E2(B2PLYPD3) =    -0.2530195587D+00 E(B2PLYPD3) =    -0.15808042469777D+03

 The electronic state is 1-A.
 Alpha  occ. eigenvalues --  -10.65025 -10.63257 -10.60755 -10.60586  -0.92091
 Alpha  occ. eigenvalues --   -0.86066  -0.75368  -0.65585  -0.54158  -0.51036
 Alpha  occ. eigenvalues --   -0.49088  -0.46511  -0.42645  -0.39880  -0.37730
 Alpha  occ. eigenvalues --   -0.36194  -0.34526
 Alpha virt. eigenvalues --    0.04667   0.05613   0.06187   0.07650   0.09900
 Alpha virt. eigenvalues --    0.11027   0.11574   0.12815   0.13712   0.14904
 Alpha virt. eigenvalues --    0.16318   0.16686   0.17882   0.18792   0.20828

 Mulliken charges:
               1
     1  C   -0.327373
     2  C   -0.131375
     3  H    0.044015
     4  H    0.054474
     5  H    0.239200
     6  C   -0.025728
     7  H    0.012174
     8  H    0.117345
     9  C   -0.126715
    10  H    0.000777
    11  H    0.038075
    12  H   -0.026897
    13  H    0.067474
    14  H    0.064554
 Sum of Mulliken charges =   0.00000

 Dipole moment (field-independent basis, Debye):
    X=              0.1741    Y=             -0.2754    Z=             -0.2023  Tot=              0.3835
 Quadrupole moment (field-independent basis, Debye-Ang):
   XX=            -29.0499   YY=            -30.5748   ZZ=            -28.4420
   XY=             -1.0544   XZ=              1.6681   YZ=             -0.0064

 Normal termination of Gaussian 09 at Wed Aug 26 16:34:57 2020.
