 Gaussian 09, Revision D.01,
 Gaussian 09:  ES64L-G09RevD.01 24-Apr-2013

 --------------------
 #p B2PLYPD3/Def2QZVP
 --------------------

 ----------
 butane_opt
 ----------
 Symbolic Z-matrix:
 Charge =  0 Multiplicity = 1

                         Standard orientation:
 ---------------------------------------------------------------------
 Center     Atomic      Atomic             Coordinates (Angstroms)
 Number     Number       Type             X           Y           Z
 ---------------------------------------------------------------------
      1          6           0        1.896431    0.110752    0.129915
      2          6           0        0.670009   -0.518859   -0.104210
      3          1           0        2.805068   -0.837864   -0.034222
      4          1           0        1.969080    0.923276    1.218322
      5          1           0        2.199150    0.440646   -0.657973
      6          6           0       -0.533587    0.633927   -0.174444
      7          1           0        0.201806   -0.903027    0.656511
      8          1           0        0.803223   -1.266282   -1.032025
      9          6           0       -2.034122   -0.179907    0.056145
     10          1           0       -0.550315    1.167465   -0.873969
     11          1           0       -0.339740    1.282771    0.799424
     12          1           0       -2.067821   -0.299662   -0.434136
     13          1           0       -2.565949    0.292081   -0.305364
     14          1           0       -2.446890   -1.074878    1.218992
 ---------------------------------------------------------------------

 SCF Done:  E(RB2PLYPD3) =  -156.818751813     A.U. after   12 cycles
 E2(B2PLYPD3) =    -0.2545887987D+00 E(B2PLYPD3) =    -0.15707334061122D+03

 The electronic state is 1-A.
 Alpha  occ. eigenvalues --  -10.61714 -10.61607 -10.61482 -10.60326  -1.01229
 Alpha  occ. eigenvalues --   -0.91003  -0.78271  -0.69188  -0.54192  -0.50561
 Alpha  occ. eigenvalues --   -0.47312  -0.46195  -0.42964  -0.41811  -0.38811
 Alpha  occ. eigenvalues --   -0.37258  -0.32351
 Alpha virt. eigenvalues --    0.04296   0.05218   0.06913   0.07371   0.10362
 Alpha virt. eigenvalues --    0.10547   0.11856   0.12972   0.14362   0.15620
 Alpha virt. eigenvalues --    0.15836   0.16841   0.18220   0.18704   0.19998

 Mulliken charges:
               1
     1  C   -0.190230
     2  C   -0.054161
     3  H   -0.007256
     4  H    0.045708
     5  H    0.109862
     6  C   -0.109584
     7  H    0.090755
     8  H    0.025036
     9  C   -1.117150
    10  H    0.124903
    11  H    0.030359
    12  H    0.868846
    13  H    0.101510
    14  H    0.081400
 Sum of Mulliken charges =   0.00000

 Dipole moment (field-independent basis, Debye):
    X=             -0.4899    Y=              0.1681    Z=             -0.7537  Tot=              0.9145
 Quadrupole moment (field-independent basis, Debye-Ang):
   XX=            -29.7569   YY=            -29.0685   ZZ=            -26.8065
   XY=              0.7113   XZ=             -0.3773   YZ=             -0.4765

 Normal termination of Gaussian 09 at Wed Aug 26 19:39:22 2020.
