 Gaussian 09, Revision D.01,
 Gaussian 09:  ES64L-G09RevD.01 24-Apr-2013

 --------------------
 #p B2PLYPD3/Def2QZVP
 --------------------

 ----------
 butane_opt
 ----------
 Symbolic Z-matrix:
 Charge =  0 Multiplicity = 1

                         Standard orientation:
 ---------------------------------------------------------------------
 Center     Atomic      Atomic             Coordinates (Angstroms)
 Number     Number       Type             X           Y           Z
 ---------------------------------------------------------------------
      1          6           0        1.918860    0.169151    0.036878
      2          6           0        0.481063   -0.552852   -0.030095
      3          1           0        2.722902   -0.780727   -0.503686
      4          1           0        2.635937    1.534954    1.267330
      5          1           0        1.945866    0.150078   -0.515578
      6          6           0       -0.515629    0.424351   -0.221808
      7          1           0        0.138784   -1.302602    1.175443
      8          1           0        0.361773   -1.303324   -0.864322
      9          6           0       -1.852555   -0.015441    0.094932
     10          1           0       -0.910883    1.133805   -1.181780
     11          1           0       -0.368170    0.955867    0.538100
     12          1           0       -2.047613   -0.592647   -0.551193
     13          1           0       -2.639063    0.806090    0.063880
     14          1           0       -2.029963   -0.752750    1.292366
 ---------------------------------------------------------------------

 SCF Done:  E(RB2PLYPD3) =  -157.032224149     A.U. after   13 cycles
 E2(B2PLYPD3) =    -0.2650324891D+00 E(B2PLYPD3) =    -0.15729725663835D+03

 The electronic state is 1-A.
 Alpha  occ. eigenvalues --  -10.66577 -10.66056 -10.60424 -10.59584  -0.97149
 Alpha  occ. eigenvalues --   -0.91048  -0.77416  -0.67031  -0.54600  -0.50834
 Alpha  occ. eigenvalues --   -0.49354  -0.45593  -0.39529  -0.37571  -0.36431
 Alpha  occ. eigenvalues --   -0.35270  -0.34215
 Alpha virt. eigenvalues --   -0.05297   0.03960   0.05210   0.05771   0.09374
 Alpha virt. eigenvalues --    0.09724   0.11754   0.12250   0.13454   0.14950
 Alpha virt. eigenvalues --    0.15635   0.16287   0.17336   0.18764   0.19724

 Mulliken charges:
               1
     1  C   -1.004032
     2  C   -0.027868
     3  H    0.009481
     4  H    0.081933
     5  H    0.857349
     6  C   -0.082501
     7  H    0.020828
     8  H    0.047053
     9  C   -0.182439
    10  H    0.030284
    11  H    0.114717
    12  H    0.106837
    13  H    0.043438
    14  H   -0.015080
 Sum of Mulliken charges =   0.00000

 Dipole moment (field-independent basis, Debye):
    X=             -0.3131    Y=              0.5869    Z=             -0.9267  Tot=              1.1407
 Quadrupole moment (field-independent basis, Debye-Ang):
   XX=            -31.4444   YY=            -29.3935   ZZ=            -28.5337
   XY=              0.6235   XZ=              0.7810   YZ=              1.8675

 Normal termination of Gaussian 09 at Wed Aug 26 16:03:37 2020.
