 Gaussian 09, Revision D.01,
 Gaussian 09:  ES64L-G09RevD.01 24-Apr-2013

 --------------------
 #p B2PLYPD3/Def2QZVP
 --------------------

 ----------
 butane_opt
 ----------
 Symbolic Z-matrix:
 Charge =  0 Multiplicity = 1

                         Standard orientation:
 ---------------------------------------------------------------------
 Center     Atomic      Atomic             Coordinates (Angstroms)
 Number     Number       Type             X           Y           Z
 ---------------------------------------------------------------------
      1          6           0        1.833989    0.024016    0.078267
      2          6           0        0.575117   -0.382250   -0.086040
      3          1           0        2.716887   -0.774211   -0.433571
      4          1           0        2.237093    1.119717    1.211984
      5          1           0        1.764232    0.342461   -0.484917
      6          6           0       -0.452735    0.524647   -0.094425
      7          1           0        0.370894   -1.140232    0.741514
      8          1           0        0.650483   -1.123406   -0.929267
      9          6           0       -2.014772   -0.152803    0.087022
     10          1           0       -0.511197    1.396640   -1.169994
     11          1           0       -0.156297    1.068752    0.674768
     12          1           0       -2.266436   -0.533747   -0.534281
     13          1           0       -2.630920    0.429399   -0.037883
     14          1           0       -1.824334   -0.867034    1.052701
 ---------------------------------------------------------------------

 SCF Done:  E(RB2PLYPD3) =  -157.357244756     A.U. after   12 cycles
 E2(B2PLYPD3) =    -0.2537680974D+00 E(B2PLYPD3) =    -0.15761101285328D+03

 The electronic state is 1-A.
 Alpha  occ. eigenvalues --  -10.62770 -10.60805 -10.60478 -10.57042  -1.01059
 Alpha  occ. eigenvalues --   -0.89891  -0.81751  -0.67583  -0.55592  -0.52858
 Alpha  occ. eigenvalues --   -0.51220  -0.47266  -0.45007  -0.41536  -0.38541
 Alpha  occ. eigenvalues --   -0.35855  -0.32981
 Alpha virt. eigenvalues --    0.03080   0.05269   0.06499   0.06838   0.09876
 Alpha virt. eigenvalues --    0.11701   0.12775   0.13464   0.13877   0.14989
 Alpha virt. eigenvalues --    0.15841   0.16427   0.17538   0.20162   0.21389

 Mulliken charges:
               1
     1  C   -0.782333
     2  C    0.082146
     3  H    0.067800
     4  H   -0.000048
     5  H    0.617723
     6  C   -0.075091
     7  H   -0.003273
     8  H    0.020688
     9  C   -0.370306
    10  H   -0.029835
    11  H    0.091179
    12  H    0.232598
    13  H    0.084664
    14  H    0.064090
 Sum of Mulliken charges =   0.00000

 Dipole moment (field-independent basis, Debye):
    X=             -0.5843    Y=             -0.4242    Z=             -0.7007  Tot=              1.0061
 Quadrupole moment (field-independent basis, Debye-Ang):
   XX=            -29.3949   YY=            -29.4151   ZZ=            -28.6370
   XY=             -0.5021   XZ=             -0.4201   YZ=              0.5986

 Normal termination of Gaussian 09 at Wed Aug 26 13:13:45 2020.
