 Gaussian 09, Revision D.01,
 Gaussian 09:  ES64L-G09RevD.01 24-Apr-2013

 --------------------
 #p B2PLYPD3/Def2QZVP
 --------------------

 ----------
 butane_opt
 ----------
 Symbolic Z-matrix:
 Charge =  0 Multiplicity = 1

                         Standard orientation:
 ---------------------------------------------------------------------
 Center     Atomic      Atomic             Coordinates (Angstroms)
 Number     Number       Type             X           Y           Z
 ---------------------------------------------------------------------
      1          6           0        1.889867    0.034900   -0.149075
      2          6           0        0.507595   -0.469021    0.182271
      3          1           0        2.599550   -0.763330   -0.476752
      4          1           0        2.412935    0.942597    0.650225
      5          1           0        1.367651    0.607487   -1.085618
      6          6           0       -0.490552    0.549589    0.095760
      7          1           0        0.671382   -1.244748    1.304524
      8          1           0        0.546861   -0.878644   -0.603909
      9          6           0       -1.934824   -0.166846   -0.105988
     10          1           0       -0.346558    1.145171   -0.736977
     11          1           0       -0.162143    1.514480    1.153052
     12          1           0       -1.954948   -0.834421   -0.925169
     13          1           0       -2.849378    0.631639   -0.209840
     14          1           0       -2.117870   -0.811963    0.792657
 ---------------------------------------------------------------------

 SCF Done:  E(RB2PLYPD3) =  -157.909051260     A.U. after   11 cycles
 E2(B2PLYPD3) =    -0.2545448224D+00 E(B2PLYPD3) =    -0.15816359608215D+03

 The electronic state is 1-A.
 Alpha  occ. eigenvalues --  -10.64290 -10.63949 -10.62662 -10.60991  -0.95267
 Alpha  occ. eigenvalues --   -0.82654  -0.72052  -0.65599  -0.55528  -0.50446
 Alpha  occ. eigenvalues --   -0.48152  -0.46752  -0.42082  -0.40509  -0.37552
 Alpha  occ. eigenvalues --   -0.35552  -0.34956
 Alpha virt. eigenvalues --    0.04393   0.06269   0.06941   0.07084   0.10329
 Alpha virt. eigenvalues --    0.11045   0.11757   0.12896   0.13980   0.14805
 Alpha virt. eigenvalues --    0.15063   0.16388   0.18005   0.18978   0.20057

 Mulliken charges:
               1
     1  C   -0.153602
     2  C   -0.195098
     3  H    0.068193
     4  H    0.026784
     5  H    0.024565
     6  C   -0.058145
     7  H    0.014223
     8  H    0.197726
     9  C   -0.157137
    10  H    0.069378
    11  H   -0.001309
    12  H    0.062067
    13  H    0.038997
    14  H    0.063357
 Sum of Mulliken charges =   0.00000

 Dipole moment (field-independent basis, Debye):
    X=             -0.0982    Y=             -0.5093    Z=             -0.7383  Tot=              0.9023
 Quadrupole moment (field-independent basis, Debye-Ang):
   XX=            -30.5365   YY=            -29.9872   ZZ=            -29.5121
   XY=             -0.7722   XZ=              0.8181   YZ=              0.2161

 Normal termination of Gaussian 09 at Wed Aug 26 10:39:07 2020.
