 Gaussian 09, Revision D.01,
 Gaussian 09:  ES64L-G09RevD.01 24-Apr-2013

 --------------------
 #p B2PLYPD3/Def2QZVP
 --------------------

 ----------
 butane_opt
 ----------
 Symbolic Z-matrix:
 Charge =  0 Multiplicity = 1

                         Standard orientation:
 ---------------------------------------------------------------------
 Center     Atomic      Atomic             Coordinates (Angstroms)
 Number     Number       Type             X           Y           Z
 ---------------------------------------------------------------------
      1          6           0        1.950347    0.024585   -0.194903
      2          6           0        0.611462   -0.349248    0.399139
      3          1           0        2.792318   -0.945252   -0.517240
      4          1           0        2.366457    0.993781    0.559561
      5          1           0        1.859998    0.456539   -1.243525
      6          6           0       -0.518425    0.576673    0.030911
      7          1           0        0.706977   -0.933245    1.494271
      8          1           0        0.407100   -1.276764   -0.388301
      9          6           0       -2.034163   -0.223384   -0.117665
     10          1           0       -0.282386    1.073681   -0.926016
     11          1           0       -0.491718    1.414985    0.751347
     12          1           0       -2.329925   -1.286580   -0.906191
     13          1           0       -2.953129    0.746859   -0.014563
     14          1           0       -2.131018   -0.415758    0.485772
 ---------------------------------------------------------------------

 SCF Done:  E(RB2PLYPD3) =  -157.605896480     A.U. after   11 cycles
 E2(B2PLYPD3) =    -0.2550301599D+00 E(B2PLYPD3) =    -0.15786092663996D+03

 The electronic state is 1-A.
 Alpha  occ. eigenvalues --  -10.65183 -10.64097 -10.63450 -10.62472  -0.91062
 Alpha  occ. eigenvalues --   -0.85241  -0.74823  -0.64415  -0.52468  -0.48431
 Alpha  occ. eigenvalues --   -0.47314  -0.45319  -0.41824  -0.40848  -0.39302
 Alpha  occ. eigenvalues --   -0.36344  -0.33541
 Alpha virt. eigenvalues --    0.04460   0.04710   0.07426   0.07576   0.09744
 Alpha virt. eigenvalues --    0.10130   0.11336   0.12745   0.13853   0.14165
 Alpha virt. eigenvalues --    0.15295   0.16022   0.18085   0.19440   0.19861

 Mulliken charges:
               1
     1  C   -0.157393
     2  C   -0.039325
     3  H    0.044894
     4  H    0.020442
     5  H    0.050082
     6  C   -0.008677
     7  H    0.048123
     8  H    0.006232
     9  C   -0.750218
    10  H    0.050186
    11  H    0.035771
    12  H    0.077293
    13  H    0.042741
    14  H    0.579851
 Sum of Mulliken charges =   0.00000

 Dipole moment (field-independent basis, Debye):
    X=             -0.1046    Y=             -0.1237    Z=              0.1161  Tot=              0.1993
 Quadrupole moment (field-independent basis, Debye-Ang):
   XX=            -32.0580   YY=            -28.9546   ZZ=            -28.7863
   XY=              0.1995   XZ=             -1.3776   YZ=              0.6186

 Normal termination of Gaussian 09 at Wed Aug 26 22:22:49 2020.
