 Gaussian 09, Revision D.01,
 Gaussian 09:  ES64L-G09RevD.01 24-Apr-2013

 --------------------
 #p B2PLYPD3/Def2QZVP
 --------------------

 ----------
 butane_opt
 ----------
 Symbolic Z-matrix:
 Charge =  0 Multiplicity = 1

                         Standard orientation:
 ---------------------------------------------------------------------
 Center     Atomic      Atomic             Coordinates (Angstroms)
 Number     Number       Type             X           Y           Z
 ---------------------------------------------------------------------
      1          6           0        2.062758    0.106221   -0.006816
      2          6           0        0.524575   -0.614512    0.045856
      3          1           0        2.632251   -0.443191   -0.787098
      4          1           0        2.663420    1.378084    1.273447
      5          1           0        1.874204    0.497531   -0.726287
      6          6           0       -0.581540    0.483140   -0.010693
      7          1           0        0.416882   -1.363075    1.007942
      8          1           0        0.381333   -1.293337   -0.684179
      9          6           0       -1.999032   -0.087080   -0.025491
     10          1           0       -0.231473    1.186069   -0.990600
     11          1           0       -0.816545    1.174881    0.864410
     12          1           0       -1.885645   -0.353947   -0.822311
     13          1           0       -2.984588    0.868639   -0.197558
     14          1           0       -2.090405   -0.978263    1.045101
 ---------------------------------------------------------------------

 SCF Done:  E(RB2PLYPD3) =  -157.660289824     A.U. after   12 cycles
 E2(B2PLYPD3) =    -0.2608860461D+00 E(B2PLYPD3) =    -0.15792117587006D+03

 The electronic state is 1-A.
 Alpha  occ. eigenvalues --  -10.64312 -10.63994 -10.63634 -10.63062  -0.91892
 Alpha  occ. eigenvalues --   -0.86176  -0.75524  -0.66370  -0.53479  -0.48756
 Alpha  occ. eigenvalues --   -0.46667  -0.44863  -0.39705  -0.38215  -0.36801
 Alpha  occ. eigenvalues --   -0.36096  -0.34728
 Alpha virt. eigenvalues --   -0.03058   0.04206   0.06287   0.07115   0.09102
 Alpha virt. eigenvalues --    0.10203   0.10749   0.12390   0.13108   0.15383
 Alpha virt. eigenvalues --    0.15836   0.16814   0.17788   0.18317   0.19595

 Mulliken charges:
               1
     1  C   -0.375502
     2  C   -0.045496
     3  H    0.047599
     4  H    0.042086
     5  H    0.260215
     6  C   -0.041618
     7  H    0.010862
     8  H    0.068455
     9  C   -0.316202
    10  H    0.010173
    11  H    0.047632
    12  H    0.202841
    13  H    0.028415
    14  H    0.060540
 Sum of Mulliken charges =   0.00000

 Dipole moment (field-independent basis, Debye):
    X=             -0.2375    Y=             -0.0920    Z=             -0.9659  Tot=              0.9989
 Quadrupole moment (field-independent basis, Debye-Ang):
   XX=            -33.3080   YY=            -29.6801   ZZ=            -28.1730
   XY=              0.2433   XZ=             -1.7784   YZ=              0.5602

 Normal termination of Gaussian 09 at Wed Aug 26 22:34:01 2020.
