 Gaussian 09, Revision D.01,
 Gaussian 09:  ES64L-G09RevD.01 24-Apr-2013

 --------------------
 #p B2PLYPD3/Def2QZVP
 --------------------

 ----------
 butane_opt
 ----------
 Symbolic Z-matrix:
 Charge =  0 Multiplicity = 1

                         Standard orientation:
 ---------------------------------------------------------------------
 Center     Atomic      Atomic             Coordinates (Angstroms)
 Number     Number       Type             X           Y           Z
 ---------------------------------------------------------------------
      1          6           0        1.828953   -0.118205   -0.197093
      2          6           0        0.550781    0.503938    0.076645
      3          1           0        2.879461    0.827542    0.117549
      4          1           0        1.959245   -1.103840   -1.236262
      5          1           0        2.005817   -0.566178    0.686924
      6          6           0       -0.540457   -0.540197    0.244713
      7          1           0        0.093807    0.985769   -0.764072
      8          1           0        0.755783    1.499164    1.044688
      9          6           0       -1.900085    0.094811   -0.153389
     10          1           0       -0.421593   -1.480326    1.470842
     11          1           0       -0.169624   -0.860914   -0.274194
     12          1           0       -2.412272    1.052472    0.766162
     13          1           0       -2.560837   -0.536643   -0.596923
     14          1           0       -1.764937    0.540873   -1.039971
 ---------------------------------------------------------------------

 SCF Done:  E(RB2PLYPD3) =  -157.619048448     A.U. after   12 cycles
 E2(B2PLYPD3) =    -0.2578436899D+00 E(B2PLYPD3) =    -0.15787689213783D+03

 The electronic state is 1-A.
 Alpha  occ. eigenvalues --  -10.65418 -10.64191 -10.62626 -10.61999  -0.97493
 Alpha  occ. eigenvalues --   -0.84460  -0.76651  -0.66633  -0.54414  -0.50156
 Alpha  occ. eigenvalues --   -0.47660  -0.44807  -0.42001  -0.40137  -0.38587
 Alpha  occ. eigenvalues --   -0.35344  -0.34280
 Alpha virt. eigenvalues --    0.02848   0.04380   0.05308   0.05787   0.10032
 Alpha virt. eigenvalues --    0.10112   0.11906   0.12467   0.13438   0.14383
 Alpha virt. eigenvalues --    0.15536   0.16157   0.17982   0.18693   0.19411

 Mulliken charges:
               1
     1  C   -0.206369
     2  C   -0.021922
     3  H    0.022909
     4  H    0.038552
     5  H    0.103577
     6  C   -0.552930
     7  H    0.058521
     8  H    0.004065
     9  C   -0.125677
    10  H   -0.004388
    11  H    0.520130
    12  H    0.046988
    13  H    0.055893
    14  H    0.060651
 Sum of Mulliken charges =   0.00000

 Dipole moment (field-independent basis, Debye):
    X=             -0.2641    Y=             -0.0827    Z=             -0.6910  Tot=              0.7444
 Quadrupole moment (field-independent basis, Debye-Ang):
   XX=            -31.1204   YY=            -30.3347   ZZ=            -29.1055
   XY=             -0.7228   XZ=              2.4175   YZ=              1.2097

 Normal termination of Gaussian 09 at Wed Aug 26 14:44:16 2020.
