 Gaussian 09, Revision D.01,
 Gaussian 09:  ES64L-G09RevD.01 24-Apr-2013

 --------------------
 #p B2PLYPD3/Def2QZVP
 --------------------

 ----------
 butane_opt
 ----------
 Symbolic Z-matrix:
 Charge =  0 Multiplicity = 1

                         Standard orientation:
 ---------------------------------------------------------------------
 Center     Atomic      Atomic             Coordinates (Angstroms)
 Number     Number       Type             X           Y           Z
 ---------------------------------------------------------------------
      1          6           0        1.891175   -0.224426   -0.123136
      2          6           0        0.445008    0.603109   -0.013176
      3          1           0        2.838983    0.685039    0.157370
      4          1           0        2.403718   -1.456112   -1.076337
      5          1           0        2.101037   -0.449626    0.603808
      6          6           0       -0.627293   -0.394388    0.291654
      7          1           0        0.383153    0.886181   -0.758415
      8          1           0        0.561757    1.739712    1.020125
      9          6           0       -1.847670    0.071819   -0.174008
     10          1           0       -0.613919   -1.234583    1.698756
     11          1           0       -0.480492   -0.831206   -0.254675
     12          1           0       -2.228226    0.603404    0.514779
     13          1           0       -2.727146   -0.927614   -0.557253
     14          1           0       -1.406185    0.648119   -1.236159
 ---------------------------------------------------------------------

 SCF Done:  E(RB2PLYPD3) =  -157.336008451     A.U. after   12 cycles
 E2(B2PLYPD3) =    -0.2598147765D+00 E(B2PLYPD3) =    -0.15759582322708D+03

 The electronic state is 1-A.
 Alpha  occ. eigenvalues --  -10.64713 -10.64181 -10.63407 -10.61023  -0.99387
 Alpha  occ. eigenvalues --   -0.85859  -0.77176  -0.72817  -0.56591  -0.50684
 Alpha  occ. eigenvalues --   -0.47983  -0.44842  -0.42166  -0.39461  -0.37155
 Alpha  occ. eigenvalues --   -0.35138  -0.34745
 Alpha virt. eigenvalues --    0.00438   0.02223   0.04370   0.05854   0.09048
 Alpha virt. eigenvalues --    0.09989   0.11021   0.12540   0.13542   0.14092
 Alpha virt. eigenvalues --    0.15414   0.15527   0.17786   0.18089   0.19423

 Mulliken charges:
               1
     1  C   -0.434373
     2  C   -0.256370
     3  H    0.010983
     4  H    0.043311
     5  H    0.315062
     6  C   -0.563597
     7  H    0.305754
     8  H    0.003089
     9  C   -0.146257
    10  H   -0.008748
    11  H    0.574006
    12  H    0.096859
    13  H    0.024085
    14  H    0.036195
 Sum of Mulliken charges =   0.00000

 Dipole moment (field-independent basis, Debye):
    X=             -0.2685    Y=              0.0353    Z=             -0.0934  Tot=              0.2864
 Quadrupole moment (field-independent basis, Debye-Ang):
   XX=            -31.7593   YY=            -30.0175   ZZ=            -29.4995
   XY=             -0.6176   XZ=              0.7964   YZ=              0.9524

 Normal termination of Gaussian 09 at Wed Aug 26 15:38:12 2020.
