 Gaussian 09, Revision D.01,
 Gaussian 09:  ES64L-G09RevD.01 24-Apr-2013

 --------------------
 #p B2PLYPD3/Def2QZVP
 --------------------

 ----------
 butane_opt
 ----------
 Symbolic Z-matrix:
 Charge =  0 Multiplicity = 1

                         Standard orientation:
 ---------------------------------------------------------------------
 Center     Atomic      Atomic             Coordinates (Angstroms)
 Number     Number       Type             X           Y           Z
 ---------------------------------------------------------------------
      1          6           0       -1.903147   -0.145239    0.082037
      2          6           0       -0.490220    0.579759   -0.092115
      3          1           0       -2.622549    0.492708    0.042900
      4          1           0       -2.000979   -0.840355    0.871092
      5          1           0       -2.040594   -0.630651   -0.629417
      6          6           0        0.546828   -0.460468   -0.012294
      7          1           0       -0.482770    1.152418    0.570132
      8          1           0       -0.522784    1.187874   -1.000341
      9          6           0        1.864896    0.103373   -0.031357
     10          1           0        0.229360   -1.179257   -0.935249
     11          1           0        0.590170   -1.245895    0.994246
     12          1           0        1.813598    0.167542   -0.529170
     13          1           0        2.714390   -0.696025   -0.213734
     14          1           0        2.212017    1.127094    1.151914
 ---------------------------------------------------------------------

 SCF Done:  E(RB2PLYPD3) =  -156.986242244     A.U. after   12 cycles
 E2(B2PLYPD3) =    -0.2514924173D+00 E(B2PLYPD3) =    -0.15723773466087D+03

 The electronic state is 1-A.
 Alpha  occ. eigenvalues --  -10.63958 -10.63127 -10.58265 -10.55206  -0.97838
 Alpha  occ. eigenvalues --   -0.89174  -0.78178  -0.68231  -0.56163  -0.51211
 Alpha  occ. eigenvalues --   -0.49724  -0.48625  -0.43532  -0.43316  -0.38810
 Alpha  occ. eigenvalues --   -0.35661  -0.35001
 Alpha virt. eigenvalues --    0.03021   0.05742   0.07171   0.07771   0.10585
 Alpha virt. eigenvalues --    0.10780   0.13098   0.13451   0.14673   0.15759
 Alpha virt. eigenvalues --    0.15982   0.16882   0.19083   0.20341   0.21919

 Mulliken charges:
               1
     1  C   -0.195001
     2  C   -0.083609
     3  H    0.032956
     4  H    0.047007
     5  H    0.095142
     6  C    0.033705
     7  H    0.103634
     8  H    0.019938
     9  C   -1.059769
    10  H    0.023714
    11  H    0.012257
    12  H    0.837143
    13  H    0.094581
    14  H    0.038301
 Sum of Mulliken charges =   0.00000

 Dipole moment (field-independent basis, Debye):
    X=             -0.3534    Y=              0.1239    Z=             -0.4251  Tot=              0.5665
 Quadrupole moment (field-independent basis, Debye-Ang):
   XX=            -29.2912   YY=            -28.3947   ZZ=            -27.6677
   XY=             -0.5456   XZ=              0.2658   YZ=              0.5882

 Normal termination of Gaussian 09 at Wed Aug 26 10:15:42 2020.
