 Gaussian 09, Revision D.01,
 Gaussian 09:  ES64L-G09RevD.01 24-Apr-2013

 --------------------
 #p B2PLYPD3/Def2QZVP
 --------------------

 ----------
 butane_opt
 ----------
 Symbolic Z-matrix:
 Charge =  0 Multiplicity = 1

                         Standard orientation:
 ---------------------------------------------------------------------
 Center     Atomic      Atomic             Coordinates (Angstroms)
 Number     Number       Type             X           Y           Z
 ---------------------------------------------------------------------
      1          6           0        1.958253    0.141626   -0.054406
      2          6           0        0.515440   -0.596274   -0.028686
      3          1           0        2.560023   -0.261874    0.467766
      4          1           0        1.881503    0.282039    0.512506
      5          1           0        2.241508    1.225531   -1.205483
      6          6           0       -0.570329    0.497936    0.142310
      7          1           0        0.499551   -1.432435    1.036591
      8          1           0        0.400599   -1.157094   -0.875261
      9          6           0       -1.896303   -0.104546   -0.115269
     10          1           0       -0.341267    0.954044   -0.559121
     11          1           0       -0.700319    1.451089    1.338858
     12          1           0       -2.009479   -0.760013   -0.947844
     13          1           0       -2.742498    0.876170   -0.175531
     14          1           0       -1.831987   -0.809902    0.743831
 ---------------------------------------------------------------------

 SCF Done:  E(RB2PLYPD3) =  -157.242354164     A.U. after   12 cycles
 E2(B2PLYPD3) =    -0.2560927192D+00 E(B2PLYPD3) =    -0.15749844688272D+03

 The electronic state is 1-A.
 Alpha  occ. eigenvalues --  -10.64717 -10.62052 -10.61791 -10.59651  -0.99396
 Alpha  occ. eigenvalues --   -0.91034  -0.76156  -0.68301  -0.54214  -0.50184
 Alpha  occ. eigenvalues --   -0.48117  -0.45681  -0.41422  -0.39702  -0.37240
 Alpha  occ. eigenvalues --   -0.36365  -0.35346
 Alpha virt. eigenvalues --    0.02856   0.03572   0.06207   0.06765   0.09713
 Alpha virt. eigenvalues --    0.11237   0.11608   0.12220   0.14055   0.14906
 Alpha virt. eigenvalues --    0.16315   0.16823   0.17850   0.18863   0.19395

 Mulliken charges:
               1
     1  C   -0.897290
     2  C   -0.022122
     3  H    0.029976
     4  H    0.779242
     5  H    0.049801
     6  C   -0.175501
     7  H   -0.017034
     8  H    0.082355
     9  C   -0.172712
    10  H    0.181576
    11  H    0.003195
    12  H    0.056765
    13  H    0.041373
    14  H    0.060378
 Sum of Mulliken charges =   0.00000

 Dipole moment (field-independent basis, Debye):
    X=              0.0886    Y=             -0.0090    Z=             -0.1462  Tot=              0.1712
 Quadrupole moment (field-independent basis, Debye-Ang):
   XX=            -31.5821   YY=            -29.3490   ZZ=            -27.8565
   XY=              0.2349   XZ=              1.9776   YZ=             -0.6083

 Normal termination of Gaussian 09 at Wed Aug 26 21:54:30 2020.
