 Gaussian 09, Revision D.01,
 Gaussian 09:  ES64L-G09RevD.01 24-Apr-2013

 --------------------
 #p B2PLYPD3/Def2QZVP
 --------------------

 ----------
 butane_opt
 ----------
 Symbolic Z-matrix:
 Charge =  0 Multiplicity = 1

                         Standard orientation:
 ---------------------------------------------------------------------
 Center     Atomic      Atomic             Coordinates (Angstroms)
 Number     Number       Type             X           Y           Z
 ---------------------------------------------------------------------
      1          6           0        1.936393   -0.100957   -0.131667
      2          6           0        0.520007    0.478640    0.135680
      3          1           0        2.687674    0.669024   -0.138464
      4          1           0        1.775591   -0.737306   -0.967416
      5          1           0        1.925478   -0.578230    0.602393
      6          6           0       -0.550772   -0.586565    0.029922
      7          1           0        0.321103    0.882870   -0.429425
      8          1           0        0.770876    1.335777    1.283043
      9          6           0       -1.909634    0.161003   -0.105789
     10          1           0       -0.469979   -1.250671    0.934790
     11          1           0       -0.306461   -1.000116   -0.851819
     12          1           0       -1.774260    0.386578    0.530140
     13          1           0       -2.515606   -0.587677    0.647240
     14          1           0       -2.390372    1.167026   -1.179359
 ---------------------------------------------------------------------

 SCF Done:  E(RB2PLYPD3) =  -157.427994065     A.U. after   12 cycles
 E2(B2PLYPD3) =    -0.2533563989D+00 E(B2PLYPD3) =    -0.15768135046417D+03

 The electronic state is 1-A.
 Alpha  occ. eigenvalues --  -10.61434 -10.60941 -10.59210 -10.56798  -0.96638
 Alpha  occ. eigenvalues --   -0.88752  -0.77829  -0.70749  -0.55645  -0.50859
 Alpha  occ. eigenvalues --   -0.49403  -0.46190  -0.43082  -0.42209  -0.39149
 Alpha  occ. eigenvalues --   -0.35896  -0.34620
 Alpha virt. eigenvalues --    0.02521   0.05379   0.06956   0.07537   0.10913
 Alpha virt. eigenvalues --    0.11017   0.12399   0.13134   0.13920   0.15269
 Alpha virt. eigenvalues --    0.16334   0.16669   0.18244   0.18602   0.20558

 Mulliken charges:
               1
     1  C   -0.207294
     2  C   -0.506400
     3  H    0.059027
     4  H    0.043183
     5  H    0.144579
     6  C   -0.011864
     7  H    0.433221
     8  H   -0.018938
     9  C   -0.787146
    10  H    0.042240
    11  H    0.067504
    12  H    0.624146
    13  H    0.032305
    14  H    0.085437
 Sum of Mulliken charges =   0.00000

 Dipole moment (field-independent basis, Debye):
    X=              0.1803    Y=              0.0298    Z=             -0.0899  Tot=              0.2036
 Quadrupole moment (field-independent basis, Debye-Ang):
   XX=            -31.3306   YY=            -28.9628   ZZ=            -27.3743
   XY=             -0.5963   XZ=             -0.1122   YZ=             -1.6639

 Normal termination of Gaussian 09 at Wed Aug 26 19:32:07 2020.
