 Gaussian 09, Revision D.01,
 Gaussian 09:  ES64L-G09RevD.01 24-Apr-2013

 --------------------
 #p B2PLYPD3/Def2QZVP
 --------------------

 ----------
 butane_opt
 ----------
 Symbolic Z-matrix:
 Charge =  0 Multiplicity = 1

                         Standard orientation:
 ---------------------------------------------------------------------
 Center     Atomic      Atomic             Coordinates (Angstroms)
 Number     Number       Type             X           Y           Z
 ---------------------------------------------------------------------
      1          6           0       -1.944862   -0.157731   -0.194904
      2          6           0       -0.457821    0.648541    0.184634
      3          1           0       -2.479759    0.470214   -0.226623
      4          1           0       -2.289575   -0.594259    0.724924
      5          1           0       -1.760962   -1.130941   -1.080421
      6          6           0        0.521017   -0.432291    0.348760
      7          1           0       -0.526861    1.132504    0.794802
      8          1           0       -0.387283    1.093608   -0.880770
      9          6           0        1.885702    0.041804   -0.223857
     10          1           0        0.101628   -0.954150   -0.315204
     11          1           0        0.665885   -1.158210    1.400377
     12          1           0        1.537439    0.419846   -1.111936
     13          1           0        2.771514   -0.944127   -0.606124
     14          1           0        2.343756    1.063581    0.613174
 ---------------------------------------------------------------------

 SCF Done:  E(RB2PLYPD3) =  -157.743406980     A.U. after   11 cycles
 E2(B2PLYPD3) =    -0.2530767048D+00 E(B2PLYPD3) =    -0.15799648368502D+03

 The electronic state is 1-A.
 Alpha  occ. eigenvalues --  -10.64660 -10.60393 -10.60289 -10.59510  -0.93629
 Alpha  occ. eigenvalues --   -0.83214  -0.75749  -0.68831  -0.56641  -0.50505
 Alpha  occ. eigenvalues --   -0.47241  -0.46084  -0.42217  -0.41014  -0.38568
 Alpha  occ. eigenvalues --   -0.36797  -0.33765
 Alpha virt. eigenvalues --    0.04496   0.05656   0.07339   0.08564   0.10219
 Alpha virt. eigenvalues --    0.10701   0.11060   0.13401   0.14072   0.14823
 Alpha virt. eigenvalues --    0.16219   0.16922   0.18825   0.19309   0.20724

 Mulliken charges:
               1
     1  C   -0.292349
     2  C   -0.274812
     3  H    0.180557
     4  H    0.041071
     5  H    0.054262
     6  C   -0.084148
     7  H    0.229072
     8  H    0.058963
     9  C   -0.181980
    10  H    0.116282
    11  H    0.023168
    12  H    0.082186
    13  H    0.024539
    14  H    0.023188
 Sum of Mulliken charges =   0.00000

 Dipole moment (field-independent basis, Debye):
    X=             -0.8678    Y=              0.1738    Z=             -0.1517  Tot=              0.8979
 Quadrupole moment (field-independent basis, Debye-Ang):
   XX=            -31.7428   YY=            -28.8937   ZZ=            -28.3202
   XY=             -0.9491   XZ=             -0.4627   YZ=              0.8439

 Normal termination of Gaussian 09 at Wed Aug 26 15:18:35 2020.
