 Gaussian 09, Revision D.01,
 Gaussian 09:  ES64L-G09RevD.01 24-Apr-2013

 --------------------
 #p B2PLYPD3/Def2QZVP
 --------------------

 ----------
 butane_opt
 ----------
 Symbolic Z-matrix:
 Charge =  0 Multiplicity = 1

                         Standard orientation:
 ---------------------------------------------------------------------
 Center     Atomic      Atomic             Coordinates (Angstroms)
 Number     Number       Type             X           Y           Z
 ---------------------------------------------------------------------
      1          6           0        1.981283    0.093197    0.052984
      2          6           0        0.602980   -0.542475   -0.056916
      3          1           0        2.793637   -0.640351    0.107737
      4          1           0        1.952438    0.741754    1.067509
      5          1           0        2.143659    0.806377   -0.871692
      6          6           0       -0.571972    0.580227   -0.018572
      7          1           0        0.431715   -0.933057    0.608615
      8          1           0        0.450348   -1.278074   -1.073356
      9          6           0       -1.964274   -0.131429    0.054308
     10          1           0       -0.430708    1.232218   -0.890789
     11          1           0       -0.567255    1.143094    0.830488
     12          1           0       -2.059730   -0.596097   -0.683298
     13          1           0       -2.734054    0.502235   -0.334363
     14          1           0       -2.268154   -0.975220    1.048321
 ---------------------------------------------------------------------

 SCF Done:  E(RB2PLYPD3) =  -157.897696466     A.U. after   11 cycles
 E2(B2PLYPD3) =    -0.2482415314D+00 E(B2PLYPD3) =    -0.15814593799781D+03

 The electronic state is 1-A.
 Alpha  occ. eigenvalues --  -10.62104 -10.60668 -10.59424 -10.59305  -0.91400
 Alpha  occ. eigenvalues --   -0.84413  -0.73706  -0.69558  -0.54367  -0.48585
 Alpha  occ. eigenvalues --   -0.47772  -0.46695  -0.42258  -0.40713  -0.40100
 Alpha  occ. eigenvalues --   -0.38074  -0.35851
 Alpha virt. eigenvalues --    0.05505   0.06225   0.08160   0.08494   0.10765
 Alpha virt. eigenvalues --    0.11755   0.12547   0.13213   0.14733   0.15058
 Alpha virt. eigenvalues --    0.15715   0.16466   0.19088   0.19692   0.21364

 Mulliken charges:
               1
     1  C   -0.144363
     2  C   -0.313600
     3  H    0.057158
     4  H    0.038442
     5  H    0.040955
     6  C   -0.017871
     7  H    0.279028
     8  H    0.018420
     9  C   -0.223858
    10  H    0.029121
    11  H    0.056097
    12  H    0.114326
    13  H    0.032213
    14  H    0.033931
 Sum of Mulliken charges =   0.00000

 Dipole moment (field-independent basis, Debye):
    X=             -0.0450    Y=             -0.1086    Z=             -0.1730  Tot=              0.2091
 Quadrupole moment (field-independent basis, Debye-Ang):
   XX=            -29.9405   YY=            -29.0365   ZZ=            -27.8692
   XY=             -0.2509   XZ=              0.9275   YZ=             -0.5788

 Normal termination of Gaussian 09 at Wed Aug 26 19:05:08 2020.
