 Gaussian 09, Revision D.01,
 Gaussian 09:  ES64L-G09RevD.01 24-Apr-2013

 --------------------
 #p B2PLYPD3/Def2QZVP
 --------------------

 ----------
 butane_opt
 ----------
 Symbolic Z-matrix:
 Charge =  0 Multiplicity = 1

                         Standard orientation:
 ---------------------------------------------------------------------
 Center     Atomic      Atomic             Coordinates (Angstroms)
 Number     Number       Type             X           Y           Z
 ---------------------------------------------------------------------
      1          6           0       -1.943228    0.043987    0.135521
      2          6           0       -0.572677   -0.411416   -0.120566
      3          1           0       -2.876054   -0.617337   -0.185652
      4          1           0       -1.937114    0.218073   -0.428957
      5          1           0       -2.045388    0.951738    1.379940
      6          6           0        0.498252    0.568614   -0.158948
      7          1           0       -0.574378   -1.081826   -1.179539
      8          1           0       -0.344752   -1.062470    0.650953
      9          6           0        1.960471   -0.169040    0.114933
     10          1           0        0.378921    0.792444    0.356918
     11          1           0        0.522668    1.784719   -1.226820
     12          1           0        2.024936   -0.849530    1.054847
     13          1           0        2.806339    0.634972    0.607453
     14          1           0        2.387911   -0.963659   -0.854784
 ---------------------------------------------------------------------

 SCF Done:  E(RB2PLYPD3) =  -156.800686367     A.U. after   12 cycles
 E2(B2PLYPD3) =    -0.2573958313D+00 E(B2PLYPD3) =    -0.15705808219867D+03

 The electronic state is 1-A.
 Alpha  occ. eigenvalues --  -10.66476 -10.63729 -10.62392 -10.61342  -0.99439
 Alpha  occ. eigenvalues --   -0.90968  -0.74166  -0.70949  -0.55448  -0.50110
 Alpha  occ. eigenvalues --   -0.46697  -0.45841  -0.42231  -0.41363  -0.37805
 Alpha  occ. eigenvalues --   -0.35690  -0.34801
 Alpha virt. eigenvalues --    0.03134   0.04121   0.05039   0.06372   0.09767
 Alpha virt. eigenvalues --    0.10698   0.11285   0.12503   0.12923   0.14249
 Alpha virt. eigenvalues --    0.15230   0.16545   0.18142   0.19028   0.20324

 Mulliken charges:
               1
     1  C   -0.914843
     2  C    0.113708
     3  H    0.086458
     4  H    0.717340
     5  H    0.031647
     6  C   -0.877307
     7  H   -0.002595
     8  H    0.062951
     9  C   -0.128530
    10  H    0.771936
    11  H    0.006748
    12  H    0.042985
    13  H    0.038738
    14  H    0.050765
 Sum of Mulliken charges =   0.00000

 Dipole moment (field-independent basis, Debye):
    X=             -0.0698    Y=             -0.3695    Z=              0.3241  Tot=              0.4965
 Quadrupole moment (field-independent basis, Debye-Ang):
   XX=            -30.0621   YY=            -30.0682   ZZ=            -28.2244
   XY=             -0.1328   XZ=              2.1162   YZ=              0.8320

 Normal termination of Gaussian 09 at Wed Aug 26 19:53:26 2020.
