 Gaussian 09, Revision D.01,
 Gaussian 09:  ES64L-G09RevD.01 24-Apr-2013

 --------------------
 #p B2PLYPD3/Def2QZVP
 --------------------

 ----------
 butane_opt
 ----------
 Symbolic Z-matrix:
 Charge =  0 Multiplicity = 1

                         Standard orientation:
 ---------------------------------------------------------------------
 Center     Atomic      Atomic             Coordinates (Angstroms)
 Number     Number       Type             X           Y           Z
 ---------------------------------------------------------------------
      1          6           0        1.849725    0.156929   -0.084064
      2          6           0        0.657684   -0.471409    0.022603
      3          1           0        2.725388   -0.800300    0.078532
      4          1           0        2.068915    0.537287    0.582831
      5          1           0        1.862240    0.722679   -0.973103
      6          6           0       -0.526305    0.522504    0.155116
      7          1           0        0.339528   -1.089015    0.901348
      8          1           0        0.563642   -1.003415   -0.724123
      9          6           0       -1.969083   -0.178908   -0.114505
     10          1           0       -0.240523    0.977491   -0.465515
     11          1           0       -0.467601    1.340372    1.088813
     12          1           0       -1.911424   -0.501279   -0.912243
     13          1           0       -2.897074    0.691595   -0.369642
     14          1           0       -2.115214   -1.050110    0.918206
 ---------------------------------------------------------------------

 SCF Done:  E(RB2PLYPD3) =  -157.733606656     A.U. after   11 cycles
 E2(B2PLYPD3) =    -0.2494981893D+00 E(B2PLYPD3) =    -0.15798310484555D+03

 The electronic state is 1-A.
 Alpha  occ. eigenvalues --  -10.63025 -10.59153 -10.57551 -10.57427  -0.96090
 Alpha  occ. eigenvalues --   -0.85480  -0.75919  -0.71006  -0.58954  -0.51067
 Alpha  occ. eigenvalues --   -0.49178  -0.48531  -0.42567  -0.41736  -0.38933
 Alpha  occ. eigenvalues --   -0.38880  -0.32659
 Alpha virt. eigenvalues --    0.04613   0.06026   0.08268   0.08537   0.10242
 Alpha virt. eigenvalues --    0.11480   0.12724   0.13448   0.14287   0.15096
 Alpha virt. eigenvalues --    0.15611   0.16908   0.18635   0.19435   0.20747

 Mulliken charges:
               1
     1  C   -0.319701
     2  C   -0.023046
     3  H    0.011650
     4  H    0.203331
     5  H    0.065044
     6  C   -0.265945
     7  H    0.015230
     8  H    0.079983
     9  C   -0.254917
    10  H    0.228431
    11  H    0.023290
    12  H    0.162821
    13  H    0.028982
    14  H    0.044847
 Sum of Mulliken charges =   0.00000

 Dipole moment (field-independent basis, Debye):
    X=              0.1990    Y=              0.1965    Z=             -0.5072  Tot=              0.5792
 Quadrupole moment (field-independent basis, Debye-Ang):
   XX=            -31.3819   YY=            -28.9267   ZZ=            -27.6308
   XY=              0.4900   XZ=              1.0239   YZ=             -0.3668

 Normal termination of Gaussian 09 at Wed Aug 26 21:32:47 2020.
