 Gaussian 09, Revision D.01,
 Gaussian 09:  ES64L-G09RevD.01 24-Apr-2013

 --------------------
 #p B2PLYPD3/Def2QZVP
 --------------------

 ----------
 butane_opt
 ----------
 Symbolic Z-matrix:
 Charge =  0 Multiplicity = 1

                         Standard orientation:
 ---------------------------------------------------------------------
 Center     Atomic      Atomic             Coordinates (Angstroms)
 Number     Number       Type             X           Y           Z
 ---------------------------------------------------------------------
      1          6           0       -1.958653   -0.202865   -0.042643
      2          6           0       -0.434897    0.532059   -0.029354
      3          1           0       -2.925490    0.662754   -0.449953
      4          1           0       -2.084370   -0.460880    0.777417
      5          1           0       -2.132389   -1.003664   -0.899785
      6          6           0        0.586427   -0.405146    0.332620
      7          1           0       -0.690041    1.505784    0.803283
      8          1           0        0.021289    0.905727   -0.845880
      9          6           0        1.866229    0.060824   -0.169282
     10          1           0        0.379648   -0.970884   -0.225797
     11          1           0        0.512343   -0.905960    1.246949
     12          1           0        1.435073    0.227390   -1.006601
     13          1           0        2.670634   -0.980595   -0.623111
     14          1           0        2.458658    1.111095    0.675426
 ---------------------------------------------------------------------

 SCF Done:  E(RB2PLYPD3) =  -157.767589038     A.U. after   11 cycles
 E2(B2PLYPD3) =    -0.2535892121D+00 E(B2PLYPD3) =    -0.15802117825000D+03

 The electronic state is 1-A.
 Alpha  occ. eigenvalues --  -10.64504 -10.62846 -10.62824 -10.56671  -0.98397
 Alpha  occ. eigenvalues --   -0.82988  -0.73725  -0.70331  -0.57029  -0.51111
 Alpha  occ. eigenvalues --   -0.48805  -0.45314  -0.42337  -0.41699  -0.38069
 Alpha  occ. eigenvalues --   -0.36519  -0.35108
 Alpha virt. eigenvalues --    0.03784   0.05432   0.07745   0.08387   0.09162
 Alpha virt. eigenvalues --    0.10243   0.12120   0.12708   0.14265   0.14556
 Alpha virt. eigenvalues --    0.16125   0.16405   0.18389   0.19095   0.20995

 Mulliken charges:
               1
     1  C   -0.240443
     2  C   -0.049589
     3  H    0.019336
     4  H    0.165593
     5  H    0.036595
     6  C   -0.268348
     7  H   -0.007843
     8  H    0.072744
     9  C   -0.201855
    10  H    0.261644
    11  H    0.041542
    12  H    0.110573
    13  H    0.014600
    14  H    0.045451
 Sum of Mulliken charges =   0.00000

 Dipole moment (field-independent basis, Debye):
    X=             -0.3633    Y=             -0.5901    Z=             -0.1985  Tot=              0.7208
 Quadrupole moment (field-independent basis, Debye-Ang):
   XX=            -32.2839   YY=            -29.6908   ZZ=            -28.2712
   XY=              0.4080   XZ=             -0.1448   YZ=              0.5411

 Normal termination of Gaussian 09 at Wed Aug 26 11:45:23 2020.
