 Gaussian 09, Revision D.01,
 Gaussian 09:  ES64L-G09RevD.01 24-Apr-2013

 --------------------
 #p B2PLYPD3/Def2QZVP
 --------------------

 ----------
 butane_opt
 ----------
 Symbolic Z-matrix:
 Charge =  0 Multiplicity = 1

                         Standard orientation:
 ---------------------------------------------------------------------
 Center     Atomic      Atomic             Coordinates (Angstroms)
 Number     Number       Type             X           Y           Z
 ---------------------------------------------------------------------
      1          6           0       -1.878297    0.037987    0.029210
      2          6           0       -0.535991   -0.414858   -0.098716
      3          1           0       -2.849981   -0.826453    0.191676
      4          1           0       -2.219564    0.429862   -0.698833
      5          1           0       -1.803692    1.021208    1.133773
      6          6           0        0.518445    0.595645   -0.118236
      7          1           0       -0.324104   -1.091273   -1.062727
      8          1           0       -0.432895   -1.214805    0.844841
      9          6           0        1.871563   -0.162998    0.071765
     10          1           0        0.111267    1.073109    0.830386
     11          1           0        0.490406    1.301660   -1.019456
     12          1           0        2.180214   -0.847358    0.990502
     13          1           0        2.647883    0.483763    0.297419
     14          1           0        2.346144   -0.664369   -0.811712
 ---------------------------------------------------------------------

 SCF Done:  E(RB2PLYPD3) =  -157.949092569     A.U. after   11 cycles
 E2(B2PLYPD3) =    -0.2529748939D+00 E(B2PLYPD3) =    -0.15820206746298D+03

 The electronic state is 1-A.
 Alpha  occ. eigenvalues --  -10.62948 -10.62698 -10.62336 -10.60954  -0.93343
 Alpha  occ. eigenvalues --   -0.83588  -0.74271  -0.64995  -0.55458  -0.50863
 Alpha  occ. eigenvalues --   -0.48899  -0.45542  -0.41647  -0.39360  -0.38211
 Alpha  occ. eigenvalues --   -0.36840  -0.34588
 Alpha virt. eigenvalues --    0.04396   0.06021   0.07040   0.07522   0.09775
 Alpha virt. eigenvalues --    0.10965   0.12654   0.13170   0.14004   0.14864
 Alpha virt. eigenvalues --    0.15515   0.16552   0.19300   0.19669   0.21634

 Mulliken charges:
               1
     1  C   -0.188954
     2  C   -0.015241
     3  H    0.035834
     4  H    0.110844
     5  H   -0.014134
     6  C   -0.049629
     7  H    0.009847
     8  H    0.041990
     9  C   -0.123228
    10  H    0.041495
    11  H    0.051237
    12  H    0.029659
    13  H    0.034679
    14  H    0.035601
 Sum of Mulliken charges =   0.00000

 Dipole moment (field-independent basis, Debye):
    X=              0.3139    Y=              0.0693    Z=             -0.5427  Tot=              0.6308
 Quadrupole moment (field-independent basis, Debye-Ang):
   XX=            -29.2266   YY=            -30.3949   ZZ=            -28.9043
   XY=              0.1853   XZ=              1.1506   YZ=             -0.6378

 Normal termination of Gaussian 09 at Wed Aug 26 13:28:51 2020.
