 Gaussian 09, Revision D.01,
 Gaussian 09:  ES64L-G09RevD.01 24-Apr-2013

 --------------------
 #p B2PLYPD3/Def2QZVP
 --------------------

 ----------
 butane_opt
 ----------
 Symbolic Z-matrix:
 Charge =  0 Multiplicity = 1

                         Standard orientation:
 ---------------------------------------------------------------------
 Center     Atomic      Atomic             Coordinates (Angstroms)
 Number     Number       Type             X           Y           Z
 ---------------------------------------------------------------------
      1          6           0        1.912217    0.045151   -0.151283
      2          6           0        0.612186   -0.449369    0.265736
      3          1           0        2.589903   -0.883687   -0.788811
      4          1           0        2.574664    1.168977    0.858973
      5          1           0        1.634350    0.258999   -0.735030
      6          6           0       -0.496238    0.678930    0.026744
      7          1           0        0.929128   -1.190139    1.249939
      8          1           0        0.264021   -1.088445   -0.552167
      9          6           0       -2.022604   -0.190466   -0.053540
     10          1           0       -0.386038    1.339224   -1.090020
     11          1           0       -0.636342    1.225817    0.810064
     12          1           0       -1.883210   -1.171010   -0.963937
     13          1           0       -2.771415    0.484152   -0.224107
     14          1           0       -2.348426   -0.649358    0.909149
 ---------------------------------------------------------------------

 SCF Done:  E(RB2PLYPD3) =  -157.601502612     A.U. after   12 cycles
 E2(B2PLYPD3) =    -0.2567367904D+00 E(B2PLYPD3) =    -0.15785823940203D+03

 The electronic state is 1-A.
 Alpha  occ. eigenvalues --  -10.64745 -10.63577 -10.63339 -10.61688  -0.94947
 Alpha  occ. eigenvalues --   -0.83295  -0.73366  -0.67104  -0.54749  -0.48350
 Alpha  occ. eigenvalues --   -0.47766  -0.45231  -0.41446  -0.39886  -0.37650
 Alpha  occ. eigenvalues --   -0.36027  -0.34382
 Alpha virt. eigenvalues --    0.02402   0.04783   0.06391   0.07018   0.09536
 Alpha virt. eigenvalues --    0.10386   0.11022   0.12543   0.13226   0.14471
 Alpha virt. eigenvalues --    0.15659   0.16654   0.18126   0.19013   0.19867

 Mulliken charges:
               1
     1  C   -0.708218
     2  C   -0.038867
     3  H    0.046343
     4  H    0.013558
     5  H    0.563663
     6  C   -0.092076
     7  H    0.048448
     8  H    0.056939
     9  C   -0.160985
    10  H    0.040379
    11  H    0.082924
    12  H    0.018589
    13  H    0.072152
    14  H    0.057152
 Sum of Mulliken charges =   0.00000

 Dipole moment (field-independent basis, Debye):
    X=             -0.7991    Y=              0.1672    Z=             -0.2358  Tot=              0.8498
 Quadrupole moment (field-independent basis, Debye-Ang):
   XX=            -32.2773   YY=            -29.4361   ZZ=            -28.5296
   XY=             -1.3651   XZ=             -0.9165   YZ=              0.5653

 Normal termination of Gaussian 09 at Wed Aug 26 11:18:40 2020.
