 Gaussian 09, Revision D.01,
 Gaussian 09:  ES64L-G09RevD.01 24-Apr-2013

 --------------------
 #p B2PLYPD3/Def2QZVP
 --------------------

 ----------
 butane_opt
 ----------
 Symbolic Z-matrix:
 Charge =  0 Multiplicity = 1

                         Standard orientation:
 ---------------------------------------------------------------------
 Center     Atomic      Atomic             Coordinates (Angstroms)
 Number     Number       Type             X           Y           Z
 ---------------------------------------------------------------------
      1          6           0       -1.970138    0.080181    0.117237
      2          6           0       -0.611194   -0.539275   -0.065677
      3          1           0       -2.618288   -0.595144   -0.341409
      4          1           0       -2.015306    0.434587   -0.502814
      5          1           0       -2.454363    1.123642    1.215011
      6          6           0        0.570735    0.543615   -0.239858
      7          1           0       -0.797760   -1.166063   -0.975155
      8          1           0       -0.314803   -0.906725    0.754333
      9          6           0        1.991275   -0.161279    0.179648
     10          1           0        0.581521    1.167969    0.609693
     11          1           0        0.542278    1.166360   -1.106718
     12          1           0        2.094513   -0.717190    1.070002
     13          1           0        2.731174    0.540061   -0.145070
     14          1           0        2.366965   -0.586943   -0.525970
 ---------------------------------------------------------------------

 SCF Done:  E(RB2PLYPD3) =  -157.711515130     A.U. after   11 cycles
 E2(B2PLYPD3) =    -0.2502295018D+00 E(B2PLYPD3) =    -0.15796174463169D+03

 The electronic state is 1-A.
 Alpha  occ. eigenvalues --  -10.60826 -10.60149 -10.58716 -10.57584  -0.93435
 Alpha  occ. eigenvalues --   -0.86853  -0.77679  -0.69483  -0.55432  -0.51012
 Alpha  occ. eigenvalues --   -0.48878  -0.46474  -0.44981  -0.39941  -0.38092
 Alpha  occ. eigenvalues --   -0.36413  -0.35053
 Alpha virt. eigenvalues --    0.04031   0.05944   0.07186   0.08756   0.10386
 Alpha virt. eigenvalues --    0.11810   0.12804   0.13100   0.14541   0.15600
 Alpha virt. eigenvalues --    0.16165   0.16820   0.18341   0.19509   0.21424

 Mulliken charges:
               1
     1  C   -0.560405
     2  C   -0.035651
     3  H    0.040491
     4  H    0.422393
     5  H    0.026107
     6  C   -0.092583
     7  H    0.033068
     8  H    0.080901
     9  C   -0.172811
    10  H    0.065585
    11  H    0.036576
    12  H    0.062238
    13  H    0.026395
    14  H    0.067696
 Sum of Mulliken charges =   0.00000

 Dipole moment (field-independent basis, Debye):
    X=              0.4152    Y=             -0.1168    Z=             -0.8392  Tot=              0.9436
 Quadrupole moment (field-independent basis, Debye-Ang):
   XX=            -29.5421   YY=            -29.0437   ZZ=            -27.3696
   XY=             -0.1395   XZ=              1.2655   YZ=             -0.1336

 Normal termination of Gaussian 09 at Wed Aug 26 11:02:12 2020.
