 Gaussian 09, Revision D.01,
 Gaussian 09:  ES64L-G09RevD.01 24-Apr-2013

 --------------------
 #p B2PLYPD3/Def2QZVP
 --------------------

 ----------
 butane_opt
 ----------
 Symbolic Z-matrix:
 Charge =  0 Multiplicity = 1

                         Standard orientation:
 ---------------------------------------------------------------------
 Center     Atomic      Atomic             Coordinates (Angstroms)
 Number     Number       Type             X           Y           Z
 ---------------------------------------------------------------------
      1          6           0        1.914077   -0.078121    0.045461
      2          6           0        0.570736    0.436936   -0.077677
      3          1           0        2.783921    0.884436   -0.123326
      4          1           0        1.862076   -0.644240   -0.765247
      5          1           0        2.137040   -0.776020    1.062687
      6          6           0       -0.522679   -0.568653   -0.006805
      7          1           0        0.430794    1.075109   -0.999548
      8          1           0        0.296686    1.081698    0.674681
      9          6           0       -1.946354    0.144589    0.006188
     10          1           0       -0.290660   -1.125555    0.880825
     11          1           0       -0.462144   -1.154248   -0.768263
     12          1           0       -2.201727    1.123897    1.142396
     13          1           0       -2.690716   -0.530357   -0.219851
     14          1           0       -1.959952    0.456769   -0.687357
 ---------------------------------------------------------------------

 SCF Done:  E(RB2PLYPD3) =  -157.841912823     A.U. after   11 cycles
 E2(B2PLYPD3) =    -0.2491278028D+00 E(B2PLYPD3) =    -0.15809104062537D+03

 The electronic state is 1-A.
 Alpha  occ. eigenvalues --  -10.62019 -10.59905 -10.59230 -10.58928  -0.94046
 Alpha  occ. eigenvalues --   -0.86489  -0.75800  -0.67581  -0.55654  -0.49736
 Alpha  occ. eigenvalues --   -0.48584  -0.48067  -0.43027  -0.39900  -0.38769
 Alpha  occ. eigenvalues --   -0.37593  -0.36819
 Alpha virt. eigenvalues --    0.04591   0.05781   0.07862   0.08102   0.10640
 Alpha virt. eigenvalues --    0.11358   0.11723   0.13389   0.14833   0.15360
 Alpha virt. eigenvalues --    0.15933   0.16117   0.19248   0.19546   0.21040

 Mulliken charges:
               1
     1  C   -0.181735
     2  C   -0.011871
     3  H    0.033450
     4  H    0.075723
     5  H    0.034719
     6  C   -0.030019
     7  H    0.007176
     8  H    0.041238
     9  C   -0.446678
    10  H    0.031988
    11  H    0.049224
    12  H    0.026962
    13  H    0.053242
    14  H    0.316581
 Sum of Mulliken charges =   0.00000

 Dipole moment (field-independent basis, Debye):
    X=             -0.1948    Y=             -0.2572    Z=             -0.6084  Tot=              0.6886
 Quadrupole moment (field-independent basis, Debye-Ang):
   XX=            -30.8489   YY=            -29.0533   ZZ=            -27.9230
   XY=              0.4044   XZ=              1.1846   YZ=              0.2876

 Normal termination of Gaussian 09 at Wed Aug 26 22:24:01 2020.
