 Gaussian 09, Revision D.01,
 Gaussian 09:  ES64L-G09RevD.01 24-Apr-2013

 --------------------
 #p B2PLYPD3/Def2QZVP
 --------------------

 ----------
 butane_opt
 ----------
 Symbolic Z-matrix:
 Charge =  0 Multiplicity = 1

                         Standard orientation:
 ---------------------------------------------------------------------
 Center     Atomic      Atomic             Coordinates (Angstroms)
 Number     Number       Type             X           Y           Z
 ---------------------------------------------------------------------
      1          6           0        1.946982    0.108422    0.006354
      2          6           0        0.611444   -0.472346   -0.010658
      3          1           0        2.771564   -0.876277   -0.265012
      4          1           0        2.051099    0.780547    1.039975
      5          1           0        2.043719    0.362739   -0.522803
      6          6           0       -0.454487    0.633237   -0.022922
      7          1           0        0.327590   -1.232849    0.852845
      8          1           0        0.686339   -1.202522   -0.886093
      9          6           0       -2.018766   -0.146109   -0.014125
     10          1           0       -0.586054    1.195190   -0.818261
     11          1           0       -0.400536    1.444161    0.939917
     12          1           0       -1.964866   -0.448818   -0.723143
     13          1           0       -2.675503    0.349869   -0.568875
     14          1           0       -2.764398   -1.111265    1.199557
 ---------------------------------------------------------------------

 SCF Done:  E(RB2PLYPD3) =  -157.273216030     A.U. after   12 cycles
 E2(B2PLYPD3) =    -0.2548853844D+00 E(B2PLYPD3) =    -0.15752810141438D+03

 The electronic state is 1-A.
 Alpha  occ. eigenvalues --  -10.64286 -10.62455 -10.60957 -10.60306  -0.94389
 Alpha  occ. eigenvalues --   -0.89447  -0.79230  -0.69445  -0.54909  -0.51551
 Alpha  occ. eigenvalues --   -0.48374  -0.45515  -0.40970  -0.39921  -0.37675
 Alpha  occ. eigenvalues --   -0.36943  -0.34972
 Alpha virt. eigenvalues --    0.01504   0.04757   0.06905   0.07564   0.09510
 Alpha virt. eigenvalues --    0.11103   0.11722   0.12332   0.14258   0.15444
 Alpha virt. eigenvalues --    0.16620   0.16759   0.17947   0.18210   0.19631

 Mulliken charges:
               1
     1  C   -0.791455
     2  C    0.045758
     3  H    0.037298
     4  H    0.078284
     5  H    0.587671
     6  C   -0.069844
     7  H    0.052058
     8  H    0.011517
     9  C   -0.482180
    10  H    0.071780
    11  H    0.026615
    12  H    0.347853
    13  H    0.055696
    14  H    0.028950
 Sum of Mulliken charges =   0.00000

 Dipole moment (field-independent basis, Debye):
    X=              0.1208    Y=              0.3235    Z=             -1.0836  Tot=              1.1373
 Quadrupole moment (field-independent basis, Debye-Ang):
   XX=            -31.8081   YY=            -29.0892   ZZ=            -27.5818
   XY=              0.0619   XZ=              0.9072   YZ=             -0.2453

 Normal termination of Gaussian 09 at Wed Aug 26 10:36:02 2020.
