 Gaussian 09, Revision D.01,
 Gaussian 09:  ES64L-G09RevD.01 24-Apr-2013

 --------------------
 #p B2PLYPD3/Def2QZVP
 --------------------

 ----------
 butane_opt
 ----------
 Symbolic Z-matrix:
 Charge =  0 Multiplicity = 1

                         Standard orientation:
 ---------------------------------------------------------------------
 Center     Atomic      Atomic             Coordinates (Angstroms)
 Number     Number       Type             X           Y           Z
 ---------------------------------------------------------------------
      1          6           0       -1.842842   -0.068234   -0.117425
      2          6           0       -0.598654    0.468079    0.049425
      3          1           0       -2.842358    0.770796    0.074054
      4          1           0       -2.186851   -0.816056    0.805742
      5          1           0       -1.993092   -0.607074   -0.947470
      6          6           0        0.558866   -0.624921   -0.051574
      7          1           0       -0.767694    1.507838    1.364234
      8          1           0       -0.361892    0.848518   -0.673078
      9          6           0        1.992171    0.170759   -0.007462
     10          1           0        0.266233   -1.265879   -0.852138
     11          1           0        0.256854   -1.186397    0.859722
     12          1           0        2.510990    1.376982   -1.180171
     13          1           0        2.749451   -0.631276    0.726912
     14          1           0        1.711117    0.328453    0.584408
 ---------------------------------------------------------------------

 SCF Done:  E(RB2PLYPD3) =  -157.436438413     A.U. after   12 cycles
 E2(B2PLYPD3) =    -0.2609695234D+00 E(B2PLYPD3) =    -0.15769740793634D+03

 The electronic state is 1-A.
 Alpha  occ. eigenvalues --  -10.64446 -10.63812 -10.62427 -10.62332  -0.95881
 Alpha  occ. eigenvalues --   -0.89077  -0.74938  -0.68870  -0.55985  -0.49852
 Alpha  occ. eigenvalues --   -0.47713  -0.44916  -0.42301  -0.40452  -0.37598
 Alpha  occ. eigenvalues --   -0.34307  -0.33355
 Alpha virt. eigenvalues --   -0.01482   0.01704   0.05800   0.06701   0.09990
 Alpha virt. eigenvalues --    0.10133   0.11055   0.12052   0.13626   0.14890
 Alpha virt. eigenvalues --    0.15022   0.16218   0.17121   0.18333   0.19698

 Mulliken charges:
               1
     1  C   -0.131369
     2  C   -0.211919
     3  H    0.034961
     4  H    0.009159
     5  H    0.067068
     6  C   -0.067321
     7  H   -0.026973
     8  H    0.216459
     9  C   -0.774167
    10  H    0.062458
    11  H    0.056058
    12  H    0.071966
    13  H    0.049729
    14  H    0.643891
 Sum of Mulliken charges =   0.00000

 Dipole moment (field-independent basis, Debye):
    X=             -0.3264    Y=             -0.3567    Z=             -0.4447  Tot=              0.6569
 Quadrupole moment (field-independent basis, Debye-Ang):
   XX=            -31.8251   YY=            -30.1541   ZZ=            -28.5065
   XY=              1.2279   XZ=              0.3932   YZ=             -1.2987

 Normal termination of Gaussian 09 at Wed Aug 26 22:37:19 2020.
