 Gaussian 09, Revision D.01,
 Gaussian 09:  ES64L-G09RevD.01 24-Apr-2013

 --------------------
 #p B2PLYPD3/Def2QZVP
 --------------------

 ----------
 butane_opt
 ----------
 Symbolic Z-matrix:
 Charge =  0 Multiplicity = 1

                         Standard orientation:
 ---------------------------------------------------------------------
 Center     Atomic      Atomic             Coordinates (Angstroms)
 Number     Number       Type             X           Y           Z
 ---------------------------------------------------------------------
      1          6           0       -1.870170    0.069161    0.100384
      2          6           0       -0.539749   -0.436761   -0.139991
      3          1           0       -2.535156   -0.687916   -0.351092
      4          1           0       -1.961366    0.231620   -0.458368
      5          1           0       -2.074833    1.006576    1.349236
      6          6           0        0.532498    0.566341   -0.041782
      7          1           0       -0.664263   -1.181817   -1.097420
      8          1           0       -0.649816   -1.170557    0.718060
      9          6           0        1.871396   -0.152863    0.032475
     10          1           0        0.499073    1.181254    0.782579
     11          1           0        0.228128    1.408134   -0.890117
     12          1           0        2.626036   -1.411411    1.227669
     13          1           0        2.711065    0.784038   -0.454764
     14          1           0        1.857283   -0.435181   -0.532302
 ---------------------------------------------------------------------

 SCF Done:  E(RB2PLYPD3) =  -156.887807455     A.U. after   13 cycles
 E2(B2PLYPD3) =    -0.2617742779D+00 E(B2PLYPD3) =    -0.15714958173272D+03

 The electronic state is 1-A.
 Alpha  occ. eigenvalues --  -10.64091 -10.62642 -10.61786 -10.60130  -0.98260
 Alpha  occ. eigenvalues --   -0.92100  -0.79305  -0.68991  -0.54913  -0.51734
 Alpha  occ. eigenvalues --   -0.48841  -0.44539  -0.42140  -0.37945  -0.37517
 Alpha  occ. eigenvalues --   -0.35009  -0.33770
 Alpha virt. eigenvalues --   -0.02895   0.03323   0.05101   0.06178   0.09066
 Alpha virt. eigenvalues --    0.10485   0.10944   0.12209   0.13301   0.15379
 Alpha virt. eigenvalues --    0.15662   0.16929   0.18014   0.18609   0.20339

 Mulliken charges:
               1
     1  C   -0.865282
     2  C    0.035277
     3  H    0.047316
     4  H    0.670634
     5  H    0.056031
     6  C    0.037259
     7  H    0.003930
     8  H    0.042620
     9  C   -0.801108
    10  H    0.052245
    11  H    0.026851
    12  H    0.030975
    13  H    0.040619
    14  H    0.622634
 Sum of Mulliken charges =   0.00000

 Dipole moment (field-independent basis, Debye):
    X=             -0.5697    Y=              0.2100    Z=             -0.8168  Tot=              1.0177
 Quadrupole moment (field-independent basis, Debye-Ang):
   XX=            -32.2869   YY=            -28.8252   ZZ=            -28.2433
   XY=             -0.0834   XZ=              0.5778   YZ=              0.5493

 Normal termination of Gaussian 09 at Wed Aug 26 18:57:06 2020.
