 Gaussian 09, Revision D.01,
 Gaussian 09:  ES64L-G09RevD.01 24-Apr-2013

 --------------------
 #p B2PLYPD3/Def2QZVP
 --------------------

 ----------
 butane_opt
 ----------
 Symbolic Z-matrix:
 Charge =  0 Multiplicity = 1

                         Standard orientation:
 ---------------------------------------------------------------------
 Center     Atomic      Atomic             Coordinates (Angstroms)
 Number     Number       Type             X           Y           Z
 ---------------------------------------------------------------------
      1          6           0        2.072584   -0.177227    0.082836
      2          6           0        0.541868    0.594911   -0.126085
      3          1           0        2.795635    0.504487    0.074385
      4          1           0        2.154089   -0.400013   -0.555154
      5          1           0        2.197788   -1.251640    1.183650
      6          6           0       -0.638977   -0.446395   -0.113487
      7          1           0        0.458968    1.558882   -1.199682
      8          1           0        0.550820    0.995166    0.791006
      9          6           0       -1.944807    0.006567    0.144814
     10          1           0       -0.724359   -0.993007    0.603208
     11          1           0       -0.553805   -1.224362   -1.195358
     12          1           0       -2.427884    1.157645    1.418310
     13          1           0       -2.785713   -0.630636   -0.442775
     14          1           0       -1.849546    0.416338   -0.606057
 ---------------------------------------------------------------------

 SCF Done:  E(RB2PLYPD3) =  -157.390135744     A.U. after   12 cycles
 E2(B2PLYPD3) =    -0.2599841526D+00 E(B2PLYPD3) =    -0.15765011989689D+03

 The electronic state is 1-A.
 Alpha  occ. eigenvalues --  -10.65235 -10.62122 -10.61620 -10.60422  -0.95883
 Alpha  occ. eigenvalues --   -0.88642  -0.76475  -0.68633  -0.55307  -0.49735
 Alpha  occ. eigenvalues --   -0.48675  -0.44830  -0.41407  -0.39140  -0.37083
 Alpha  occ. eigenvalues --   -0.34083  -0.33628
 Alpha virt. eigenvalues --   -0.00527   0.03454   0.04655   0.06801   0.09479
 Alpha virt. eigenvalues --    0.10754   0.11199   0.12142   0.13067   0.15296
 Alpha virt. eigenvalues --    0.15552   0.16413   0.18189   0.18381   0.21014

 Mulliken charges:
               1
     1  C   -0.587295
     2  C   -0.112261
     3  H    0.072021
     4  H    0.466445
     5  H    0.039344
     6  C   -0.107834
     7  H    0.020984
     8  H    0.104632
     9  C   -0.348411
    10  H    0.144102
    11  H    0.011914
    12  H    0.021198
    13  H    0.064014
    14  H    0.211146
 Sum of Mulliken charges =   0.00000

 Dipole moment (field-independent basis, Debye):
    X=              0.4603    Y=             -0.0330    Z=             -0.6713  Tot=              0.8146
 Quadrupole moment (field-independent basis, Debye-Ang):
   XX=            -30.3229   YY=            -29.9379   ZZ=            -28.3672
   XY=              0.8217   XZ=              0.7582   YZ=              0.1907

 Normal termination of Gaussian 09 at Wed Aug 26 15:01:47 2020.
