 Gaussian 09, Revision D.01,
 Gaussian 09:  ES64L-G09RevD.01 24-Apr-2013

 --------------------
 #p B2PLYPD3/Def2QZVP
 --------------------

 ----------
 butane_opt
 ----------
 Symbolic Z-matrix:
 Charge =  0 Multiplicity = 1

                         Standard orientation:
 ---------------------------------------------------------------------
 Center     Atomic      Atomic             Coordinates (Angstroms)
 Number     Number       Type             X           Y           Z
 ---------------------------------------------------------------------
      1          6           0       -1.829259    0.098774    0.136132
      2          6           0       -0.625165   -0.400632   -0.082718
      3          1           0       -2.647020   -0.628625    0.125894
      4          1           0       -2.084144    0.307956   -0.629422
      5          1           0       -1.845230    0.971717    1.153975
      6          6           0        0.491353    0.511004   -0.245026
      7          1           0       -0.760059   -1.242335   -0.979131
      8          1           0       -0.325238   -1.030370    0.691448
      9          6           0        1.975412   -0.147280    0.075404
     10          1           0        0.523642    1.212586    0.558967
     11          1           0        0.332347    1.127636   -1.253384
     12          1           0        1.639623   -0.922821    1.209059
     13          1           0        2.715420    0.625950    0.630453
     14          1           0        2.376616   -0.792888   -0.810614
 ---------------------------------------------------------------------

 SCF Done:  E(RB2PLYPD3) =  -157.888970051     A.U. after   11 cycles
 E2(B2PLYPD3) =    -0.2525558742D+00 E(B2PLYPD3) =    -0.15814152592524D+03

 The electronic state is 1-A.
 Alpha  occ. eigenvalues --  -10.66190 -10.62138 -10.59397 -10.57915  -0.96020
 Alpha  occ. eigenvalues --   -0.84023  -0.72529  -0.65900  -0.55348  -0.52109
 Alpha  occ. eigenvalues --   -0.48812  -0.47648  -0.42406  -0.38269  -0.37277
 Alpha  occ. eigenvalues --   -0.36110  -0.35372
 Alpha virt. eigenvalues --    0.04912   0.06090   0.06773   0.07763   0.10417
 Alpha virt. eigenvalues --    0.11239   0.11264   0.13063   0.14193   0.14476
 Alpha virt. eigenvalues --    0.15768   0.16751   0.18621   0.19091   0.21003

 Mulliken charges:
               1
     1  C   -0.257551
     2  C    0.017708
     3  H    0.041277
     4  H    0.153635
     5  H    0.032603
     6  C   -0.031476
     7  H   -0.020281
     8  H    0.041472
     9  C   -0.186523
    10  H    0.047238
    11  H    0.021431
    12  H    0.006584
    13  H    0.060116
    14  H    0.073767
 Sum of Mulliken charges =   0.00000

 Dipole moment (field-independent basis, Debye):
    X=             -0.1705    Y=              0.0987    Z=             -0.2553  Tot=              0.3225
 Quadrupole moment (field-independent basis, Debye-Ang):
   XX=            -29.7330   YY=            -30.1245   ZZ=            -28.5994
   XY=              1.2158   XZ=              1.0161   YZ=              0.9897

 Normal termination of Gaussian 09 at Wed Aug 26 19:04:51 2020.
