 Gaussian 09, Revision D.01,
 Gaussian 09:  ES64L-G09RevD.01 24-Apr-2013

 --------------------
 #p B2PLYPD3/Def2QZVP
 --------------------

 ----------
 butane_opt
 ----------
 Symbolic Z-matrix:
 Charge =  0 Multiplicity = 1

                         Standard orientation:
 ---------------------------------------------------------------------
 Center     Atomic      Atomic             Coordinates (Angstroms)
 Number     Number       Type             X           Y           Z
 ---------------------------------------------------------------------
      1          6           0        1.999042    0.142579   -0.068020
      2          6           0        0.549020   -0.540396    0.146313
      3          1           0        2.743134   -0.603245   -0.571560
      4          1           0        2.339781    1.028783    0.827599
      5          1           0        1.821571    0.588640   -0.858057
      6          6           0       -0.627869    0.434490    0.025566
      7          1           0        0.479091   -1.250723    1.142396
      8          1           0        0.348318   -1.060088   -0.607613
      9          6           0       -1.925609   -0.082855   -0.076655
     10          1           0       -0.494298    1.019621   -0.861451
     11          1           0       -0.501307    1.272898    1.008938
     12          1           0       -1.991865   -0.729331   -0.970378
     13          1           0       -2.650204    0.672099   -0.083489
     14          1           0       -2.061731   -0.661569    0.810390
 ---------------------------------------------------------------------

 SCF Done:  E(RB2PLYPD3) =  -157.996707347     A.U. after   11 cycles
 E2(B2PLYPD3) =    -0.2486768602D+00 E(B2PLYPD3) =    -0.15824538420681D+03

 The electronic state is 1-A.
 Alpha  occ. eigenvalues --  -10.61565 -10.61347 -10.60969 -10.58751  -0.93021
 Alpha  occ. eigenvalues --   -0.84678  -0.73945  -0.65645  -0.54599  -0.51166
 Alpha  occ. eigenvalues --   -0.48594  -0.47622  -0.42298  -0.41015  -0.39569
 Alpha  occ. eigenvalues --   -0.37247  -0.35339
 Alpha virt. eigenvalues --    0.05431   0.06530   0.07948   0.08203   0.10685
 Alpha virt. eigenvalues --    0.11483   0.12581   0.12974   0.14418   0.15496
 Alpha virt. eigenvalues --    0.15612   0.16612   0.19032   0.19517   0.20772

 Mulliken charges:
               1
     1  C   -0.218391
     2  C   -0.079424
     3  H    0.040311
     4  H    0.047270
     5  H    0.112289
     6  C   -0.037519
     7  H    0.014133
     8  H    0.093558
     9  C   -0.130989
    10  H    0.036030
    11  H   -0.016913
    12  H    0.033987
    13  H    0.059394
    14  H    0.046264
 Sum of Mulliken charges =   0.00000

 Dipole moment (field-independent basis, Debye):
    X=             -0.3047    Y=             -0.0302    Z=             -0.7099  Tot=              0.7731
 Quadrupole moment (field-independent basis, Debye-Ang):
   XX=            -30.0389   YY=            -29.5301   ZZ=            -28.0748
   XY=             -0.1656   XZ=             -0.5900   YZ=              0.3807

 Normal termination of Gaussian 09 at Wed Aug 26 21:39:20 2020.
