 Gaussian 09, Revision D.01,
 Gaussian 09:  ES64L-G09RevD.01 24-Apr-2013

 --------------------
 #p B2PLYPD3/Def2QZVP
 --------------------

 ----------
 butane_opt
 ----------
 Symbolic Z-matrix:
 Charge =  0 Multiplicity = 1

                         Standard orientation:
 ---------------------------------------------------------------------
 Center     Atomic      Atomic             Coordinates (Angstroms)
 Number     Number       Type             X           Y           Z
 ---------------------------------------------------------------------
      1          6           0        1.948980   -0.197714   -0.112270
      2          6           0        0.474524    0.564498    0.088682
      3          1           0        2.871883    0.470753   -0.632998
      4          1           0        2.072705   -1.150861   -0.818683
      5          1           0        2.396428   -0.519049    0.738391
      6          6           0       -0.583830   -0.316817    0.270795
      7          1           0        0.182754    1.055090   -0.752564
      8          1           0        0.641596    1.461752    0.881334
      9          6           0       -1.899485   -0.007775   -0.227537
     10          1           0       -0.628360   -1.143251    1.688622
     11          1           0       -0.283674   -0.845079   -0.301022
     12          1           0       -2.318486    1.136100    0.704310
     13          1           0       -2.861505   -0.956333   -0.483844
     14          1           0       -1.714474    0.237719   -1.141564
 ---------------------------------------------------------------------

 SCF Done:  E(RB2PLYPD3) =  -157.782606953     A.U. after   12 cycles
 E2(B2PLYPD3) =    -0.2554635671D+00 E(B2PLYPD3) =    -0.15803807051957D+03

 The electronic state is 1-A.
 Alpha  occ. eigenvalues --  -10.65977 -10.63569 -10.63423 -10.61902  -0.98100
 Alpha  occ. eigenvalues --   -0.82813  -0.75027  -0.68289  -0.55513  -0.51231
 Alpha  occ. eigenvalues --   -0.49050  -0.45749  -0.42143  -0.40491  -0.39753
 Alpha  occ. eigenvalues --   -0.35014  -0.33193
 Alpha virt. eigenvalues --    0.02376   0.04974   0.05868   0.07623   0.08413
 Alpha virt. eigenvalues --    0.10475   0.11587   0.12193   0.13763   0.14284
 Alpha virt. eigenvalues --    0.15817   0.16266   0.17989   0.19259   0.20208

 Mulliken charges:
               1
     1  C   -0.142591
     2  C   -0.044048
     3  H    0.023021
     4  H    0.017395
     5  H    0.078036
     6  C   -0.201902
     7  H    0.060480
     8  H    0.030063
     9  C   -0.183526
    10  H   -0.050381
    11  H    0.254577
    12  H    0.010364
    13  H    0.056875
    14  H    0.091636
 Sum of Mulliken charges =   0.00000

 Dipole moment (field-independent basis, Debye):
    X=              0.4734    Y=              0.0080    Z=             -1.2285  Tot=              1.3166
 Quadrupole moment (field-independent basis, Debye-Ang):
   XX=            -30.5164   YY=            -30.4282   ZZ=            -29.8488
   XY=              0.4022   XZ=              1.5803   YZ=              1.2463

 Normal termination of Gaussian 09 at Wed Aug 26 11:58:01 2020.
