 Gaussian 09, Revision D.01,
 Gaussian 09:  ES64L-G09RevD.01 24-Apr-2013

 --------------------
 #p B2PLYPD3/Def2QZVP
 --------------------

 ----------
 butane_opt
 ----------
 Symbolic Z-matrix:
 Charge =  0 Multiplicity = 1

                         Standard orientation:
 ---------------------------------------------------------------------
 Center     Atomic      Atomic             Coordinates (Angstroms)
 Number     Number       Type             X           Y           Z
 ---------------------------------------------------------------------
      1          6           0        1.914498    0.163346   -0.102570
      2          6           0        0.499584   -0.526750    0.029455
      3          1           0        2.735274   -0.663619    0.005188
      4          1           0        2.041662    0.291382    0.639392
      5          1           0        2.311928    1.200418   -0.996239
      6          6           0       -0.618307    0.388535    0.346400
      7          1           0        0.618667   -1.200595    0.779068
      8          1           0        0.175096   -0.979851   -1.009609
      9          6           0       -1.925343   -0.079226   -0.211654
     10          1           0       -0.180680    1.204607   -0.349426
     11          1           0       -0.410289    0.793972    1.339632
     12          1           0       -1.486426   -0.346804   -0.980689
     13          1           0       -2.692540    0.911080   -0.310747
     14          1           0       -2.335281   -0.886025    0.513651
 ---------------------------------------------------------------------

 SCF Done:  E(RB2PLYPD3) =  -157.831640895     A.U. after   11 cycles
 E2(B2PLYPD3) =    -0.2515218266D+00 E(B2PLYPD3) =    -0.15808316272174D+03

 The electronic state is 1-A.
 Alpha  occ. eigenvalues --  -10.61207 -10.60825 -10.60440 -10.60356  -0.94206
 Alpha  occ. eigenvalues --   -0.86536  -0.75307  -0.66027  -0.56833  -0.50245
 Alpha  occ. eigenvalues --   -0.47643  -0.46459  -0.42993  -0.40450  -0.38822
 Alpha  occ. eigenvalues --   -0.37818  -0.34891
 Alpha virt. eigenvalues --    0.05197   0.06048   0.07764   0.08370   0.10400
 Alpha virt. eigenvalues --    0.10589   0.12306   0.13685   0.14138   0.15072
 Alpha virt. eigenvalues --    0.15809   0.16677   0.18563   0.19738   0.20552

 Mulliken charges:
               1
     1  C   -0.478273
     2  C   -0.011151
     3  H    0.034256
     4  H    0.330192
     5  H    0.054526
     6  C   -0.043043
     7  H    0.045598
     8  H    0.014857
     9  C   -0.199900
    10  H    0.019423
    11  H    0.032186
    12  H    0.109442
    13  H    0.042830
    14  H    0.049058
 Sum of Mulliken charges =   0.00000

 Dipole moment (field-independent basis, Debye):
    X=              0.2062    Y=             -0.0734    Z=              0.5640  Tot=              0.6050
 Quadrupole moment (field-independent basis, Debye-Ang):
   XX=            -30.2124   YY=            -29.6081   ZZ=            -28.3107
   XY=              0.0697   XZ=              0.5816   YZ=             -1.1778

 Normal termination of Gaussian 09 at Wed Aug 26 11:48:00 2020.
