 Gaussian 09, Revision D.01,
 Gaussian 09:  ES64L-G09RevD.01 24-Apr-2013

 --------------------
 #p B2PLYPD3/Def2QZVP
 --------------------

 ----------
 butane_opt
 ----------
 Symbolic Z-matrix:
 Charge =  0 Multiplicity = 1

                         Standard orientation:
 ---------------------------------------------------------------------
 Center     Atomic      Atomic             Coordinates (Angstroms)
 Number     Number       Type             X           Y           Z
 ---------------------------------------------------------------------
      1          6           0       -1.990752   -0.150654    0.117444
      2          6           0       -0.572814    0.535737   -0.183381
      3          1           0       -2.695314    0.415408    0.887830
      4          1           0       -1.897947   -0.795845    0.891177
      5          1           0       -2.608391   -0.886221   -0.890313
      6          6           0        0.661453   -0.459277   -0.208977
      7          1           0       -0.414473    1.026927    0.648736
      8          1           0       -0.717675    1.704595   -1.141901
      9          6           0        1.951391    0.091564    0.124391
     10          1           0        0.510152   -0.933111   -1.083970
     11          1           0        0.283772   -1.259457    0.662965
     12          1           0        2.419427    0.457467   -0.612671
     13          1           0        2.941282   -0.800797    0.284706
     14          1           0        1.883493    0.966815    1.256583
 ---------------------------------------------------------------------

 SCF Done:  E(RB2PLYPD3) =  -157.867226857     A.U. after   11 cycles
 E2(B2PLYPD3) =    -0.2554788561D+00 E(B2PLYPD3) =    -0.15812270571307D+03

 The electronic state is 1-A.
 Alpha  occ. eigenvalues --  -10.64743 -10.64436 -10.63949 -10.62699  -0.91628
 Alpha  occ. eigenvalues --   -0.83432  -0.73308  -0.66942  -0.55054  -0.48146
 Alpha  occ. eigenvalues --   -0.46974  -0.46229  -0.41082  -0.38957  -0.38151
 Alpha  occ. eigenvalues --   -0.36558  -0.34317
 Alpha virt. eigenvalues --    0.04092   0.04867   0.05465   0.07431   0.09778
 Alpha virt. eigenvalues --    0.10074   0.10998   0.12326   0.13239   0.15189
 Alpha virt. eigenvalues --    0.15833   0.16381   0.18019   0.18701   0.19715

 Mulliken charges:
               1
     1  C   -0.171340
     2  C   -0.089018
     3  H    0.037814
     4  H    0.068121
     5  H    0.031604
     6  C   -0.022161
     7  H    0.092092
     8  H   -0.007901
     9  C   -0.171648
    10  H    0.071852
    11  H    0.019218
    12  H    0.092006
    13  H    0.020796
    14  H    0.028565
 Sum of Mulliken charges =   0.00000

 Dipole moment (field-independent basis, Debye):
    X=              0.3051    Y=             -0.3976    Z=              0.3965  Tot=              0.6390
 Quadrupole moment (field-independent basis, Debye-Ang):
   XX=            -30.6368   YY=            -30.7288   ZZ=            -28.8403
   XY=              0.6912   XZ=             -2.4932   YZ=              0.9652

 Normal termination of Gaussian 09 at Wed Aug 26 20:06:58 2020.
