 Gaussian 09, Revision D.01,
 Gaussian 09:  ES64L-G09RevD.01 24-Apr-2013

 --------------------
 #p B2PLYPD3/Def2QZVP
 --------------------

 ----------
 butane_opt
 ----------
 Symbolic Z-matrix:
 Charge =  0 Multiplicity = 1

                         Standard orientation:
 ---------------------------------------------------------------------
 Center     Atomic      Atomic             Coordinates (Angstroms)
 Number     Number       Type             X           Y           Z
 ---------------------------------------------------------------------
      1          6           0        1.924814   -0.099527   -0.133828
      2          6           0        0.680348    0.465525    0.218127
      3          1           0        2.721297    0.930281   -0.815859
      4          1           0        1.459061   -0.344978   -0.835114
      5          1           0        2.491054   -1.006392    0.662542
      6          6           0       -0.520506   -0.663612    0.068243
      7          1           0        0.312644    0.742207   -0.384339
      8          1           0        0.599108    1.491905    1.448756
      9          6           0       -1.993499    0.178422   -0.114196
     10          1           0       -0.501547   -1.356356    0.887757
     11          1           0       -0.494758   -0.893246   -0.757724
     12          1           0       -2.542276    0.524953    0.681317
     13          1           0       -2.555406   -0.293035   -0.135003
     14          1           0       -2.036110    0.919812   -0.982411
 ---------------------------------------------------------------------

 SCF Done:  E(RB2PLYPD3) =  -157.451896497     A.U. after   12 cycles
 E2(B2PLYPD3) =    -0.2543256060D+00 E(B2PLYPD3) =    -0.15770622210338D+03

 The electronic state is 1-A.
 Alpha  occ. eigenvalues --  -10.63456 -10.61942 -10.61657 -10.57446  -0.98129
 Alpha  occ. eigenvalues --   -0.89202  -0.79490  -0.70470  -0.57150  -0.51318
 Alpha  occ. eigenvalues --   -0.49582  -0.46540  -0.45094  -0.42187  -0.39784
 Alpha  occ. eigenvalues --   -0.34281  -0.32486
 Alpha virt. eigenvalues --    0.03528   0.05959   0.06059   0.08319   0.09724
 Alpha virt. eigenvalues --    0.09992   0.11820   0.13770   0.14356   0.14948
 Alpha virt. eigenvalues --    0.16011   0.17356   0.17686   0.18586   0.20610

 Mulliken charges:
               1
     1  C   -0.248042
     2  C   -0.430690
     3  H    0.011351
     4  H    0.183328
     5  H    0.068614
     6  C   -0.235356
     7  H    0.441202
     8  H   -0.039567
     9  C   -0.447166
    10  H    0.060620
    11  H    0.212700
    12  H    0.038296
    13  H    0.335113
    14  H    0.049597
 Sum of Mulliken charges =   0.00000

 Dipole moment (field-independent basis, Debye):
    X=             -0.9959    Y=             -1.0544    Z=             -0.7858  Tot=              1.6495
 Quadrupole moment (field-independent basis, Debye-Ang):
   XX=            -29.1816   YY=            -29.8199   ZZ=            -28.6842
   XY=             -0.6234   XZ=              0.0731   YZ=             -1.9532

 Normal termination of Gaussian 09 at Wed Aug 26 22:27:28 2020.
