 Gaussian 09, Revision D.01,
 Gaussian 09:  ES64L-G09RevD.01 24-Apr-2013

 --------------------
 #p B2PLYPD3/Def2QZVP
 --------------------

 ----------
 butane_opt
 ----------
 Symbolic Z-matrix:
 Charge =  0 Multiplicity = 1

                         Standard orientation:
 ---------------------------------------------------------------------
 Center     Atomic      Atomic             Coordinates (Angstroms)
 Number     Number       Type             X           Y           Z
 ---------------------------------------------------------------------
      1          6           0       -2.015017   -0.148800   -0.002996
      2          6           0       -0.579447    0.539477   -0.092172
      3          1           0       -2.679090    0.520920    0.227540
      4          1           0       -2.300148   -0.677621    0.836679
      5          1           0       -2.403615   -0.746964   -0.796319
      6          6           0        0.627861   -0.455351    0.095030
      7          1           0       -0.148391    1.071954    0.758207
      8          1           0       -0.488747    1.229831   -1.036621
      9          6           0        1.996613    0.079646   -0.006337
     10          1           0        0.598984   -1.047383   -0.599337
     11          1           0        0.454013   -0.969462    0.944265
     12          1           0        1.687130    0.383088   -0.665083
     13          1           0        2.733979   -0.772081   -0.637494
     14          1           0        2.365829    0.917886    1.007012
 ---------------------------------------------------------------------

 SCF Done:  E(RB2PLYPD3) =  -157.831715099     A.U. after   11 cycles
 E2(B2PLYPD3) =    -0.2498490511D+00 E(B2PLYPD3) =    -0.15808156415017D+03

 The electronic state is 1-A.
 Alpha  occ. eigenvalues --  -10.62499 -10.60337 -10.58634 -10.57549  -0.95127
 Alpha  occ. eigenvalues --   -0.85683  -0.76066  -0.68347  -0.56209  -0.49878
 Alpha  occ. eigenvalues --   -0.49060  -0.46576  -0.42935  -0.41688  -0.39552
 Alpha  occ. eigenvalues --   -0.38395  -0.33902
 Alpha virt. eigenvalues --    0.04786   0.06444   0.08493   0.08673   0.10492
 Alpha virt. eigenvalues --    0.11603   0.12463   0.13970   0.14866   0.15299
 Alpha virt. eigenvalues --    0.15533   0.16527   0.19156   0.19338   0.20824

 Mulliken charges:
               1
     1  C   -0.118945
     2  C   -0.086024
     3  H    0.051545
     4  H    0.020649
     5  H    0.045223
     6  C   -0.071581
     7  H    0.043903
     8  H    0.028521
     9  C   -0.449362
    10  H    0.082549
    11  H    0.037639
    12  H    0.332891
    13  H    0.037875
    14  H    0.045119
 Sum of Mulliken charges =   0.00000

 Dipole moment (field-independent basis, Debye):
    X=             -0.6427    Y=             -0.1918    Z=             -0.1434  Tot=              0.6858
 Quadrupole moment (field-independent basis, Debye-Ang):
   XX=            -29.5957   YY=            -29.3733   ZZ=            -27.5952
   XY=              0.3475   XZ=             -0.6657   YZ=              0.8501

 Normal termination of Gaussian 09 at Wed Aug 26 19:43:39 2020.
