 Gaussian 09, Revision D.01,
 Gaussian 09:  ES64L-G09RevD.01 24-Apr-2013

 --------------------
 #p B2PLYPD3/Def2QZVP
 --------------------

 ----------
 butane_opt
 ----------
 Symbolic Z-matrix:
 Charge =  0 Multiplicity = 1

                         Standard orientation:
 ---------------------------------------------------------------------
 Center     Atomic      Atomic             Coordinates (Angstroms)
 Number     Number       Type             X           Y           Z
 ---------------------------------------------------------------------
      1          6           0        1.866693    0.076109    0.083107
      2          6           0        0.574078   -0.458025    0.017370
      3          1           0        2.635997   -0.895884   -0.692016
      4          1           0        2.425217    1.352185    1.298718
      5          1           0        1.979156    0.118125   -0.474615
      6          6           0       -0.538887    0.579160   -0.198819
      7          1           0        0.853935   -1.092298    0.738768
      8          1           0        0.609252   -1.244201   -0.897445
      9          6           0       -1.994584   -0.159853    0.074934
     10          1           0       -0.374140    1.251540   -1.176352
     11          1           0       -0.444414    1.453938    0.661367
     12          1           0       -2.300338   -0.457388   -0.495224
     13          1           0       -2.669043    0.486107   -0.097715
     14          1           0       -2.159419   -1.196473    1.274962
 ---------------------------------------------------------------------

 SCF Done:  E(RB2PLYPD3) =  -156.897755648     A.U. after   14 cycles
 E2(B2PLYPD3) =    -0.2640885850D+00 E(B2PLYPD3) =    -0.15716184423288D+03

 The electronic state is 1-A.
 Alpha  occ. eigenvalues --  -10.66165 -10.64359 -10.61186 -10.60202  -0.97957
 Alpha  occ. eigenvalues --   -0.90959  -0.79954  -0.71078  -0.53968  -0.51041
 Alpha  occ. eigenvalues --   -0.49102  -0.45221  -0.40123  -0.39139  -0.37317
 Alpha  occ. eigenvalues --   -0.34857  -0.31386
 Alpha virt. eigenvalues --   -0.02292   0.02311   0.03020   0.06435   0.09480
 Alpha virt. eigenvalues --    0.09687   0.10862   0.12100   0.13281   0.15269
 Alpha virt. eigenvalues --    0.15645   0.16693   0.17988   0.18511   0.20474

 Mulliken charges:
               1
     1  C   -0.899034
     2  C    0.023020
     3  H   -0.040118
     4  H    0.042101
     5  H    0.761782
     6  C   -0.019009
     7  H    0.079741
     8  H    0.010255
     9  C   -0.498604
    10  H    0.044853
    11  H    0.029595
    12  H    0.371415
    13  H    0.052371
    14  H    0.041631
 Sum of Mulliken charges =   0.00000

 Dipole moment (field-independent basis, Debye):
    X=             -0.9519    Y=              0.4817    Z=             -0.9638  Tot=              1.4377
 Quadrupole moment (field-independent basis, Debye-Ang):
   XX=            -32.2229   YY=            -29.1573   ZZ=            -28.4429
   XY=              0.8538   XZ=              0.8767   YZ=             -0.0240

 Normal termination of Gaussian 09 at Wed Aug 26 14:42:52 2020.
