 Gaussian 09, Revision D.01,
 Gaussian 09:  ES64L-G09RevD.01 24-Apr-2013

 --------------------
 #p B2PLYPD3/Def2QZVP
 --------------------

 ----------
 butane_opt
 ----------
 Symbolic Z-matrix:
 Charge =  0 Multiplicity = 1

                         Standard orientation:
 ---------------------------------------------------------------------
 Center     Atomic      Atomic             Coordinates (Angstroms)
 Number     Number       Type             X           Y           Z
 ---------------------------------------------------------------------
      1          6           0       -1.940917    0.081014   -0.189902
      2          6           0       -0.624161   -0.507360    0.334730
      3          1           0       -2.697203   -0.782034   -0.684063
      4          1           0       -1.667551    0.650083   -1.149900
      5          1           0       -2.515850    0.780723    0.706491
      6          6           0        0.489134    0.622933    0.059512
      7          1           0       -0.359288   -1.249719   -0.472570
      8          1           0       -0.771934   -1.122643    1.331439
      9          6           0        2.037320   -0.207400   -0.117782
     10          1           0        0.601947    1.540788    0.997677
     11          1           0        0.267066    1.141107   -0.684398
     12          1           0        2.423495   -0.431972    0.452610
     13          1           0        2.717993    0.451419   -0.132930
     14          1           0        2.233072   -0.912877   -0.883702
 ---------------------------------------------------------------------

 SCF Done:  E(RB2PLYPD3) =  -157.777275117     A.U. after   11 cycles
 E2(B2PLYPD3) =    -0.2509547540D+00 E(B2PLYPD3) =    -0.15802822987086D+03

 The electronic state is 1-A.
 Alpha  occ. eigenvalues --  -10.64180 -10.63996 -10.63032 -10.55280  -0.90605
 Alpha  occ. eigenvalues --   -0.86829  -0.75139  -0.66253  -0.52042  -0.49234
 Alpha  occ. eigenvalues --   -0.47571  -0.46934  -0.43537  -0.40668  -0.40203
 Alpha  occ. eigenvalues --   -0.35814  -0.35221
 Alpha virt. eigenvalues --    0.05125   0.06686   0.07747   0.08391   0.10215
 Alpha virt. eigenvalues --    0.11144   0.12264   0.14019   0.14948   0.15230
 Alpha virt. eigenvalues --    0.16163   0.16510   0.18775   0.19288   0.20509

 Mulliken charges:
               1
     1  C   -0.176568
     2  C   -0.038101
     3  H    0.034948
     4  H    0.049853
     5  H    0.045489
     6  C   -0.101238
     7  H    0.044332
     8  H    0.052757
     9  C   -0.423081
    10  H   -0.002664
    11  H    0.118677
    12  H    0.316836
    13  H    0.034420
    14  H    0.044341
 Sum of Mulliken charges =   0.00000

 Dipole moment (field-independent basis, Debye):
    X=              0.4047    Y=             -0.1133    Z=             -0.1263  Tot=              0.4389
 Quadrupole moment (field-independent basis, Debye-Ang):
   XX=            -29.2502   YY=            -28.8887   ZZ=            -28.3611
   XY=              0.0776   XZ=              0.2987   YZ=              0.1561

 Normal termination of Gaussian 09 at Wed Aug 26 13:41:27 2020.
