 Gaussian 09, Revision D.01,
 Gaussian 09:  ES64L-G09RevD.01 24-Apr-2013

 --------------------
 #p B2PLYPD3/Def2QZVP
 --------------------

 ----------
 butane_opt
 ----------
 Symbolic Z-matrix:
 Charge =  0 Multiplicity = 1

                         Standard orientation:
 ---------------------------------------------------------------------
 Center     Atomic      Atomic             Coordinates (Angstroms)
 Number     Number       Type             X           Y           Z
 ---------------------------------------------------------------------
      1          6           0       -1.894090    0.064314   -0.147092
      2          6           0       -0.633584   -0.476022    0.231828
      3          1           0       -2.637194   -0.865614   -0.662774
      4          1           0       -1.567920    0.265883   -0.908657
      5          1           0       -2.382199    1.118283    0.854667
      6          6           0        0.540034    0.592453    0.033137
      7          1           0       -0.426671   -0.853656   -0.513071
      8          1           0       -0.741091   -1.163377    1.314130
      9          6           0        1.940939   -0.170689   -0.136521
     10          1           0        0.366798    1.283987    0.809472
     11          1           0        0.270821    1.082347   -0.872282
     12          1           0        2.430125   -0.580019    0.782983
     13          1           0        2.552877    0.341669    0.140949
     14          1           0        2.414661   -0.689842   -0.833530
 ---------------------------------------------------------------------

 SCF Done:  E(RB2PLYPD3) =  -157.721118019     A.U. after   11 cycles
 E2(B2PLYPD3) =    -0.2528943185D+00 E(B2PLYPD3) =    -0.15797401233717D+03

 The electronic state is 1-A.
 Alpha  occ. eigenvalues --  -10.62430 -10.62096 -10.59323 -10.57300  -0.96061
 Alpha  occ. eigenvalues --   -0.88565  -0.77224  -0.67382  -0.56737  -0.51541
 Alpha  occ. eigenvalues --   -0.48791  -0.46718  -0.44388  -0.40042  -0.38245
 Alpha  occ. eigenvalues --   -0.36804  -0.33078
 Alpha virt. eigenvalues --    0.03683   0.05842   0.07812   0.08414   0.09809
 Alpha virt. eigenvalues --    0.10871   0.12130   0.13690   0.14704   0.15289
 Alpha virt. eigenvalues --    0.15985   0.16871   0.18851   0.19124   0.20835

 Mulliken charges:
               1
     1  C   -0.287019
     2  C   -0.234900
     3  H    0.028965
     4  H    0.200698
     5  H    0.017092
     6  C   -0.082600
     7  H    0.228494
     8  H    0.030392
     9  C   -0.244656
    10  H    0.060990
    11  H    0.059863
    12  H    0.009930
    13  H    0.165418
    14  H    0.047335
 Sum of Mulliken charges =   0.00000

 Dipole moment (field-independent basis, Debye):
    X=              1.0675    Y=              0.2028    Z=             -0.4163  Tot=              1.1636
 Quadrupole moment (field-independent basis, Debye-Ang):
   XX=            -29.5603   YY=            -30.0157   ZZ=            -27.7180
   XY=              0.4640   XZ=              0.7526   YZ=              1.3056

 Normal termination of Gaussian 09 at Wed Aug 26 21:22:35 2020.
