 Gaussian 09, Revision D.01,
 Gaussian 09:  ES64L-G09RevD.01 24-Apr-2013

 --------------------
 #p B2PLYPD3/Def2QZVP
 --------------------

 ----------
 butane_opt
 ----------
 Symbolic Z-matrix:
 Charge =  0 Multiplicity = 1

                         Standard orientation:
 ---------------------------------------------------------------------
 Center     Atomic      Atomic             Coordinates (Angstroms)
 Number     Number       Type             X           Y           Z
 ---------------------------------------------------------------------
      1          6           0       -1.926940    0.053105   -0.099268
      2          6           0       -0.624043   -0.498759    0.194835
      3          1           0       -2.752869   -0.548034   -0.745443
      4          1           0       -1.386517    0.441580   -0.928575
      5          1           0       -2.784406    1.107802    0.933034
      6          6           0        0.529860    0.624843    0.061537
      7          1           0       -0.430975   -1.292969   -0.683651
      8          1           0       -0.817881   -1.311528    1.101210
      9          6           0        2.010598   -0.213632   -0.060659
     10          1           0        0.636680    1.298824    0.799004
     11          1           0        0.328546    1.298357   -0.996334
     12          1           0        2.176456   -0.658549    0.777545
     13          1           0        2.842027    0.619324   -0.016614
     14          1           0        2.252089   -0.748149   -0.818850
 ---------------------------------------------------------------------

 SCF Done:  E(RB2PLYPD3) =  -157.875575240     A.U. after   12 cycles
 E2(B2PLYPD3) =    -0.2561553247D+00 E(B2PLYPD3) =    -0.15813173056422D+03

 The electronic state is 1-A.
 Alpha  occ. eigenvalues --  -10.65207 -10.64938 -10.64623 -10.59436  -0.91896
 Alpha  occ. eigenvalues --   -0.83873  -0.73511  -0.64548  -0.54149  -0.50321
 Alpha  occ. eigenvalues --   -0.49306  -0.45860  -0.42904  -0.40613  -0.37641
 Alpha  occ. eigenvalues --   -0.34419  -0.33334
 Alpha virt. eigenvalues --    0.02198   0.05265   0.06715   0.07186   0.09611
 Alpha virt. eigenvalues --    0.10358   0.12123   0.12972   0.13823   0.14843
 Alpha virt. eigenvalues --    0.15847   0.17106   0.18086   0.19433   0.19721

 Mulliken charges:
               1
     1  C   -0.169230
     2  C   -0.066589
     3  H    0.056010
     4  H    0.060003
     5  H   -0.005986
     6  C   -0.039844
     7  H    0.051529
     8  H    0.028248
     9  C   -0.147033
    10  H    0.074851
    11  H    0.014213
    12  H    0.072723
    13  H    0.010247
    14  H    0.060859
 Sum of Mulliken charges =   0.00000

 Dipole moment (field-independent basis, Debye):
    X=              0.8132    Y=             -0.4300    Z=             -0.4943  Tot=              1.0443
 Quadrupole moment (field-independent basis, Debye-Ang):
   XX=            -31.6094   YY=            -29.5582   ZZ=            -29.0679
   XY=              1.1023   XZ=              0.8823   YZ=              0.8751

 Normal termination of Gaussian 09 at Wed Aug 26 15:14:51 2020.
