 Gaussian 09, Revision D.01,
 Gaussian 09:  ES64L-G09RevD.01 24-Apr-2013

 --------------------
 #p B2PLYPD3/Def2QZVP
 --------------------

 ----------
 butane_opt
 ----------
 Symbolic Z-matrix:
 Charge =  0 Multiplicity = 1

                         Standard orientation:
 ---------------------------------------------------------------------
 Center     Atomic      Atomic             Coordinates (Angstroms)
 Number     Number       Type             X           Y           Z
 ---------------------------------------------------------------------
      1          6           0        1.882950   -0.131825    0.155857
      2          6           0        0.559711    0.496318   -0.215572
      3          1           0        2.577208    0.415976    0.303741
      4          1           0        2.196706   -0.529404   -0.610685
      5          1           0        1.989667   -0.806269    1.125720
      6          6           0       -0.503292   -0.450955   -0.184227
      7          1           0        0.545432    1.511507   -1.309701
      8          1           0        0.262473    0.974379    0.463426
      9          6           0       -1.875254    0.123200    0.155085
     10          1           0       -0.178039   -1.197357    0.812933
     11          1           0       -0.767238   -1.155149   -0.999847
     12          1           0       -2.179145    1.345354    1.360048
     13          1           0       -2.787142   -0.943346   -0.205206
     14          1           0       -2.044608    0.163886   -0.407292
 ---------------------------------------------------------------------

 SCF Done:  E(RB2PLYPD3) =  -157.224231929     A.U. after   13 cycles
 E2(B2PLYPD3) =    -0.2578307090D+00 E(B2PLYPD3) =    -0.15748206263840D+03

 The electronic state is 1-A.
 Alpha  occ. eigenvalues --  -10.64731 -10.63585 -10.61719 -10.56995  -0.96747
 Alpha  occ. eigenvalues --   -0.89854  -0.80274  -0.67464  -0.55453  -0.50891
 Alpha  occ. eigenvalues --   -0.49745  -0.47220  -0.41824  -0.39893  -0.38632
 Alpha  occ. eigenvalues --   -0.35618  -0.33592
 Alpha virt. eigenvalues --   -0.00392   0.03812   0.04775   0.06562   0.09685
 Alpha virt. eigenvalues --    0.10644   0.12118   0.13435   0.14034   0.14849
 Alpha virt. eigenvalues --    0.15729   0.16395   0.17871   0.19182   0.20864

 Mulliken charges:
               1
     1  C   -0.136451
     2  C   -0.128565
     3  H    0.057562
     4  H    0.060566
     5  H    0.026567
     6  C    0.039184
     7  H   -0.017301
     8  H    0.159111
     9  C   -0.935368
    10  H    0.023177
    11  H    0.035957
    12  H    0.057205
    13  H   -0.010053
    14  H    0.768408
 Sum of Mulliken charges =   0.00000

 Dipole moment (field-independent basis, Debye):
    X=              0.6772    Y=              0.1655    Z=             -0.1913  Tot=              0.7229
 Quadrupole moment (field-independent basis, Debye-Ang):
   XX=            -30.1602   YY=            -29.7710   ZZ=            -28.4337
   XY=             -0.7562   XZ=              1.6502   YZ=              1.4828

 Normal termination of Gaussian 09 at Wed Aug 26 19:40:17 2020.
