 Gaussian 09, Revision D.01,
 Gaussian 09:  ES64L-G09RevD.01 24-Apr-2013

 --------------------
 #p B2PLYPD3/Def2QZVP
 --------------------

 ----------
 butane_opt
 ----------
 Symbolic Z-matrix:
 Charge =  0 Multiplicity = 1

                         Standard orientation:
 ---------------------------------------------------------------------
 Center     Atomic      Atomic             Coordinates (Angstroms)
 Number     Number       Type             X           Y           Z
 ---------------------------------------------------------------------
      1          6           0       -2.077196   -0.193105    0.152032
      2          6           0       -0.581350    0.596708   -0.201137
      3          1           0       -2.849607    0.449926    0.390477
      4          1           0       -1.763291   -0.367843    0.545715
      5          1           0       -2.532352   -1.084281   -0.798794
      6          6           0        0.606136   -0.475281   -0.039696
      7          1           0       -0.349277    1.131598    0.558901
      8          1           0       -0.347348    1.289920   -0.983477
      9          6           0        1.990600    0.063552    0.078033
     10          1           0        0.974942   -1.034616   -0.787614
     11          1           0        0.563847   -1.129292    0.835170
     12          1           0        1.890114    0.568577   -0.715754
     13          1           0        2.774166   -0.661614   -0.115982
     14          1           0        2.009668    0.886386    1.135962
 ---------------------------------------------------------------------

 SCF Done:  E(RB2PLYPD3) =  -157.211724585     A.U. after   11 cycles
 E2(B2PLYPD3) =    -0.2511754716D+00 E(B2PLYPD3) =    -0.15746290005705D+03

 The electronic state is 1-A.
 Alpha  occ. eigenvalues --  -10.62666 -10.61490 -10.60413 -10.59638  -0.93862
 Alpha  occ. eigenvalues --   -0.89507  -0.77002  -0.67562  -0.57108  -0.53584
 Alpha  occ. eigenvalues --   -0.50933  -0.46558  -0.43865  -0.39949  -0.38130
 Alpha  occ. eigenvalues --   -0.37618  -0.34887
 Alpha virt. eigenvalues --    0.05443   0.06105   0.08303   0.08875   0.10828
 Alpha virt. eigenvalues --    0.11085   0.12537   0.12674   0.14441   0.15265
 Alpha virt. eigenvalues --    0.15669   0.17108   0.18076   0.19633   0.20841

 Mulliken charges:
               1
     1  C   -0.827642
     2  C   -0.108412
     3  H    0.103337
     4  H    0.670519
     5  H    0.052129
     6  C   -0.044923
     7  H    0.079032
     8  H    0.049400
     9  C   -0.188492
    10  H    0.040336
    11  H    0.021931
    12  H    0.096715
    13  H    0.061073
    14  H   -0.005003
 Sum of Mulliken charges =   0.00000

 Dipole moment (field-independent basis, Debye):
    X=             -0.0509    Y=              0.0531    Z=             -0.1317  Tot=              0.1508
 Quadrupole moment (field-independent basis, Debye-Ang):
   XX=            -28.6611   YY=            -28.7171   ZZ=            -28.3392
   XY=             -1.8523   XZ=             -1.4747   YZ=              0.3559

 Normal termination of Gaussian 09 at Wed Aug 26 16:25:08 2020.
