 Gaussian 09, Revision D.01,
 Gaussian 09:  ES64L-G09RevD.01 24-Apr-2013

 --------------------
 #p B2PLYPD3/Def2QZVP
 --------------------

 ----------
 butane_opt
 ----------
 Symbolic Z-matrix:
 Charge =  0 Multiplicity = 1

                         Standard orientation:
 ---------------------------------------------------------------------
 Center     Atomic      Atomic             Coordinates (Angstroms)
 Number     Number       Type             X           Y           Z
 ---------------------------------------------------------------------
      1          6           0       -1.878820    0.211648    0.068428
      2          6           0       -0.481140   -0.637870   -0.072030
      3          1           0       -2.727771   -0.524519   -0.561235
      4          1           0       -2.110150    0.262955   -0.436318
      5          1           0       -2.223594    1.198916    1.144693
      6          6           0        0.579058    0.430543   -0.138669
      7          1           0       -0.317909   -0.991399   -0.825903
      8          1           0       -0.533249   -1.333903    0.961105
      9          6           0        1.863200   -0.078133    0.062941
     10          1           0        0.411524    1.065985    0.785729
     11          1           0        0.470437    1.318807   -1.154383
     12          1           0        1.741371   -0.737618    1.089953
     13          1           0        2.765521    0.731718    0.106224
     14          1           0        2.030036   -0.548073   -0.633883
 ---------------------------------------------------------------------

 SCF Done:  E(RB2PLYPD3) =  -157.115885736     A.U. after   12 cycles
 E2(B2PLYPD3) =    -0.2570333415D+00 E(B2PLYPD3) =    -0.15737291907744D+03

 The electronic state is 1-A.
 Alpha  occ. eigenvalues --  -10.63737 -10.62065 -10.61396 -10.58922  -0.95737
 Alpha  occ. eigenvalues --   -0.91133  -0.79941  -0.66831  -0.56423  -0.52063
 Alpha  occ. eigenvalues --   -0.49183  -0.45484  -0.42880  -0.38258  -0.37264
 Alpha  occ. eigenvalues --   -0.36123  -0.31744
 Alpha virt. eigenvalues --    0.02664   0.05833   0.05894   0.06378   0.09800
 Alpha virt. eigenvalues --    0.10313   0.12100   0.12299   0.14054   0.15476
 Alpha virt. eigenvalues --    0.16114   0.16497   0.18045   0.19085   0.21270

 Mulliken charges:
               1
     1  C   -0.880862
     2  C   -0.200615
     3  H    0.008086
     4  H    0.747591
     5  H    0.088379
     6  C   -0.037019
     7  H    0.198143
     8  H    0.048956
     9  C   -0.221750
    10  H    0.030133
    11  H    0.007243
    12  H    0.044786
    13  H    0.034258
    14  H    0.132671
 Sum of Mulliken charges =   0.00000

 Dipole moment (field-independent basis, Debye):
    X=              0.1553    Y=              0.0864    Z=             -0.4926  Tot=              0.5237
 Quadrupole moment (field-independent basis, Debye-Ang):
   XX=            -31.2745   YY=            -29.6274   ZZ=            -27.4150
   XY=             -1.0705   XZ=              0.4497   YZ=              1.0613

 Normal termination of Gaussian 09 at Wed Aug 26 13:09:32 2020.
