 Gaussian 09, Revision D.01,
 Gaussian 09:  ES64L-G09RevD.01 24-Apr-2013

 --------------------
 #p B2PLYPD3/Def2QZVP
 --------------------

 ----------
 butane_opt
 ----------
 Symbolic Z-matrix:
 Charge =  0 Multiplicity = 1

                         Standard orientation:
 ---------------------------------------------------------------------
 Center     Atomic      Atomic             Coordinates (Angstroms)
 Number     Number       Type             X           Y           Z
 ---------------------------------------------------------------------
      1          6           0        1.948288    0.139079   -0.110021
      2          6           0        0.495074   -0.520492    0.072438
      3          1           0        2.837912   -0.730652    0.150704
      4          1           0        2.170640    0.522198    0.582293
      5          1           0        2.400226    1.220166   -1.020201
      6          6           0       -0.604247    0.343600    0.307033
      7          1           0        0.361752   -1.197837    0.698021
      8          1           0       -0.086898   -1.153631   -0.985839
      9          6           0       -1.843873   -0.041545   -0.178582
     10          1           0       -0.544366    1.120217   -0.527683
     11          1           0       -0.513080    1.099094    1.397589
     12          1           0       -1.397441   -0.423730   -1.094108
     13          1           0       -2.770619    0.933118   -0.426071
     14          1           0       -2.429575   -0.912797    0.680087
 ---------------------------------------------------------------------

 SCF Done:  E(RB2PLYPD3) =  -157.750514515     A.U. after   11 cycles
 E2(B2PLYPD3) =    -0.2584432932D+00 E(B2PLYPD3) =    -0.15800895780770D+03

 The electronic state is 1-A.
 Alpha  occ. eigenvalues --  -10.65002 -10.63948 -10.63136 -10.62482  -0.96533
 Alpha  occ. eigenvalues --   -0.85400  -0.76039  -0.63971  -0.56086  -0.51396
 Alpha  occ. eigenvalues --   -0.48052  -0.45764  -0.40974  -0.40162  -0.38040
 Alpha  occ. eigenvalues --   -0.36276  -0.32686
 Alpha virt. eigenvalues --    0.03215   0.04650   0.05703   0.07644   0.08926
 Alpha virt. eigenvalues --    0.09876   0.11981   0.12259   0.13805   0.14816
 Alpha virt. eigenvalues --    0.15063   0.15700   0.17548   0.19594   0.19857

 Mulliken charges:
               1
     1  C   -0.326558
     2  C   -0.044046
     3  H    0.026543
     4  H    0.233213
     5  H    0.042984
     6  C   -0.038646
     7  H    0.106744
     8  H   -0.023521
     9  C   -0.153887
    10  H    0.047707
    11  H    0.006460
    12  H    0.088029
    13  H    0.036616
    14  H   -0.001638
 Sum of Mulliken charges =   0.00000

 Dipole moment (field-independent basis, Debye):
    X=              0.5141    Y=              0.3617    Z=              0.4617  Tot=              0.7800
 Quadrupole moment (field-independent basis, Debye-Ang):
   XX=            -31.3400   YY=            -29.9972   ZZ=            -29.8616
   XY=              0.0121   XZ=              1.6865   YZ=             -1.1712

 Normal termination of Gaussian 09 at Wed Aug 26 15:20:24 2020.
