 Gaussian 09, Revision D.01,
 Gaussian 09:  ES64L-G09RevD.01 24-Apr-2013

 --------------------
 #p B2PLYPD3/Def2QZVP
 --------------------

 ----------
 butane_opt
 ----------
 Symbolic Z-matrix:
 Charge =  0 Multiplicity = 1

                         Standard orientation:
 ---------------------------------------------------------------------
 Center     Atomic      Atomic             Coordinates (Angstroms)
 Number     Number       Type             X           Y           Z
 ---------------------------------------------------------------------
      1          6           0        1.917411    0.056556   -0.115300
      2          6           0        0.594527   -0.431471    0.080475
      3          1           0        2.678817   -0.632341    0.074333
      4          1           0        1.970089    0.639797    0.800476
      5          1           0        2.002228    0.834282   -1.101979
      6          6           0       -0.537333    0.542174    0.130401
      7          1           0        0.613558   -1.246231    1.103230
      8          1           0        0.494755   -1.004433   -0.713701
      9          6           0       -1.976605   -0.189800   -0.112723
     10          1           0       -0.312483    1.095332   -0.777443
     11          1           0       -0.544784    1.322255    1.088840
     12          1           0       -1.940680   -0.771860   -0.970212
     13          1           0       -2.697985    0.568588   -0.103546
     14          1           0       -2.251519   -0.670144    0.702877
 ---------------------------------------------------------------------

 SCF Done:  E(RB2PLYPD3) =  -158.028941182     A.U. after   11 cycles
 E2(B2PLYPD3) =    -0.2483639722D+00 E(B2PLYPD3) =    -0.15827730515372D+03

 The electronic state is 1-A.
 Alpha  occ. eigenvalues --  -10.62494 -10.60404 -10.60140 -10.58402  -0.92773
 Alpha  occ. eigenvalues --   -0.84171  -0.74051  -0.65358  -0.54122  -0.50867
 Alpha  occ. eigenvalues --   -0.50466  -0.47691  -0.42395  -0.41780  -0.38948
 Alpha  occ. eigenvalues --   -0.36414  -0.35600
 Alpha virt. eigenvalues --    0.05770   0.06918   0.07359   0.08221   0.10702
 Alpha virt. eigenvalues --    0.12325   0.12636   0.13954   0.14600   0.15138
 Alpha virt. eigenvalues --    0.15329   0.16271   0.19077   0.19970   0.22204

 Mulliken charges:
               1
     1  C   -0.148373
     2  C   -0.035596
     3  H    0.064492
     4  H    0.036272
     5  H    0.026399
     6  C   -0.067738
     7  H   -0.022736
     8  H    0.063270
     9  C   -0.130660
    10  H    0.045652
    11  H    0.018945
    12  H    0.060144
    13  H    0.038082
    14  H    0.051846
 Sum of Mulliken charges =   0.00000

 Dipole moment (field-independent basis, Debye):
    X=             -0.1675    Y=             -0.0979    Z=             -0.1454  Tot=              0.2424
 Quadrupole moment (field-independent basis, Debye-Ang):
   XX=            -29.2943   YY=            -29.5868   ZZ=            -28.1876
   XY=             -0.7407   XZ=             -0.1672   YZ=              0.2307

 Normal termination of Gaussian 09 at Wed Aug 26 22:50:40 2020.
