 Gaussian 09, Revision D.01,
 Gaussian 09:  ES64L-G09RevD.01 24-Apr-2013

 --------------------
 #p B2PLYPD3/Def2QZVP
 --------------------

 ----------
 butane_opt
 ----------
 Symbolic Z-matrix:
 Charge =  0 Multiplicity = 1

                         Standard orientation:
 ---------------------------------------------------------------------
 Center     Atomic      Atomic             Coordinates (Angstroms)
 Number     Number       Type             X           Y           Z
 ---------------------------------------------------------------------
      1          6           0        1.905493   -0.170652    0.080350
      2          6           0        0.561753    0.433882   -0.219398
      3          1           0        2.914318    0.843102    0.400488
      4          1           0        2.348236   -0.923791   -0.648626
      5          1           0        1.733626   -0.578060    0.817122
      6          6           0       -0.610997   -0.449854   -0.015292
      7          1           0        0.397378    1.105880   -1.162765
      8          1           0        0.379282    1.429756    0.717598
      9          6           0       -1.892272    0.117232    0.056956
     10          1           0       -0.326488   -1.062941    0.978833
     11          1           0       -0.634450   -1.200009   -0.710654
     12          1           0       -2.119488    0.899809    0.988135
     13          1           0       -2.662454   -0.618897   -0.071043
     14          1           0       -1.813824    0.521501   -0.724780
 ---------------------------------------------------------------------

 SCF Done:  E(RB2PLYPD3) =  -157.904534502     A.U. after   11 cycles
 E2(B2PLYPD3) =    -0.2504980908D+00 E(B2PLYPD3) =    -0.15815503259261D+03

 The electronic state is 1-A.
 Alpha  occ. eigenvalues --  -10.64271 -10.61847 -10.60477 -10.58258  -0.95032
 Alpha  occ. eigenvalues --   -0.86917  -0.73874  -0.65904  -0.55068  -0.52906
 Alpha  occ. eigenvalues --   -0.49866  -0.47237  -0.44022  -0.40745  -0.39044
 Alpha  occ. eigenvalues --   -0.36627  -0.33853
 Alpha virt. eigenvalues --    0.04311   0.06334   0.07183   0.07984   0.10040
 Alpha virt. eigenvalues --    0.10629   0.12934   0.13808   0.14281   0.15359
 Alpha virt. eigenvalues --    0.15645   0.15979   0.18978   0.20432   0.20534

 Mulliken charges:
               1
     1  C   -0.262868
     2  C   -0.023173
     3  H    0.017003
     4  H    0.052135
     5  H    0.181395
     6  C    0.004785
     7  H    0.022299
     8  H   -0.010967
     9  C   -0.216298
    10  H   -0.016621
    11  H    0.038441
    12  H    0.038099
    13  H    0.047179
    14  H    0.128590
 Sum of Mulliken charges =   0.00000

 Dipole moment (field-independent basis, Debye):
    X=             -0.4019    Y=             -0.6037    Z=             -0.4290  Tot=              0.8426
 Quadrupole moment (field-independent basis, Debye-Ang):
   XX=            -30.3946   YY=            -29.3748   ZZ=            -28.8679
   XY=             -0.2805   XZ=              0.4611   YZ=              0.4723

 Normal termination of Gaussian 09 at Wed Aug 26 14:16:21 2020.
