 Gaussian 09, Revision D.01,
 Gaussian 09:  ES64L-G09RevD.01 24-Apr-2013

 --------------------
 #p B2PLYPD3/Def2QZVP
 --------------------

 ----------
 butane_opt
 ----------
 Symbolic Z-matrix:
 Charge =  0 Multiplicity = 1

                         Standard orientation:
 ---------------------------------------------------------------------
 Center     Atomic      Atomic             Coordinates (Angstroms)
 Number     Number       Type             X           Y           Z
 ---------------------------------------------------------------------
      1          6           0       -1.958011    0.145871    0.038423
      2          6           0       -0.500008   -0.492572   -0.095130
      3          1           0       -2.738734   -0.664342   -0.076372
      4          1           0       -2.136326    0.487354   -0.645330
      5          1           0       -2.085973    1.009013    1.161323
      6          6           0        0.585416    0.438500   -0.086126
      7          1           0       -0.518600   -1.175428   -0.939033
      8          1           0       -0.361760   -1.177502    0.818507
      9          6           0        1.906455   -0.119162    0.073869
     10          1           0        0.407882    1.054362    0.770320
     11          1           0        0.496751    1.277268   -1.039520
     12          1           0        1.851968   -0.869223    0.987069
     13          1           0        2.722727    0.734695   -0.023185
     14          1           0        2.158952   -0.512019   -0.599991
 ---------------------------------------------------------------------

 SCF Done:  E(RB2PLYPD3) =  -157.844698232     A.U. after   11 cycles
 E2(B2PLYPD3) =    -0.2487847852D+00 E(B2PLYPD3) =    -0.15809348301677D+03

 The electronic state is 1-A.
 Alpha  occ. eigenvalues --  -10.61193 -10.60717 -10.60421 -10.58288  -0.93694
 Alpha  occ. eigenvalues --   -0.85994  -0.76992  -0.66825  -0.54564  -0.51443
 Alpha  occ. eigenvalues --   -0.50082  -0.46522  -0.42318  -0.41056  -0.38560
 Alpha  occ. eigenvalues --   -0.37716  -0.36071
 Alpha virt. eigenvalues --    0.05238   0.06314   0.07249   0.08008   0.10622
 Alpha virt. eigenvalues --    0.11759   0.12382   0.13421   0.14760   0.15207
 Alpha virt. eigenvalues --    0.15538   0.16073   0.18928   0.19703   0.22452

 Mulliken charges:
               1
     1  C   -0.369923
     2  C   -0.004960
     3  H    0.041128
     4  H    0.254972
     5  H    0.026329
     6  C   -0.002751
     7  H    0.028145
     8  H    0.018457
     9  C   -0.276314
    10  H    0.053395
    11  H   -0.016434
    12  H    0.042983
    13  H    0.030044
    14  H    0.174930
 Sum of Mulliken charges =   0.00000

 Dipole moment (field-independent basis, Debye):
    X=              0.0526    Y=             -0.2931    Z=             -0.5023  Tot=              0.5840
 Quadrupole moment (field-independent basis, Debye-Ang):
   XX=            -29.7226   YY=            -29.1592   ZZ=            -28.3794
   XY=              0.2405   XZ=              0.3208   YZ=              0.2506

 Normal termination of Gaussian 09 at Wed Aug 26 23:23:07 2020.
