 Gaussian 09, Revision D.01,
 Gaussian 09:  ES64L-G09RevD.01 24-Apr-2013

 --------------------
 #p B2PLYPD3/Def2QZVP
 --------------------

 ----------
 butane_opt
 ----------
 Symbolic Z-matrix:
 Charge =  0 Multiplicity = 1

                         Standard orientation:
 ---------------------------------------------------------------------
 Center     Atomic      Atomic             Coordinates (Angstroms)
 Number     Number       Type             X           Y           Z
 ---------------------------------------------------------------------
      1          6           0        1.965776    0.088851   -0.166666
      2          6           0        0.604027   -0.555594    0.211184
      3          1           0        2.755204   -0.452701   -0.384398
      4          1           0        2.592281    0.777942    0.807197
      5          1           0        1.937538    0.767300   -1.052336
      6          6           0       -0.614580    0.558686    0.141283
      7          1           0        0.483068   -1.253578    1.155695
      8          1           0        0.305613   -1.109227   -0.582669
      9          6           0       -2.020690   -0.137487   -0.168784
     10          1           0       -0.364257    1.072864   -0.853962
     11          1           0       -0.614257    1.282423    1.085352
     12          1           0       -2.111112   -0.757422   -1.059966
     13          1           0       -2.742179    0.530295    0.149935
     14          1           0       -1.849094   -0.584636    0.633049
 ---------------------------------------------------------------------

 SCF Done:  E(RB2PLYPD3) =  -157.996967574     A.U. after   11 cycles
 E2(B2PLYPD3) =    -0.2502826156D+00 E(B2PLYPD3) =    -0.15824725018916D+03

 The electronic state is 1-A.
 Alpha  occ. eigenvalues --  -10.63376 -10.62332 -10.61949 -10.57807  -0.90048
 Alpha  occ. eigenvalues --   -0.83893  -0.73366  -0.65777  -0.53984  -0.50237
 Alpha  occ. eigenvalues --   -0.48611  -0.48009  -0.43033  -0.41715  -0.37876
 Alpha  occ. eigenvalues --   -0.36276  -0.34577
 Alpha virt. eigenvalues --    0.05470   0.06572   0.08243   0.08440   0.10424
 Alpha virt. eigenvalues --    0.11806   0.12443   0.14236   0.14331   0.15512
 Alpha virt. eigenvalues --    0.15815   0.16374   0.18888   0.19230   0.21656

 Mulliken charges:
               1
     1  C   -0.134114
     2  C   -0.088083
     3  H    0.059636
     4  H   -0.002140
     5  H    0.045513
     6  C   -0.071879
     7  H    0.028688
     8  H    0.082903
     9  C   -0.215093
    10  H    0.030745
    11  H    0.044749
    12  H    0.060976
    13  H    0.052571
    14  H    0.105528
 Sum of Mulliken charges =   0.00000

 Dipole moment (field-independent basis, Debye):
    X=             -0.0890    Y=             -0.3865    Z=             -0.2488  Tot=              0.4682
 Quadrupole moment (field-independent basis, Debye-Ang):
   XX=            -29.5825   YY=            -29.8837   ZZ=            -27.8227
   XY=             -0.5472   XZ=             -0.8987   YZ=              0.4809

 Normal termination of Gaussian 09 at Wed Aug 26 23:45:32 2020.
