 Gaussian 09, Revision D.01,
 Gaussian 09:  ES64L-G09RevD.01 24-Apr-2013

 --------------------
 #p B2PLYPD3/Def2QZVP
 --------------------

 ----------
 butane_opt
 ----------
 Symbolic Z-matrix:
 Charge =  0 Multiplicity = 1

                         Standard orientation:
 ---------------------------------------------------------------------
 Center     Atomic      Atomic             Coordinates (Angstroms)
 Number     Number       Type             X           Y           Z
 ---------------------------------------------------------------------
      1          6           0       -1.899281   -0.151071   -0.163725
      2          6           0       -0.538979    0.494212    0.208655
      3          1           0       -2.619690    0.656240   -0.709339
      4          1           0       -2.549072   -1.126924    0.910676
      5          1           0       -1.884568   -0.297682   -0.699982
      6          6           0        0.543604   -0.428178    0.111942
      7          1           0       -0.237365    1.349955    1.325390
      8          1           0       -0.257519    0.902016   -0.432147
      9          6           0        1.892670    0.066155   -0.142583
     10          1           0        0.326443   -0.870111   -0.731550
     11          1           0        0.610179   -1.027127    0.934737
     12          1           0        1.589258    0.736006   -1.056928
     13          1           0        2.754095   -0.890404   -0.196020
     14          1           0        2.280153    0.681326    0.569432
 ---------------------------------------------------------------------

 SCF Done:  E(RB2PLYPD3) =  -157.174989777     A.U. after   12 cycles
 E2(B2PLYPD3) =    -0.2534625819D+00 E(B2PLYPD3) =    -0.15742845235857D+03

 The electronic state is 1-A.
 Alpha  occ. eigenvalues --  -10.64417 -10.61777 -10.60854 -10.57376  -0.98486
 Alpha  occ. eigenvalues --   -0.90190  -0.78976  -0.68637  -0.58407  -0.52913
 Alpha  occ. eigenvalues --   -0.48744  -0.47409  -0.41275  -0.39777  -0.38991
 Alpha  occ. eigenvalues --   -0.37028  -0.35586
 Alpha virt. eigenvalues --    0.02949   0.05123   0.06771   0.07766   0.09536
 Alpha virt. eigenvalues --    0.10562   0.11864   0.12616   0.14271   0.14936
 Alpha virt. eigenvalues --    0.16472   0.17005   0.17800   0.19340   0.20434

 Mulliken charges:
               1
     1  C   -0.892205
     2  C   -0.234173
     3  H    0.058057
     4  H    0.049365
     5  H    0.719233
     6  C   -0.040457
     7  H   -0.004177
     8  H    0.275722
     9  C   -0.146737
    10  H    0.070303
    11  H    0.027542
    12  H    0.022358
    13  H    0.039014
    14  H    0.056155
 Sum of Mulliken charges =   0.00000

 Dipole moment (field-independent basis, Debye):
    X=              0.2531    Y=             -0.2475    Z=             -0.6020  Tot=              0.6984
 Quadrupole moment (field-independent basis, Debye-Ang):
   XX=            -30.4951   YY=            -29.8247   ZZ=            -28.0016
   XY=              0.1836   XZ=              2.2565   YZ=             -0.9518

 Normal termination of Gaussian 09 at Wed Aug 26 12:31:55 2020.
