 Gaussian 09, Revision D.01,
 Gaussian 09:  ES64L-G09RevD.01 24-Apr-2013

 --------------------
 #p B2PLYPD3/Def2QZVP
 --------------------

 ----------
 butane_opt
 ----------
 Symbolic Z-matrix:
 Charge =  0 Multiplicity = 1

                         Standard orientation:
 ---------------------------------------------------------------------
 Center     Atomic      Atomic             Coordinates (Angstroms)
 Number     Number       Type             X           Y           Z
 ---------------------------------------------------------------------
      1          6           0        1.847157    0.012347   -0.179653
      2          6           0        0.557661   -0.440873    0.338117
      3          1           0        2.663609   -0.751497   -0.794009
      4          1           0        2.418809    1.205219    0.824429
      5          1           0        1.763704    0.305916   -0.904103
      6          6           0       -0.559923    0.521084    0.026896
      7          1           0        0.838969   -0.998954    1.430386
      8          1           0        0.210711   -0.932965   -0.390871
      9          6           0       -1.945196   -0.114076   -0.073200
     10          1           0       -0.129212    1.171568   -1.191809
     11          1           0       -0.411253    1.353927    0.812697
     12          1           0       -1.919733   -1.283664   -1.027008
     13          1           0       -2.685972    0.537121   -0.224151
     14          1           0       -2.147827   -0.477564    0.791476
 ---------------------------------------------------------------------

 SCF Done:  E(RB2PLYPD3) =  -157.706231714     A.U. after   11 cycles
 E2(B2PLYPD3) =    -0.2567189330D+00 E(B2PLYPD3) =    -0.15796295064737D+03

 The electronic state is 1-A.
 Alpha  occ. eigenvalues --  -10.66072 -10.62924 -10.62658 -10.61124  -0.95156
 Alpha  occ. eigenvalues --   -0.86209  -0.76453  -0.65979  -0.57265  -0.52030
 Alpha  occ. eigenvalues --   -0.48933  -0.45110  -0.42467  -0.39416  -0.37845
 Alpha  occ. eigenvalues --   -0.35462  -0.33182
 Alpha virt. eigenvalues --    0.02610   0.03640   0.05829   0.07340   0.08879
 Alpha virt. eigenvalues --    0.09721   0.11282   0.12485   0.13163   0.14022
 Alpha virt. eigenvalues --    0.15591   0.16621   0.18257   0.18767   0.19896

 Mulliken charges:
               1
     1  C   -0.375430
     2  C   -0.077203
     3  H    0.037811
     4  H   -0.031219
     5  H    0.288515
     6  C   -0.060736
     7  H    0.056904
     8  H    0.105560
     9  C   -0.144558
    10  H   -0.003359
    11  H    0.042964
    12  H    0.002285
    13  H    0.073010
    14  H    0.085456
 Sum of Mulliken charges =   0.00000

 Dipole moment (field-independent basis, Debye):
    X=             -1.0280    Y=             -0.2481    Z=             -0.1360  Tot=              1.0663
 Quadrupole moment (field-independent basis, Debye-Ang):
   XX=            -31.7095   YY=            -30.9832   ZZ=            -28.5147
   XY=             -1.3997   XZ=             -2.3697   YZ=              0.4370

 Normal termination of Gaussian 09 at Wed Aug 26 09:15:42 2020.
