 Gaussian 09, Revision D.01,
 Gaussian 09:  ES64L-G09RevD.01 24-Apr-2013

 --------------------
 #p B2PLYPD3/Def2QZVP
 --------------------

 ----------
 butane_opt
 ----------
 Symbolic Z-matrix:
 Charge =  0 Multiplicity = 1

                         Standard orientation:
 ---------------------------------------------------------------------
 Center     Atomic      Atomic             Coordinates (Angstroms)
 Number     Number       Type             X           Y           Z
 ---------------------------------------------------------------------
      1          6           0        1.884792    0.230356    0.069316
      2          6           0        0.500394   -0.656831   -0.029641
      3          1           0        2.603103   -0.646629   -0.349540
      4          1           0        2.361228    1.700167    1.216387
      5          1           0        2.112778    0.071267   -0.348236
      6          6           0       -0.599789    0.440134   -0.247592
      7          1           0        0.409996   -1.100129    0.866871
      8          1           0        0.370483   -1.403069   -0.872304
      9          6           0       -1.871827   -0.027531    0.125977
     10          1           0       -0.561017    1.006533   -1.323782
     11          1           0       -0.178587    0.815613    0.250873
     12          1           0       -1.898297   -0.461954   -0.425955
     13          1           0       -2.768938    1.003624    0.097805
     14          1           0       -1.932164   -0.902187    1.379519
 ---------------------------------------------------------------------

 SCF Done:  E(RB2PLYPD3) =  -156.389978428     A.U. after   14 cycles
 E2(B2PLYPD3) =    -0.2653826831D+00 E(B2PLYPD3) =    -0.15665536111090D+03

 The electronic state is 1-A.
 Alpha  occ. eigenvalues --  -10.67905 -10.62679 -10.61284 -10.57081  -0.99632
 Alpha  occ. eigenvalues --   -0.95166  -0.81929  -0.71192  -0.54495  -0.50990
 Alpha  occ. eigenvalues --   -0.47932  -0.46135  -0.41847  -0.37818  -0.36964
 Alpha  occ. eigenvalues --   -0.34777  -0.30458
 Alpha virt. eigenvalues --   -0.04927   0.03543   0.04455   0.06565   0.08989
 Alpha virt. eigenvalues --    0.10866   0.11193   0.13132   0.13905   0.14876
 Alpha virt. eigenvalues --    0.15518   0.16725   0.17878   0.19063   0.20258

 Mulliken charges:
               1
     1  C   -1.100929
     2  C   -0.074015
     3  H    0.055627
     4  H    0.102219
     5  H    0.887998
     6  C   -0.391994
     7  H    0.078815
     8  H    0.034088
     9  C   -0.556083
    10  H    0.042953
    11  H    0.397636
    12  H    0.472751
    13  H    0.045024
    14  H    0.005911
 Sum of Mulliken charges =   0.00000

 Dipole moment (field-independent basis, Debye):
    X=              0.6889    Y=              0.0039    Z=             -0.7323  Tot=              1.0054
 Quadrupole moment (field-independent basis, Debye-Ang):
   XX=            -30.9913   YY=            -28.0295   ZZ=            -28.1629
   XY=              0.4919   XZ=             -0.0590   YZ=              1.9510

 Normal termination of Gaussian 09 at Wed Aug 26 15:46:00 2020.
