 Gaussian 09, Revision D.01,
 Gaussian 09:  ES64L-G09RevD.01 24-Apr-2013

 --------------------
 #p B2PLYPD3/Def2QZVP
 --------------------

 ----------
 butane_opt
 ----------
 Symbolic Z-matrix:
 Charge =  0 Multiplicity = 1

                         Standard orientation:
 ---------------------------------------------------------------------
 Center     Atomic      Atomic             Coordinates (Angstroms)
 Number     Number       Type             X           Y           Z
 ---------------------------------------------------------------------
      1          6           0        1.857954   -0.075956    0.100211
      2          6           0        0.571533    0.478341   -0.195739
      3          1           0        2.527745    0.662174    0.364438
      4          1           0        2.040850   -0.805650   -0.639251
      5          1           0        1.939487   -0.733072    1.023924
      6          6           0       -0.523485   -0.547634   -0.100534
      7          1           0        0.895628    1.235572   -1.062987
      8          1           0        0.258672    1.158504    0.626876
      9          6           0       -1.924442    0.078393    0.070968
     10          1           0       -0.243352   -1.271668    0.858977
     11          1           0       -0.389155   -1.192164   -0.958471
     12          1           0       -1.939518    1.201495    1.169228
     13          1           0       -2.729408   -0.548460    0.153666
     14          1           0       -2.250312    0.694408   -0.785838
 ---------------------------------------------------------------------

 SCF Done:  E(RB2PLYPD3) =  -158.003014324     A.U. after   11 cycles
 E2(B2PLYPD3) =    -0.2512006345D+00 E(B2PLYPD3) =    -0.15825421495884D+03

 The electronic state is 1-A.
 Alpha  occ. eigenvalues --  -10.64072 -10.63194 -10.60748 -10.58338  -0.92672
 Alpha  occ. eigenvalues --   -0.83731  -0.72816  -0.65800  -0.54620  -0.51661
 Alpha  occ. eigenvalues --   -0.50025  -0.46792  -0.42169  -0.39181  -0.38796
 Alpha  occ. eigenvalues --   -0.35657  -0.35129
 Alpha virt. eigenvalues --    0.04043   0.06219   0.07112   0.07981   0.10583
 Alpha virt. eigenvalues --    0.11198   0.12343   0.12756   0.14284   0.14540
 Alpha virt. eigenvalues --    0.15824   0.16475   0.19816   0.20198   0.20824

 Mulliken charges:
               1
     1  C   -0.130140
     2  C   -0.035946
     3  H    0.053443
     4  H    0.048165
     5  H    0.004968
     6  C   -0.037545
     7  H    0.032777
     8  H    0.025143
     9  C   -0.143911
    10  H    0.035479
    11  H    0.042867
    12  H   -0.016418
    13  H    0.073129
    14  H    0.047989
 Sum of Mulliken charges =   0.00000

 Dipole moment (field-independent basis, Debye):
    X=              0.0599    Y=             -0.3391    Z=             -0.4759  Tot=              0.5874
 Quadrupole moment (field-independent basis, Debye-Ang):
   XX=            -29.5640   YY=            -29.1044   ZZ=            -29.5516
   XY=              1.1610   XZ=              1.1462   YZ=              0.0978

 Normal termination of Gaussian 09 at Wed Aug 26 23:33:34 2020.
