 Gaussian 09, Revision D.01,
 Gaussian 09:  ES64L-G09RevD.01 24-Apr-2013

 --------------------
 #p B2PLYPD3/Def2QZVP
 --------------------

 ----------
 butane_opt
 ----------
 Symbolic Z-matrix:
 Charge =  0 Multiplicity = 1

                         Standard orientation:
 ---------------------------------------------------------------------
 Center     Atomic      Atomic             Coordinates (Angstroms)
 Number     Number       Type             X           Y           Z
 ---------------------------------------------------------------------
      1          6           0       -1.984491   -0.260258   -0.144178
      2          6           0       -0.564722    0.601169   -0.036492
      3          1           0       -2.746829    0.375689   -0.138371
      4          1           0       -2.246143   -0.387057    0.793629
      5          1           0       -2.021734   -1.144459   -0.863937
      6          6           0        0.628630   -0.247375    0.478076
      7          1           0       -0.718513    1.550512    0.508917
      8          1           0       -0.464493    0.665329   -0.867804
      9          6           0        1.952579    0.023411   -0.272938
     10          1           0        0.305766   -1.075915   -0.074860
     11          1           0        0.743125   -0.740738    1.600201
     12          1           0        1.491454    0.033352   -0.944622
     13          1           0        2.900074   -1.066416   -0.521464
     14          1           0        2.565319    1.088022    0.361500
 ---------------------------------------------------------------------

 SCF Done:  E(RB2PLYPD3) =  -157.779716663     A.U. after   11 cycles
 E2(B2PLYPD3) =    -0.2523155815D+00 E(B2PLYPD3) =    -0.15803203224476D+03

 The electronic state is 1-A.
 Alpha  occ. eigenvalues --  -10.63267 -10.61930 -10.60144 -10.59225  -0.93760
 Alpha  occ. eigenvalues --   -0.85603  -0.76366  -0.67697  -0.56036  -0.50926
 Alpha  occ. eigenvalues --   -0.48136  -0.45747  -0.44607  -0.39592  -0.38612
 Alpha  occ. eigenvalues --   -0.37412  -0.33594
 Alpha virt. eigenvalues --    0.04231   0.06193   0.07915   0.08518   0.09383
 Alpha virt. eigenvalues --    0.10404   0.12330   0.13736   0.14329   0.15023
 Alpha virt. eigenvalues --    0.15591   0.16946   0.18729   0.18948   0.20834

 Mulliken charges:
               1
     1  C   -0.160494
     2  C   -0.256296
     3  H    0.046611
     4  H    0.052711
     5  H    0.062711
     6  C   -0.057104
     7  H    0.036424
     8  H    0.238710
     9  C   -0.366711
    10  H    0.049907
    11  H    0.033837
    12  H    0.256065
    13  H    0.017097
    14  H    0.046531
 Sum of Mulliken charges =   0.00000

 Dipole moment (field-independent basis, Debye):
    X=             -0.9645    Y=              0.0359    Z=             -0.1727  Tot=              0.9805
 Quadrupole moment (field-independent basis, Debye-Ang):
   XX=            -30.4091   YY=            -29.0588   ZZ=            -28.7202
   XY=             -0.4509   XZ=             -0.0024   YZ=              1.4085

 Normal termination of Gaussian 09 at Wed Aug 26 10:59:12 2020.
