 Gaussian 09, Revision D.01,
 Gaussian 09:  ES64L-G09RevD.01 24-Apr-2013

 --------------------
 #p B2PLYPD3/Def2QZVP
 --------------------

 ----------
 butane_opt
 ----------
 Symbolic Z-matrix:
 Charge =  0 Multiplicity = 1

                         Standard orientation:
 ---------------------------------------------------------------------
 Center     Atomic      Atomic             Coordinates (Angstroms)
 Number     Number       Type             X           Y           Z
 ---------------------------------------------------------------------
      1          6           0       -1.863720   -0.109983   -0.198707
      2          6           0       -0.522400    0.518589    0.188866
      3          1           0       -2.589069    0.663431   -0.438079
      4          1           0       -2.200192   -1.134902    0.782088
      5          1           0       -1.891123   -0.579594   -0.913391
      6          6           0        0.496701   -0.506271    0.134536
      7          1           0       -0.678684    1.612503    1.387932
      8          1           0       -0.294613    0.939064   -0.560680
      9          6           0        1.878043    0.107150   -0.089471
     10          1           0        0.198781   -0.952520   -0.780262
     11          1           0        0.514031   -1.287084    1.035935
     12          1           0        2.205799    1.002571   -1.186309
     13          1           0        2.709320   -0.807790   -0.184742
     14          1           0        2.094009    0.487415    0.646161
 ---------------------------------------------------------------------

 SCF Done:  E(RB2PLYPD3) =  -157.767212488     A.U. after   11 cycles
 E2(B2PLYPD3) =    -0.2532005983D+00 E(B2PLYPD3) =    -0.15802041308683D+03

 The electronic state is 1-A.
 Alpha  occ. eigenvalues --  -10.62889 -10.62409 -10.62362 -10.61245  -0.95689
 Alpha  occ. eigenvalues --   -0.85061  -0.76181  -0.67724  -0.55368  -0.51379
 Alpha  occ. eigenvalues --   -0.50224  -0.44919  -0.43982  -0.39932  -0.37582
 Alpha  occ. eigenvalues --   -0.36493  -0.34920
 Alpha virt. eigenvalues --    0.03226   0.04988   0.05543   0.07315   0.10104
 Alpha virt. eigenvalues --    0.10713   0.11934   0.12301   0.13168   0.14790
 Alpha virt. eigenvalues --    0.15648   0.16426   0.18594   0.19753   0.20170

 Mulliken charges:
               1
     1  C   -0.237060
     2  C   -0.161395
     3  H    0.054940
     4  H    0.001494
     5  H    0.138478
     6  C   -0.031509
     7  H   -0.021268
     8  H    0.189026
     9  C   -0.258890
    10  H    0.074654
    11  H    0.038987
    12  H    0.013068
    13  H    0.027193
    14  H    0.172282
 Sum of Mulliken charges =   0.00000

 Dipole moment (field-independent basis, Debye):
    X=              0.2070    Y=             -0.2915    Z=             -0.7817  Tot=              0.8596
 Quadrupole moment (field-independent basis, Debye-Ang):
   XX=            -31.2796   YY=            -29.9357   ZZ=            -28.8720
   XY=             -0.5131   XZ=              2.2159   YZ=             -0.7283

 Normal termination of Gaussian 09 at Wed Aug 26 20:58:27 2020.
