 Gaussian 09, Revision D.01,
 Gaussian 09:  ES64L-G09RevD.01 24-Apr-2013

 --------------------
 #p B2PLYPD3/Def2QZVP
 --------------------

 ----------
 butane_opt
 ----------
 Symbolic Z-matrix:
 Charge =  0 Multiplicity = 1

                         Standard orientation:
 ---------------------------------------------------------------------
 Center     Atomic      Atomic             Coordinates (Angstroms)
 Number     Number       Type             X           Y           Z
 ---------------------------------------------------------------------
      1          6           0       -2.003835    0.124553   -0.019803
      2          6           0       -0.564665   -0.595878    0.022553
      3          1           0       -2.630105   -0.442586   -0.310815
      4          1           0       -2.125074    0.456395   -0.694270
      5          1           0       -2.193707    1.165583    1.075657
      6          6           0        0.604248    0.503392   -0.086600
      7          1           0       -0.382501   -1.149534   -0.642802
      8          1           0       -0.456283   -1.177403    0.908862
      9          6           0        1.943212   -0.106861    0.025290
     10          1           0        0.451764    1.154092    0.755071
     11          1           0        0.603188    1.158795   -0.976394
     12          1           0        1.949859   -0.737202    0.995208
     13          1           0        2.761766    0.745730    0.049726
     14          1           0        2.147328   -0.725102   -0.808882
 ---------------------------------------------------------------------

 SCF Done:  E(RB2PLYPD3) =  -157.812071557     A.U. after   11 cycles
 E2(B2PLYPD3) =    -0.2477777863D+00 E(B2PLYPD3) =    -0.15805984934361D+03

 The electronic state is 1-A.
 Alpha  occ. eigenvalues --  -10.60548 -10.59961 -10.59131 -10.58343  -0.92392
 Alpha  occ. eigenvalues --   -0.87311  -0.77457  -0.67604  -0.54524  -0.49893
 Alpha  occ. eigenvalues --   -0.49268  -0.46854  -0.43068  -0.40975  -0.38849
 Alpha  occ. eigenvalues --   -0.38154  -0.35774
 Alpha virt. eigenvalues --    0.04495   0.06231   0.08136   0.08574   0.10899
 Alpha virt. eigenvalues --    0.11146   0.12299   0.13351   0.14803   0.15634
 Alpha virt. eigenvalues --    0.15862   0.16662   0.19040   0.19774   0.21395

 Mulliken charges:
               1
     1  C   -0.416823
     2  C   -0.099337
     3  H    0.067342
     4  H    0.279020
     5  H    0.028422
     6  C   -0.026765
     7  H    0.101748
     8  H    0.038807
     9  C   -0.158824
    10  H    0.036260
    11  H    0.023412
    12  H    0.040599
    13  H    0.037140
    14  H    0.048999
 Sum of Mulliken charges =   0.00000

 Dipole moment (field-independent basis, Debye):
    X=             -0.0842    Y=             -0.2308    Z=             -0.6807  Tot=              0.7236
 Quadrupole moment (field-independent basis, Debye-Ang):
   XX=            -30.0864   YY=            -28.4109   ZZ=            -27.7653
   XY=              0.5537   XZ=              1.2296   YZ=              0.4299

 Normal termination of Gaussian 09 at Wed Aug 26 19:06:51 2020.
