 Gaussian 09, Revision D.01,
 Gaussian 09:  ES64L-G09RevD.01 24-Apr-2013

 --------------------
 #p B2PLYPD3/Def2QZVP
 --------------------

 ----------
 butane_opt
 ----------
 Symbolic Z-matrix:
 Charge =  0 Multiplicity = 1

                         Standard orientation:
 ---------------------------------------------------------------------
 Center     Atomic      Atomic             Coordinates (Angstroms)
 Number     Number       Type             X           Y           Z
 ---------------------------------------------------------------------
      1          6           0       -1.936770    0.099366   -0.069773
      2          6           0       -0.610152   -0.515044    0.116422
      3          1           0       -2.627642   -0.690041   -0.278690
      4          1           0       -1.846242    0.478766   -0.837751
      5          1           0       -2.254646    1.037053    0.882967
      6          6           0        0.534952    0.576742   -0.040920
      7          1           0       -0.491765   -1.101433   -0.702917
      8          1           0       -0.613757   -1.204724    1.018964
      9          6           0        2.012666   -0.150810   -0.042000
     10          1           0        0.443208    1.295467    0.883745
     11          1           0        0.440987    1.044522   -0.876948
     12          1           0        2.066388   -0.703691    0.850141
     13          1           0        2.707115    0.483541    0.096882
     14          1           0        2.172168   -0.700977   -0.818769
 ---------------------------------------------------------------------

 SCF Done:  E(RB2PLYPD3) =  -157.976631236     A.U. after   11 cycles
 E2(B2PLYPD3) =    -0.2461531555D+00 E(B2PLYPD3) =    -0.15822278439139D+03

 The electronic state is 1-A.
 Alpha  occ. eigenvalues --  -10.60895 -10.59846 -10.58933 -10.56700  -0.91882
 Alpha  occ. eigenvalues --   -0.84809  -0.74797  -0.68015  -0.54562  -0.50823
 Alpha  occ. eigenvalues --   -0.49930  -0.48610  -0.42868  -0.41655  -0.39590
 Alpha  occ. eigenvalues --   -0.37458  -0.36330
 Alpha virt. eigenvalues --    0.05640   0.06895   0.08326   0.08928   0.10828
 Alpha virt. eigenvalues --    0.11767   0.12806   0.13937   0.14840   0.15292
 Alpha virt. eigenvalues --    0.15985   0.16711   0.19001   0.20348   0.21681

 Mulliken charges:
               1
     1  C   -0.245537
     2  C   -0.035146
     3  H    0.047082
     4  H    0.142433
     5  H    0.016879
     6  C   -0.097360
     7  H    0.048085
     8  H    0.030787
     9  C   -0.138556
    10  H    0.021144
    11  H    0.073240
    12  H    0.037252
    13  H    0.048555
    14  H    0.051140
 Sum of Mulliken charges =   0.00000

 Dipole moment (field-independent basis, Debye):
    X=              0.2658    Y=             -0.2198    Z=             -0.5464  Tot=              0.6462
 Quadrupole moment (field-independent basis, Debye-Ang):
   XX=            -29.8591   YY=            -28.6648   ZZ=            -27.4750
   XY=              0.8056   XZ=              0.6105   YZ=              0.2599

 Normal termination of Gaussian 09 at Wed Aug 26 22:31:38 2020.
