 Gaussian 09, Revision D.01,
 Gaussian 09:  ES64L-G09RevD.01 24-Apr-2013

 --------------------
 #p B2PLYPD3/Def2QZVP
 --------------------

 ----------
 butane_opt
 ----------
 Symbolic Z-matrix:
 Charge =  0 Multiplicity = 1

                         Standard orientation:
 ---------------------------------------------------------------------
 Center     Atomic      Atomic             Coordinates (Angstroms)
 Number     Number       Type             X           Y           Z
 ---------------------------------------------------------------------
      1          6           0       -1.873520    0.132617   -0.163516
      2          6           0       -0.560302   -0.542687    0.130240
      3          1           0       -2.611005   -0.671416    0.233381
      4          1           0       -2.155970    0.815205   -1.116683
      5          1           0       -1.885928    0.546292    0.561146
      6          6           0        0.516532    0.524908    0.268182
      7          1           0       -0.498893   -1.212171   -0.854205
      8          1           0       -0.716530   -1.099128    0.995021
      9          6           0        1.976348   -0.116203   -0.155840
     10          1           0        0.586641    1.299229    1.306724
     11          1           0        0.232817    1.375669   -0.672506
     12          1           0        2.565274   -0.930108    0.641697
     13          1           0        2.601056    0.503131   -0.647776
     14          1           0        1.528188   -0.618506   -0.921199
 ---------------------------------------------------------------------

 SCF Done:  E(RB2PLYPD3) =  -157.914967403     A.U. after   11 cycles
 E2(B2PLYPD3) =    -0.2523325017D+00 E(B2PLYPD3) =    -0.15816729990514D+03

 The electronic state is 1-A.
 Alpha  occ. eigenvalues --  -10.65932 -10.61736 -10.60663 -10.58275  -0.92640
 Alpha  occ. eigenvalues --   -0.83625  -0.73036  -0.64955  -0.54647  -0.49701
 Alpha  occ. eigenvalues --   -0.48432  -0.46121  -0.43571  -0.39086  -0.38240
 Alpha  occ. eigenvalues --   -0.36470  -0.35409
 Alpha virt. eigenvalues --    0.05467   0.06579   0.07113   0.07746   0.10104
 Alpha virt. eigenvalues --    0.11307   0.11957   0.13867   0.14422   0.15161
 Alpha virt. eigenvalues --    0.16009   0.16397   0.18098   0.19856   0.20139

 Mulliken charges:
               1
     1  C   -0.335231
     2  C   -0.011447
     3  H    0.023145
     4  H    0.062669
     5  H    0.220718
     6  C   -0.083544
     7  H    0.026020
     8  H    0.055880
     9  C   -0.174344
    10  H    0.030498
    11  H    0.014265
    12  H    0.035664
    13  H    0.060541
    14  H    0.075166
 Sum of Mulliken charges =   0.00000

 Dipole moment (field-independent basis, Debye):
    X=             -0.1897    Y=              0.0122    Z=              0.0502  Tot=              0.1966
 Quadrupole moment (field-independent basis, Debye-Ang):
   XX=            -30.6958   YY=            -29.5350   ZZ=            -28.0193
   XY=              0.1348   XZ=             -0.5568   YZ=             -0.9154

 Normal termination of Gaussian 09 at Wed Aug 26 20:34:37 2020.
