 Gaussian 09, Revision D.01,
 Gaussian 09:  ES64L-G09RevD.01 24-Apr-2013

 --------------------
 #p B2PLYPD3/Def2QZVP
 --------------------

 ----------
 butane_opt
 ----------
 Symbolic Z-matrix:
 Charge =  0 Multiplicity = 1

                         Standard orientation:
 ---------------------------------------------------------------------
 Center     Atomic      Atomic             Coordinates (Angstroms)
 Number     Number       Type             X           Y           Z
 ---------------------------------------------------------------------
      1          6           0        1.912964    0.050989   -0.151875
      2          6           0        0.551427   -0.352660    0.127627
      3          1           0        2.894111   -0.926281    0.071720
      4          1           0        2.171498    0.649887    0.518112
      5          1           0        1.807490    0.513895   -1.074160
      6          6           0       -0.513758    0.554231    0.178403
      7          1           0        0.678372   -1.082037    0.993072
      8          1           0        0.446465   -1.046653   -0.677949
      9          6           0       -1.972627   -0.166600   -0.072144
     10          1           0       -0.489722    1.094993   -0.705858
     11          1           0       -0.186296    1.514876    1.111000
     12          1           0       -1.627115   -0.647152   -0.798871
     13          1           0       -2.788330    0.275938   -0.937618
     14          1           0       -2.774510   -0.863227    1.008488
 ---------------------------------------------------------------------

 SCF Done:  E(RB2PLYPD3) =  -157.857722451     A.U. after   11 cycles
 E2(B2PLYPD3) =    -0.2546613047D+00 E(B2PLYPD3) =    -0.15811238375564D+03

 The electronic state is 1-A.
 Alpha  occ. eigenvalues --  -10.65352 -10.64567 -10.60331 -10.59681  -0.95031
 Alpha  occ. eigenvalues --   -0.84817  -0.74179  -0.66747  -0.56693  -0.50010
 Alpha  occ. eigenvalues --   -0.48230  -0.47560  -0.41194  -0.39552  -0.38152
 Alpha  occ. eigenvalues --   -0.36053  -0.34957
 Alpha virt. eigenvalues --    0.03903   0.04408   0.06731   0.07578   0.09383
 Alpha virt. eigenvalues --    0.09979   0.11771   0.12757   0.14813   0.15359
 Alpha virt. eigenvalues --    0.15774   0.16344   0.17558   0.18216   0.20829

 Mulliken charges:
               1
     1  C   -0.160420
     2  C   -0.003545
     3  H    0.019580
     4  H    0.069767
     5  H    0.055866
     6  C   -0.084772
     7  H    0.010610
     8  H    0.030308
     9  C   -0.243215
    10  H    0.070884
    11  H    0.004429
    12  H    0.150635
    13  H    0.033413
    14  H    0.046462
 Sum of Mulliken charges =   0.00000

 Dipole moment (field-independent basis, Debye):
    X=              0.2434    Y=             -0.0407    Z=             -0.6790  Tot=              0.7224
 Quadrupole moment (field-independent basis, Debye-Ang):
   XX=            -31.1402   YY=            -30.5328   ZZ=            -28.4092
   XY=              0.6975   XZ=              1.7827   YZ=             -0.4880

 Normal termination of Gaussian 09 at Wed Aug 26 15:46:41 2020.
