 Gaussian 09, Revision D.01,
 Gaussian 09:  ES64L-G09RevD.01 24-Apr-2013

 --------------------
 #p B2PLYPD3/Def2QZVP
 --------------------

 ----------
 butane_opt
 ----------
 Symbolic Z-matrix:
 Charge =  0 Multiplicity = 1

                         Standard orientation:
 ---------------------------------------------------------------------
 Center     Atomic      Atomic             Coordinates (Angstroms)
 Number     Number       Type             X           Y           Z
 ---------------------------------------------------------------------
      1          6           0        1.874082   -0.092475   -0.038567
      2          6           0        0.578202    0.484972    0.112919
      3          1           0        2.881570    0.941015   -0.377488
      4          1           0        1.686905   -0.408468   -0.691675
      5          1           0        2.232127   -0.881304    0.972704
      6          6           0       -0.507455   -0.656994    0.005231
      7          1           0        0.453755    1.125463   -0.729018
      8          1           0        0.434251    1.048649    0.966412
      9          6           0       -1.937876    0.098839   -0.005497
     10          1           0       -0.315948   -1.022017    0.741915
     11          1           0       -0.214307   -1.256962   -1.001341
     12          1           0       -2.748269    0.812933    0.936731
     13          1           0       -2.595536   -0.412185   -0.322751
     14          1           0       -1.856262    1.046822   -0.940011
 ---------------------------------------------------------------------

 SCF Done:  E(RB2PLYPD3) =  -157.680405861     A.U. after   11 cycles
 E2(B2PLYPD3) =    -0.2528788824D+00 E(B2PLYPD3) =    -0.15793328474332D+03

 The electronic state is 1-A.
 Alpha  occ. eigenvalues --  -10.64121 -10.61647 -10.61434 -10.59314  -0.95585
 Alpha  occ. eigenvalues --   -0.85141  -0.75225  -0.69451  -0.56917  -0.49191
 Alpha  occ. eigenvalues --   -0.48763  -0.46189  -0.42612  -0.40741  -0.39259
 Alpha  occ. eigenvalues --   -0.36947  -0.34253
 Alpha virt. eigenvalues --    0.04102   0.04481   0.07059   0.07858   0.09451
 Alpha virt. eigenvalues --    0.10617   0.11593   0.12886   0.14030   0.15146
 Alpha virt. eigenvalues --    0.16092   0.16971   0.18312   0.19007   0.20080

 Mulliken charges:
               1
     1  C   -0.496774
     2  C   -0.003648
     3  H    0.006273
     4  H    0.373381
     5  H    0.042336
     6  C   -0.211176
     7  H    0.046818
     8  H    0.058260
     9  C   -0.231854
    10  H    0.195112
    11  H    0.050209
    12  H    0.034477
    13  H    0.127582
    14  H    0.009004
 Sum of Mulliken charges =   0.00000

 Dipole moment (field-independent basis, Debye):
    X=             -0.5047    Y=             -0.4371    Z=             -0.1869  Tot=              0.6933
 Quadrupole moment (field-independent basis, Debye-Ang):
   XX=            -31.5802   YY=            -29.4475   ZZ=            -28.4619
   XY=              0.0001   XZ=              0.0544   YZ=             -0.0987

 Normal termination of Gaussian 09 at Wed Aug 26 16:36:50 2020.
