 Gaussian 09, Revision D.01,
 Gaussian 09:  ES64L-G09RevD.01 24-Apr-2013

 --------------------
 #p B2PLYPD3/Def2QZVP
 --------------------

 ----------
 butane_opt
 ----------
 Symbolic Z-matrix:
 Charge =  0 Multiplicity = 1

                         Standard orientation:
 ---------------------------------------------------------------------
 Center     Atomic      Atomic             Coordinates (Angstroms)
 Number     Number       Type             X           Y           Z
 ---------------------------------------------------------------------
      1          6           0        1.871165    0.091342   -0.007254
      2          6           0        0.617875   -0.421144   -0.046368
      3          1           0        2.620264   -0.674277   -0.199559
      4          1           0        1.661908    0.767863    1.065186
      5          1           0        1.941247    0.399165   -0.715855
      6          6           0       -0.464124    0.548443    0.018881
      7          1           0        0.518642   -1.138188    0.764211
      8          1           0        0.525950   -0.915128   -0.892845
      9          6           0       -1.958283   -0.182914    0.027373
     10          1           0       -0.653196    1.057676   -0.625943
     11          1           0       -0.123175    1.220062    0.942066
     12          1           0       -1.752056   -0.439930   -0.750187
     13          1           0       -2.832229    0.690491   -0.553381
     14          1           0       -2.307155   -1.182097    1.010511
 ---------------------------------------------------------------------

 SCF Done:  E(RB2PLYPD3) =  -157.671790825     A.U. after   11 cycles
 E2(B2PLYPD3) =    -0.2523621278D+00 E(B2PLYPD3) =    -0.15792415295277D+03

 The electronic state is 1-A.
 Alpha  occ. eigenvalues --  -10.63624 -10.59816 -10.57450 -10.56966  -0.97547
 Alpha  occ. eigenvalues --   -0.87980  -0.75428  -0.69826  -0.59533  -0.53302
 Alpha  occ. eigenvalues --   -0.50543  -0.46112  -0.40700  -0.39813  -0.38367
 Alpha  occ. eigenvalues --   -0.36886  -0.36465
 Alpha virt. eigenvalues --    0.03868   0.05911   0.07783   0.08079   0.10337
 Alpha virt. eigenvalues --    0.10789   0.11636   0.13195   0.13586   0.15540
 Alpha virt. eigenvalues --    0.16059   0.16639   0.18882   0.19253   0.21004

 Mulliken charges:
               1
     1  C   -0.369526
     2  C    0.014705
     3  H    0.037885
     4  H    0.049467
     5  H    0.247937
     6  C   -0.165588
     7  H    0.039521
     8  H    0.016723
     9  C   -0.383150
    10  H    0.160217
    11  H    0.011788
    12  H    0.264658
    13  H    0.013862
    14  H    0.061501
 Sum of Mulliken charges =   0.00000

 Dipole moment (field-independent basis, Debye):
    X=              0.4068    Y=             -0.3606    Z=             -0.9572  Tot=              1.1008
 Quadrupole moment (field-independent basis, Debye-Ang):
   XX=            -31.9191   YY=            -29.2681   ZZ=            -27.4463
   XY=             -0.5345   XZ=             -0.2774   YZ=             -0.9487

 Normal termination of Gaussian 09 at Wed Aug 26 10:41:33 2020.
