 Gaussian 09, Revision D.01,
 Gaussian 09:  ES64L-G09RevD.01 24-Apr-2013

 --------------------
 #p B2PLYPD3/Def2QZVP
 --------------------

 ----------
 butane_opt
 ----------
 Symbolic Z-matrix:
 Charge =  0 Multiplicity = 1

                         Standard orientation:
 ---------------------------------------------------------------------
 Center     Atomic      Atomic             Coordinates (Angstroms)
 Number     Number       Type             X           Y           Z
 ---------------------------------------------------------------------
      1          6           0       -1.942990    0.077945   -0.107799
      2          6           0       -0.553063   -0.495851    0.104361
      3          1           0       -2.673473   -0.683795   -0.073796
      4          1           0       -1.984629    0.853547   -1.030922
      5          1           0       -2.030139    0.701641    0.717650
      6          6           0        0.538759    0.530493    0.151076
      7          1           0       -0.440555   -0.992694   -0.643579
      8          1           0       -0.449627   -1.151532    0.987639
      9          6           0        1.908813   -0.142226   -0.135962
     10          1           0        0.507042    1.423223    1.184052
     11          1           0        0.530314    0.960135   -0.639925
     12          1           0        2.523395   -0.874475    0.873915
     13          1           0        2.633549    0.611199   -0.535316
     14          1           0        1.675008   -0.669418   -0.909777
 ---------------------------------------------------------------------

 SCF Done:  E(RB2PLYPD3) =  -157.957808699     A.U. after   11 cycles
 E2(B2PLYPD3) =    -0.2483278877D+00 E(B2PLYPD3) =    -0.15820613658712D+03

 The electronic state is 1-A.
 Alpha  occ. eigenvalues --  -10.61965 -10.61071 -10.59885 -10.58269  -0.93783
 Alpha  occ. eigenvalues --   -0.84525  -0.72985  -0.68245  -0.55676  -0.50899
 Alpha  occ. eigenvalues --   -0.49014  -0.46897  -0.42356  -0.40473  -0.38664
 Alpha  occ. eigenvalues --   -0.37616  -0.37202
 Alpha virt. eigenvalues --    0.05281   0.06582   0.07783   0.08580   0.10699
 Alpha virt. eigenvalues --    0.11301   0.12470   0.13339   0.14752   0.14966
 Alpha virt. eigenvalues --    0.15975   0.16294   0.18623   0.19942   0.21541

 Mulliken charges:
               1
     1  C   -0.153745
     2  C   -0.098414
     3  H    0.056764
     4  H    0.026112
     5  H    0.055572
     6  C   -0.143464
     7  H    0.098650
     8  H    0.033944
     9  C   -0.173468
    10  H    0.006036
    11  H    0.142092
    12  H    0.016379
    13  H    0.043577
    14  H    0.089965
 Sum of Mulliken charges =   0.00000

 Dipole moment (field-independent basis, Debye):
    X=             -0.1895    Y=             -0.1062    Z=             -0.5824  Tot=              0.6216
 Quadrupole moment (field-independent basis, Debye-Ang):
   XX=            -30.6743   YY=            -29.0843   ZZ=            -28.1640
   XY=              0.9868   XZ=             -0.8259   YZ=             -0.3643

 Normal termination of Gaussian 09 at Wed Aug 26 22:33:00 2020.
