 Gaussian 09, Revision D.01,
 Gaussian 09:  ES64L-G09RevD.01 24-Apr-2013

 --------------------
 #p B2PLYPD3/Def2QZVP
 --------------------

 ----------
 butane_opt
 ----------
 Symbolic Z-matrix:
 Charge =  0 Multiplicity = 1

                         Standard orientation:
 ---------------------------------------------------------------------
 Center     Atomic      Atomic             Coordinates (Angstroms)
 Number     Number       Type             X           Y           Z
 ---------------------------------------------------------------------
      1          6           0       -1.830661    0.114300    0.140195
      2          6           0       -0.613639   -0.487695   -0.069925
      3          1           0       -2.619180   -0.634310   -0.283268
      4          1           0       -1.759413    0.330085   -0.632964
      5          1           0       -2.235038    1.103914    1.152590
      6          6           0        0.519682    0.493974   -0.233533
      7          1           0       -0.699305   -1.215955   -0.987394
      8          1           0       -0.262638   -1.159534    0.816386
      9          6           0        1.881046   -0.128468    0.163930
     10          1           0        0.374853    1.255518    0.736724
     11          1           0        0.404187    1.188752   -1.279752
     12          1           0        1.914759   -0.747420    1.046591
     13          1           0        2.774860    0.629605   -0.002787
     14          1           0        2.368349   -0.703323   -0.570124
 ---------------------------------------------------------------------

 SCF Done:  E(RB2PLYPD3) =  -157.847260631     A.U. after   11 cycles
 E2(B2PLYPD3) =    -0.2539718824D+00 E(B2PLYPD3) =    -0.15810123251353D+03

 The electronic state is 1-A.
 Alpha  occ. eigenvalues --  -10.64246 -10.62122 -10.60739 -10.59575  -0.96848
 Alpha  occ. eigenvalues --   -0.85508  -0.73420  -0.64280  -0.54193  -0.50538
 Alpha  occ. eigenvalues --   -0.49752  -0.45766  -0.42855  -0.39813  -0.37722
 Alpha  occ. eigenvalues --   -0.35410  -0.34502
 Alpha virt. eigenvalues --    0.05001   0.05572   0.06466   0.07387   0.09844
 Alpha virt. eigenvalues --    0.11528   0.12334   0.12942   0.14492   0.15007
 Alpha virt. eigenvalues --    0.15985   0.16171   0.18476   0.19787   0.21261

 Mulliken charges:
               1
     1  C   -0.411003
     2  C   -0.000736
     3  H    0.037490
     4  H    0.292610
     5  H    0.063386
     6  C   -0.056889
     7  H    0.026763
     8  H    0.003573
     9  C   -0.120416
    10  H    0.026691
    11  H    0.027620
    12  H    0.063847
    13  H    0.025391
    14  H    0.021672
 Sum of Mulliken charges =   0.00000

 Dipole moment (field-independent basis, Debye):
    X=              0.1414    Y=             -0.1498    Z=             -0.5582  Tot=              0.5950
 Quadrupole moment (field-independent basis, Debye-Ang):
   XX=            -30.0243   YY=            -29.9804   ZZ=            -28.2659
   XY=             -0.5749   XZ=              0.4623   YZ=              0.4083

 Normal termination of Gaussian 09 at Wed Aug 26 11:34:12 2020.
