 Gaussian 09, Revision D.01,
 Gaussian 09:  ES64L-G09RevD.01 24-Apr-2013

 --------------------
 #p B2PLYPD3/Def2QZVP
 --------------------

 ----------
 butane_opt
 ----------
 Symbolic Z-matrix:
 Charge =  0 Multiplicity = 1

                         Standard orientation:
 ---------------------------------------------------------------------
 Center     Atomic      Atomic             Coordinates (Angstroms)
 Number     Number       Type             X           Y           Z
 ---------------------------------------------------------------------
      1          6           0        1.889430   -0.073331    0.044931
      2          6           0        0.533906    0.473580   -0.019004
      3          1           0        2.797974    0.796747   -0.186201
      4          1           0        1.938541   -0.533484   -0.765797
      5          1           0        2.163383   -1.030473    1.150311
      6          6           0       -0.462878   -0.510293   -0.016017
      7          1           0        0.398220    1.463658   -1.077508
      8          1           0        0.347747    0.966594    0.620031
      9          6           0       -1.879578    0.110416    0.040792
     10          1           0       -0.426631   -1.212140    0.925158
     11          1           0       -0.663527   -1.215416   -0.942600
     12          1           0       -2.712596    1.243809    1.214399
     13          1           0       -2.544777   -0.589822   -0.716870
     14          1           0       -1.783615    0.108298   -0.525135
 ---------------------------------------------------------------------

 SCF Done:  E(RB2PLYPD3) =  -157.086401535     A.U. after   14 cycles
 E2(B2PLYPD3) =    -0.2621925091D+00 E(B2PLYPD3) =    -0.15734859404425D+03

 The electronic state is 1-A.
 Alpha  occ. eigenvalues --  -10.64075 -10.63672 -10.63276 -10.61020  -0.99923
 Alpha  occ. eigenvalues --   -0.91690  -0.77063  -0.68868  -0.54107  -0.50530
 Alpha  occ. eigenvalues --   -0.49377  -0.44329  -0.42365  -0.38944  -0.38566
 Alpha  occ. eigenvalues --   -0.34887  -0.32033
 Alpha virt. eigenvalues --   -0.01765   0.03333   0.04499   0.05421   0.09710
 Alpha virt. eigenvalues --    0.10132   0.11171   0.12539   0.13307   0.15244
 Alpha virt. eigenvalues --    0.15709   0.17109   0.17650   0.18653   0.19838

 Mulliken charges:
               1
     1  C   -0.171754
     2  C   -0.193154
     3  H    0.036560
     4  H    0.107214
     5  H    0.025980
     6  C    0.021027
     7  H   -0.019229
     8  H    0.208081
     9  C   -1.033505
    10  H    0.050020
    11  H    0.023336
    12  H    0.063285
    13  H    0.028360
    14  H    0.853780
 Sum of Mulliken charges =   0.00000

 Dipole moment (field-independent basis, Debye):
    X=              0.1851    Y=             -0.0359    Z=             -0.5708  Tot=              0.6011
 Quadrupole moment (field-independent basis, Debye-Ang):
   XX=            -32.0284   YY=            -30.0205   ZZ=            -28.0788
   XY=             -0.4423   XZ=              0.2055   YZ=              1.2303

 Normal termination of Gaussian 09 at Wed Aug 26 12:14:19 2020.
