 Gaussian 09, Revision D.01,
 Gaussian 09:  ES64L-G09RevD.01 24-Apr-2013

 --------------------
 #p B2PLYPD3/Def2QZVP
 --------------------

 ----------
 butane_opt
 ----------
 Symbolic Z-matrix:
 Charge =  0 Multiplicity = 1

                         Standard orientation:
 ---------------------------------------------------------------------
 Center     Atomic      Atomic             Coordinates (Angstroms)
 Number     Number       Type             X           Y           Z
 ---------------------------------------------------------------------
      1          6           0       -1.834371    0.128852   -0.166500
      2          6           0       -0.584751   -0.483548    0.154562
      3          1           0       -2.878241   -0.904133   -0.065620
      4          1           0       -1.755316    1.211789   -1.288550
      5          1           0       -2.293243    0.592507    0.507963
      6          6           0        0.519143    0.489654    0.283410
      7          1           0       -0.237938   -1.163131   -0.871496
      8          1           0       -0.638299   -1.146819    1.008495
      9          6           0        1.935068   -0.183849   -0.196601
     10          1           0        0.534308    1.351743    1.321533
     11          1           0        0.388970    1.145385   -0.433560
     12          1           0        2.080158   -0.938757    0.761318
     13          1           0        2.815080    0.704983   -0.380735
     14          1           0        1.773990   -0.560219   -1.008564
 ---------------------------------------------------------------------

 SCF Done:  E(RB2PLYPD3) =  -157.850571066     A.U. after   12 cycles
 E2(B2PLYPD3) =    -0.2557809023D+00 E(B2PLYPD3) =    -0.15810635196828D+03

 The electronic state is 1-A.
 Alpha  occ. eigenvalues --  -10.65671 -10.63094 -10.62375 -10.62282  -0.93284
 Alpha  occ. eigenvalues --   -0.83450  -0.73067  -0.66816  -0.55346  -0.50240
 Alpha  occ. eigenvalues --   -0.48520  -0.46740  -0.41762  -0.38787  -0.37666
 Alpha  occ. eigenvalues --   -0.35586  -0.34273
 Alpha virt. eigenvalues --    0.01811   0.05591   0.06246   0.06456   0.09645
 Alpha virt. eigenvalues --    0.10780   0.11574   0.12723   0.12983   0.14119
 Alpha virt. eigenvalues --    0.15234   0.16905   0.17909   0.19166   0.19621

 Mulliken charges:
               1
     1  C   -0.166493
     2  C   -0.004538
     3  H   -0.007871
     4  H    0.007149
     5  H    0.094312
     6  C   -0.078376
     7  H    0.024928
     8  H    0.058884
     9  C   -0.208695
    10  H    0.007427
    11  H    0.070954
    12  H    0.053783
    13  H    0.033380
    14  H    0.115156
 Sum of Mulliken charges =   0.00000

 Dipole moment (field-independent basis, Debye):
    X=              0.1174    Y=              0.1318    Z=              0.3213  Tot=              0.3666
 Quadrupole moment (field-independent basis, Debye-Ang):
   XX=            -32.5906   YY=            -29.6488   ZZ=            -29.3426
   XY=              0.1012   XZ=             -2.6116   YZ=             -0.8413

 Normal termination of Gaussian 09 at Wed Aug 26 22:18:03 2020.
