 Gaussian 09, Revision D.01,
 Gaussian 09:  ES64L-G09RevD.01 24-Apr-2013

 --------------------
 #p B2PLYPD3/Def2QZVP
 --------------------

 ----------
 butane_opt
 ----------
 Symbolic Z-matrix:
 Charge =  0 Multiplicity = 1

                         Standard orientation:
 ---------------------------------------------------------------------
 Center     Atomic      Atomic             Coordinates (Angstroms)
 Number     Number       Type             X           Y           Z
 ---------------------------------------------------------------------
      1          6           0       -1.971527    0.033446   -0.148973
      2          6           0       -0.540290   -0.558371    0.246849
      3          1           0       -2.700363   -0.580413   -0.652082
      4          1           0       -1.723915    0.790952   -1.021950
      5          1           0       -2.661332    0.842717    0.753544
      6          6           0        0.524936    0.601251    0.095738
      7          1           0       -0.246814   -1.152304   -0.503902
      8          1           0       -0.766561   -1.160623    1.330355
      9          6           0        2.031448   -0.130388   -0.157504
     10          1           0        0.591855    1.415949    1.014041
     11          1           0        0.215112    1.292874   -0.820402
     12          1           0        2.240983   -0.699639    0.696843
     13          1           0        2.764762    0.611356    0.126711
     14          1           0        2.018873   -1.036501   -1.139821
 ---------------------------------------------------------------------

 SCF Done:  E(RB2PLYPD3) =  -157.971606207     A.U. after   11 cycles
 E2(B2PLYPD3) =    -0.2540007185D+00 E(B2PLYPD3) =    -0.15822560692521D+03

 The electronic state is 1-A.
 Alpha  occ. eigenvalues --  -10.65131 -10.63723 -10.63289 -10.63088  -0.88652
 Alpha  occ. eigenvalues --   -0.80439  -0.71628  -0.65743  -0.52007  -0.47895
 Alpha  occ. eigenvalues --   -0.47153  -0.44635  -0.41278  -0.38393  -0.37908
 Alpha  occ. eigenvalues --   -0.37120  -0.36272
 Alpha virt. eigenvalues --    0.05000   0.05655   0.07329   0.07782   0.09899
 Alpha virt. eigenvalues --    0.11316   0.11596   0.13046   0.14115   0.14763
 Alpha virt. eigenvalues --    0.15200   0.15873   0.18609   0.19214   0.20050

 Mulliken charges:
               1
     1  C   -0.164911
     2  C   -0.070115
     3  H    0.061831
     4  H    0.024419
     5  H    0.018334
     6  C   -0.044124
     7  H    0.085400
     8  H    0.039063
     9  C   -0.162895
    10  H    0.020273
    11  H    0.038335
    12  H    0.060788
    13  H    0.053265
    14  H    0.040338
 Sum of Mulliken charges =   0.00000

 Dipole moment (field-independent basis, Debye):
    X=              0.2573    Y=             -0.2605    Z=             -0.0359  Tot=              0.3679
 Quadrupole moment (field-independent basis, Debye-Ang):
   XX=            -30.8136   YY=            -29.3032   ZZ=            -29.2077
   XY=              0.4325   XZ=              1.3966   YZ=              0.7660

 Normal termination of Gaussian 09 at Wed Aug 26 19:23:40 2020.
