 Gaussian 09, Revision D.01,
 Gaussian 09:  ES64L-G09RevD.01 24-Apr-2013

 --------------------
 #p B2PLYPD3/Def2QZVP
 --------------------

 ----------
 butane_opt
 ----------
 Symbolic Z-matrix:
 Charge =  0 Multiplicity = 1

                         Standard orientation:
 ---------------------------------------------------------------------
 Center     Atomic      Atomic             Coordinates (Angstroms)
 Number     Number       Type             X           Y           Z
 ---------------------------------------------------------------------
      1          6           0        1.940025   -0.152846   -0.172536
      2          6           0        0.599884    0.496821    0.265379
      3          1           0        2.712450    0.611015   -0.889355
      4          1           0        1.684601   -0.820399   -1.044192
      5          1           0        2.501391   -0.955878    0.826882
      6          6           0       -0.619763   -0.457077    0.117528
      7          1           0        0.590567    1.048632   -0.487973
      8          1           0        0.602588    1.528335    1.452015
      9          6           0       -1.959159    0.114713   -0.147573
     10          1           0       -0.609846   -1.256192    1.269321
     11          1           0       -0.156662   -0.778132   -0.535047
     12          1           0       -2.350001    0.541140    0.553240
     13          1           0       -2.772201   -0.921444   -0.331376
     14          1           0       -1.968807    0.993260   -1.190300
 ---------------------------------------------------------------------

 SCF Done:  E(RB2PLYPD3) =  -157.771632501     A.U. after   11 cycles
 E2(B2PLYPD3) =    -0.2565668335D+00 E(B2PLYPD3) =    -0.15802819933422D+03

 The electronic state is 1-A.
 Alpha  occ. eigenvalues --  -10.66835 -10.64250 -10.63898 -10.62526  -0.94462
 Alpha  occ. eigenvalues --   -0.84016  -0.74010  -0.66653  -0.52913  -0.51783
 Alpha  occ. eigenvalues --   -0.47462  -0.45713  -0.41789  -0.39764  -0.38442
 Alpha  occ. eigenvalues --   -0.35376  -0.33972
 Alpha virt. eigenvalues --    0.03456   0.04716   0.05526   0.06507   0.09721
 Alpha virt. eigenvalues --    0.10262   0.10917   0.11897   0.13484   0.14200
 Alpha virt. eigenvalues --    0.15382   0.16464   0.17482   0.19057   0.19658

 Mulliken charges:
               1
     1  C   -0.172598
     2  C   -0.128685
     3  H    0.048437
     4  H    0.051719
     5  H    0.037418
     6  C   -0.156097
     7  H    0.139823
     8  H   -0.023858
     9  C   -0.171535
    10  H    0.013001
    11  H    0.197356
    12  H    0.110990
    13  H    0.034645
    14  H    0.019386
 Sum of Mulliken charges =   0.00000

 Dipole moment (field-independent basis, Debye):
    X=             -0.2224    Y=             -0.0762    Z=             -0.8242  Tot=              0.8570
 Quadrupole moment (field-independent basis, Debye-Ang):
   XX=            -31.1176   YY=            -30.8104   ZZ=            -29.4054
   XY=             -0.3839   XZ=             -2.2104   YZ=             -1.0060

 Normal termination of Gaussian 09 at Wed Aug 26 15:09:35 2020.
