 Gaussian 09, Revision D.01,
 Gaussian 09:  ES64L-G09RevD.01 24-Apr-2013

 --------------------
 #p B2PLYPD3/Def2QZVP
 --------------------

 ----------
 butane_opt
 ----------
 Symbolic Z-matrix:
 Charge =  0 Multiplicity = 1

                         Standard orientation:
 ---------------------------------------------------------------------
 Center     Atomic      Atomic             Coordinates (Angstroms)
 Number     Number       Type             X           Y           Z
 ---------------------------------------------------------------------
      1          6           0        1.893651   -0.144377    0.207207
      2          6           0        0.499218    0.568478   -0.304183
      3          1           0        2.574101    0.477351    0.707158
      4          1           0        2.499730   -0.968126   -0.697059
      5          1           0        1.723400   -0.587446    0.962338
      6          6           0       -0.488298   -0.476488   -0.201474
      7          1           0        0.646473    1.417081   -1.223064
      8          1           0        0.121125    1.125363    0.628211
      9          6           0       -1.920634    0.070071    0.119204
     10          1           0       -0.368337   -1.223989    0.852557
     11          1           0       -0.575300   -1.052144   -1.094650
     12          1           0       -1.894414    1.097811    1.431942
     13          1           0       -2.779073   -0.860410    0.210510
     14          1           0       -1.851321    0.468407   -0.702476
 ---------------------------------------------------------------------

 SCF Done:  E(RB2PLYPD3) =  -157.822860327     A.U. after   11 cycles
 E2(B2PLYPD3) =    -0.2567755575D+00 E(B2PLYPD3) =    -0.15807963588428D+03

 The electronic state is 1-A.
 Alpha  occ. eigenvalues --  -10.64609 -10.64019 -10.63278 -10.60611  -0.93264
 Alpha  occ. eigenvalues --   -0.83774  -0.74337  -0.64488  -0.54439  -0.50807
 Alpha  occ. eigenvalues --   -0.47903  -0.44074  -0.41704  -0.41347  -0.37008
 Alpha  occ. eigenvalues --   -0.36004  -0.33202
 Alpha virt. eigenvalues --    0.02167   0.05810   0.06408   0.07071   0.09849
 Alpha virt. eigenvalues --    0.10211   0.11751   0.12537   0.13214   0.14549
 Alpha virt. eigenvalues --    0.16067   0.16222   0.18057   0.19437   0.20126

 Mulliken charges:
               1
     1  C   -0.197335
     2  C   -0.087700
     3  H    0.038348
     4  H    0.021191
     5  H    0.124477
     6  C   -0.040099
     7  H    0.050802
     8  H    0.049659
     9  C   -0.226003
    10  H    0.015183
    11  H    0.057133
    12  H   -0.007718
    13  H    0.057291
    14  H    0.144771
 Sum of Mulliken charges =   0.00000

 Dipole moment (field-independent basis, Debye):
    X=              0.0708    Y=             -0.2238    Z=             -0.2495  Tot=              0.3426
 Quadrupole moment (field-independent basis, Debye-Ang):
   XX=            -32.1252   YY=            -30.1607   ZZ=            -28.2161
   XY=              1.6172   XZ=              1.4522   YZ=             -0.1170

 Normal termination of Gaussian 09 at Wed Aug 26 11:37:33 2020.
