 Gaussian 09, Revision D.01,
 Gaussian 09:  ES64L-G09RevD.01 24-Apr-2013

 --------------------
 #p B2PLYPD3/Def2QZVP
 --------------------

 ----------
 butane_opt
 ----------
 Symbolic Z-matrix:
 Charge =  0 Multiplicity = 1

                         Standard orientation:
 ---------------------------------------------------------------------
 Center     Atomic      Atomic             Coordinates (Angstroms)
 Number     Number       Type             X           Y           Z
 ---------------------------------------------------------------------
      1          6           0        2.022541   -0.213583   -0.069573
      2          6           0        0.579644    0.594060    0.002168
      3          1           0        2.855759    0.482194    0.121835
      4          1           0        2.077564   -1.406251   -1.149968
      5          1           0        2.383502   -0.401550    0.520839
      6          6           0       -0.658223   -0.403244    0.297341
      7          1           0        0.557052    0.996727   -0.836730
      8          1           0        0.598798    1.463507    0.801454
      9          6           0       -1.966987    0.076573   -0.215611
     10          1           0       -0.812080   -1.052081    1.573963
     11          1           0       -0.342040   -0.742457   -0.381579
     12          1           0       -2.391151    0.810854    0.509203
     13          1           0       -2.905968   -0.826588   -0.266972
     14          1           0       -1.883285    0.352810   -0.977990
 ---------------------------------------------------------------------

 SCF Done:  E(RB2PLYPD3) =  -157.502926546     A.U. after   11 cycles
 E2(B2PLYPD3) =    -0.2533183643D+00 E(B2PLYPD3) =    -0.15775624491057D+03

 The electronic state is 1-A.
 Alpha  occ. eigenvalues --  -10.62980 -10.61855 -10.60906 -10.59132  -0.94053
 Alpha  occ. eigenvalues --   -0.88875  -0.79576  -0.70495  -0.56326  -0.50247
 Alpha  occ. eigenvalues --   -0.48833  -0.45021  -0.42548  -0.40472  -0.38751
 Alpha  occ. eigenvalues --   -0.36209  -0.33481
 Alpha virt. eigenvalues --    0.02857   0.04763   0.07228   0.07376   0.09858
 Alpha virt. eigenvalues --    0.11444   0.11778   0.12768   0.14484   0.14838
 Alpha virt. eigenvalues --    0.15278   0.16522   0.18817   0.19134   0.20751

 Mulliken charges:
               1
     1  C   -0.500811
     2  C   -0.081614
     3  H    0.037737
     4  H    0.023912
     5  H    0.383798
     6  C   -0.315307
     7  H    0.117141
     8  H    0.011875
     9  C   -0.274975
    10  H    0.037557
    11  H    0.305585
    12  H    0.050545
    13  H    0.018203
    14  H    0.186353
 Sum of Mulliken charges =   0.00000

 Dipole moment (field-independent basis, Debye):
    X=              0.2597    Y=              0.4700    Z=              0.1229  Tot=              0.5509
 Quadrupole moment (field-independent basis, Debye-Ang):
   XX=            -29.4712   YY=            -29.7662   ZZ=            -28.1610
   XY=              0.2561   XZ=              1.7542   YZ=              0.3917

 Normal termination of Gaussian 09 at Wed Aug 26 20:22:35 2020.
