 Gaussian 09, Revision D.01,
 Gaussian 09:  ES64L-G09RevD.01 24-Apr-2013

 --------------------
 #p B2PLYPD3/Def2QZVP
 --------------------

 ----------
 butane_opt
 ----------
 Symbolic Z-matrix:
 Charge =  0 Multiplicity = 1

                         Standard orientation:
 ---------------------------------------------------------------------
 Center     Atomic      Atomic             Coordinates (Angstroms)
 Number     Number       Type             X           Y           Z
 ---------------------------------------------------------------------
      1          6           0       -1.973961   -0.156490    0.097217
      2          6           0       -0.515247    0.602609   -0.163603
      3          1           0       -2.671746    0.500441    0.104578
      4          1           0       -1.936014   -1.225305    1.153529
      5          1           0       -2.064478   -0.363234   -0.502860
      6          6           0        0.509065   -0.511920   -0.240405
      7          1           0       -0.424164    1.209276    0.823726
      8          1           0       -0.139273    1.272837   -1.011430
      9          6           0        1.889842    0.078114    0.175968
     10          1           0        0.646645   -1.251111   -1.174705
     11          1           0        0.423537   -0.733465    0.450227
     12          1           0        2.370547    0.631150   -0.481975
     13          1           0        2.546427   -0.765785    0.304147
     14          1           0        1.790326    0.651318    1.119709
 ---------------------------------------------------------------------

 SCF Done:  E(RB2PLYPD3) =  -157.450519747     A.U. after   11 cycles
 E2(B2PLYPD3) =    -0.2505071409D+00 E(B2PLYPD3) =    -0.15770102688774D+03

 The electronic state is 1-A.
 Alpha  occ. eigenvalues --  -10.62387 -10.59106 -10.58146 -10.57139  -0.94396
 Alpha  occ. eigenvalues --   -0.88313  -0.76215  -0.68742  -0.56115  -0.51752
 Alpha  occ. eigenvalues --   -0.48547  -0.46780  -0.42797  -0.41104  -0.40343
 Alpha  occ. eigenvalues --   -0.37000  -0.34126
 Alpha virt. eigenvalues --    0.04520   0.06229   0.07716   0.08358   0.10686
 Alpha virt. eigenvalues --    0.11561   0.12558   0.13842   0.14954   0.15217
 Alpha virt. eigenvalues --    0.16055   0.16516   0.18218   0.19901   0.22094

 Mulliken charges:
               1
     1  C   -0.667476
     2  C   -0.039253
     3  H    0.068660
     4  H    0.043064
     5  H    0.531877
     6  C   -0.624256
     7  H    0.030558
     8  H    0.052855
     9  C   -0.114661
    10  H    0.065589
    11  H    0.539296
    12  H    0.043202
    13  H    0.032609
    14  H    0.037935
 Sum of Mulliken charges =   0.00000

 Dipole moment (field-independent basis, Debye):
    X=             -0.0266    Y=             -0.0755    Z=             -0.2499  Tot=              0.2624
 Quadrupole moment (field-independent basis, Debye-Ang):
   XX=            -28.9277   YY=            -28.6285   ZZ=            -27.6227
   XY=             -0.3546   XZ=             -0.0735   YZ=              0.0229

 Normal termination of Gaussian 09 at Wed Aug 26 14:21:13 2020.
