 Gaussian 09, Revision D.01,
 Gaussian 09:  ES64L-G09RevD.01 24-Apr-2013

 --------------------
 #p B2PLYPD3/Def2QZVP
 --------------------

 ----------
 butane_opt
 ----------
 Symbolic Z-matrix:
 Charge =  0 Multiplicity = 1

                         Standard orientation:
 ---------------------------------------------------------------------
 Center     Atomic      Atomic             Coordinates (Angstroms)
 Number     Number       Type             X           Y           Z
 ---------------------------------------------------------------------
      1          6           0       -2.015849   -0.192519   -0.106917
      2          6           0       -0.598119    0.536502    0.086440
      3          1           0       -2.782414    0.582710   -0.438956
      4          1           0       -2.204759   -0.338040    0.558294
      5          1           0       -1.945251   -1.007190   -0.964841
      6          6           0        0.642305   -0.456372    0.319544
      7          1           0       -0.386392    1.448637    1.002889
      8          1           0       -0.517286    0.983446   -0.604495
      9          6           0        1.911981    0.075121   -0.271150
     10          1           0        0.313248   -0.845014   -0.231363
     11          1           0        0.677741   -1.302829    1.570772
     12          1           0        1.762302    0.302061   -1.032366
     13          1           0        2.716772   -0.712230   -0.769141
     14          1           0        2.724130    1.112063    0.741701
 ---------------------------------------------------------------------

 SCF Done:  E(RB2PLYPD3) =  -157.373650136     A.U. after   12 cycles
 E2(B2PLYPD3) =    -0.2538779812D+00 E(B2PLYPD3) =    -0.15762752811702D+03

 The electronic state is 1-A.
 Alpha  occ. eigenvalues --  -10.63620 -10.61675 -10.61406 -10.59322  -0.95496
 Alpha  occ. eigenvalues --   -0.87882  -0.78863  -0.72660  -0.55795  -0.53306
 Alpha  occ. eigenvalues --   -0.48158  -0.46503  -0.44462  -0.40300  -0.37460
 Alpha  occ. eigenvalues --   -0.37322  -0.33055
 Alpha virt. eigenvalues --    0.02315   0.05797   0.06549   0.07575   0.08278
 Alpha virt. eigenvalues --    0.10635   0.11802   0.13127   0.14532   0.15028
 Alpha virt. eigenvalues --    0.15824   0.16693   0.17949   0.18548   0.19817

 Mulliken charges:
               1
     1  C   -0.527054
     2  C   -0.218264
     3  H    0.053460
     4  H    0.405081
     5  H    0.063121
     6  C   -0.465957
     7  H    0.015324
     8  H    0.216295
     9  C   -0.317345
    10  H    0.464521
    11  H    0.022237
    12  H    0.248686
    13  H    0.035498
    14  H    0.004397
 Sum of Mulliken charges =   0.00000

 Dipole moment (field-independent basis, Debye):
    X=             -0.8107    Y=             -0.3506    Z=             -1.1930  Tot=              1.4844
 Quadrupole moment (field-independent basis, Debye-Ang):
   XX=            -30.5207   YY=            -30.0667   ZZ=            -27.7941
   XY=             -0.4018   XZ=             -0.8214   YZ=              0.2702

 Normal termination of Gaussian 09 at Wed Aug 26 12:27:16 2020.
