 Gaussian 09, Revision D.01,
 Gaussian 09:  ES64L-G09RevD.01 24-Apr-2013

 --------------------
 #p B2PLYPD3/Def2QZVP
 --------------------

 ----------
 butane_opt
 ----------
 Symbolic Z-matrix:
 Charge =  0 Multiplicity = 1

                         Standard orientation:
 ---------------------------------------------------------------------
 Center     Atomic      Atomic             Coordinates (Angstroms)
 Number     Number       Type             X           Y           Z
 ---------------------------------------------------------------------
      1          6           0        1.933200    0.051893   -0.190393
      2          6           0        0.622464   -0.416739    0.185333
      3          1           0        2.728630   -0.890118   -0.125976
      4          1           0        2.033411    0.695778    0.609190
      5          1           0        1.775895    0.761740   -1.232403
      6          6           0       -0.474433    0.579145    0.133945
      7          1           0        0.858601   -1.038945    1.120293
      8          1           0        0.302823   -0.982505   -0.504973
      9          6           0       -2.034077   -0.241077   -0.115037
     10          1           0       -0.160808    0.723926   -0.417753
     11          1           0       -0.531533    1.708970    1.044478
     12          1           0       -2.024918   -0.591437   -0.661138
     13          1           0       -2.856737    0.461982   -0.741718
     14          1           0       -2.408285   -0.688717    0.826907
 ---------------------------------------------------------------------

 SCF Done:  E(RB2PLYPD3) =  -157.282029844     A.U. after   12 cycles
 E2(B2PLYPD3) =    -0.2518389213D+00 E(B2PLYPD3) =    -0.15753386876534D+03

 The electronic state is 1-A.
 Alpha  occ. eigenvalues --  -10.62291 -10.61565 -10.60184 -10.59428  -0.98349
 Alpha  occ. eigenvalues --   -0.86979  -0.81148  -0.67932  -0.56217  -0.52928
 Alpha  occ. eigenvalues --   -0.48736  -0.46396  -0.43445  -0.41078  -0.38412
 Alpha  occ. eigenvalues --   -0.36938  -0.35545
 Alpha virt. eigenvalues --    0.04886   0.06176   0.07097   0.08288   0.10903
 Alpha virt. eigenvalues --    0.11445   0.12266   0.12461   0.13831   0.15064
 Alpha virt. eigenvalues --    0.16146   0.16357   0.18414   0.18684   0.21093

 Mulliken charges:
               1
     1  C   -0.181780
     2  C   -0.020813
     3  H    0.057834
     4  H    0.080213
     5  H    0.022485
     6  C   -0.739302
     7  H    0.013413
     8  H    0.079147
     9  C   -0.666274
    10  H    0.667337
    11  H    0.019238
    12  H    0.524391
    13  H    0.040318
    14  H    0.103793
 Sum of Mulliken charges =   0.00000

 Dipole moment (field-independent basis, Debye):
    X=              0.1035    Y=             -0.7211    Z=             -0.2985  Tot=              0.7873
 Quadrupole moment (field-independent basis, Debye-Ang):
   XX=            -29.9085   YY=            -29.1511   ZZ=            -28.0095
   XY=              0.1089   XZ=              1.1637   YZ=             -0.0147

 Normal termination of Gaussian 09 at Wed Aug 26 16:46:56 2020.
