 Gaussian 09, Revision D.01,
 Gaussian 09:  ES64L-G09RevD.01 24-Apr-2013

 --------------------
 #p B2PLYPD3/Def2QZVP
 --------------------

 ----------
 butane_opt
 ----------
 Symbolic Z-matrix:
 Charge =  0 Multiplicity = 1

                         Standard orientation:
 ---------------------------------------------------------------------
 Center     Atomic      Atomic             Coordinates (Angstroms)
 Number     Number       Type             X           Y           Z
 ---------------------------------------------------------------------
      1          6           0        1.990790    0.192282    0.098748
      2          6           0        0.559327   -0.629704   -0.093729
      3          1           0        2.736214   -0.608462   -0.262539
      4          1           0        2.361392    1.369472    1.423951
      5          1           0        2.146923    0.257816   -0.438724
      6          6           0       -0.599845    0.496051   -0.258255
      7          1           0        0.459823   -1.052596    0.679174
      8          1           0        0.632104   -1.457631   -0.965784
      9          6           0       -1.998369   -0.079580    0.113016
     10          1           0       -0.675146    1.272534   -1.375417
     11          1           0       -0.473657    1.257049    0.526349
     12          1           0       -2.230168   -0.425050   -0.484448
     13          1           0       -2.728543    0.645309    0.290910
     14          1           0       -1.940359   -1.132732    1.447850
 ---------------------------------------------------------------------

 SCF Done:  E(RB2PLYPD3) =  -156.983471073     A.U. after   13 cycles
 E2(B2PLYPD3) =    -0.2588680892D+00 E(B2PLYPD3) =    -0.15724233916219D+03

 The electronic state is 1-A.
 Alpha  occ. eigenvalues --  -10.64779 -10.63760 -10.62667 -10.61039  -0.94050
 Alpha  occ. eigenvalues --   -0.89466  -0.80107  -0.69245  -0.53934  -0.49361
 Alpha  occ. eigenvalues --   -0.48286  -0.44935  -0.41291  -0.39729  -0.36513
 Alpha  occ. eigenvalues --   -0.36352  -0.34182
 Alpha virt. eigenvalues --   -0.01183   0.02409   0.05400   0.06611   0.09038
 Alpha virt. eigenvalues --    0.10315   0.10951   0.13225   0.13781   0.15227
 Alpha virt. eigenvalues --    0.15509   0.15956   0.18214   0.18875   0.20614

 Mulliken charges:
               1
     1  C   -0.896455
     2  C   -0.080209
     3  H    0.031204
     4  H    0.061019
     5  H    0.729171
     6  C   -0.043217
     7  H    0.160637
     8  H    0.023313
     9  C   -0.446529
    10  H    0.011555
    11  H    0.055760
    12  H    0.357843
    13  H    0.069578
    14  H   -0.033670
 Sum of Mulliken charges =   0.00000

 Dipole moment (field-independent basis, Debye):
    X=             -0.1101    Y=              0.2200    Z=             -0.8182  Tot=              0.8544
 Quadrupole moment (field-independent basis, Debye-Ang):
   XX=            -30.1381   YY=            -28.8883   ZZ=            -28.7191
   XY=             -1.2915   XZ=              0.2338   YZ=              1.5564

 Normal termination of Gaussian 09 at Wed Aug 26 21:55:27 2020.
