 Gaussian 09, Revision D.01,
 Gaussian 09:  ES64L-G09RevD.01 24-Apr-2013

 --------------------
 #p B2PLYPD3/Def2QZVP
 --------------------

 ----------
 butane_opt
 ----------
 Symbolic Z-matrix:
 Charge =  0 Multiplicity = 1

                         Standard orientation:
 ---------------------------------------------------------------------
 Center     Atomic      Atomic             Coordinates (Angstroms)
 Number     Number       Type             X           Y           Z
 ---------------------------------------------------------------------
      1          6           0       -1.882154   -0.028148   -0.184155
      2          6           0       -0.626236   -0.371598    0.287125
      3          1           0       -2.611862   -0.915783   -0.508479
      4          1           0       -1.311741    0.494937   -1.122336
      5          1           0       -2.465624    1.015027    0.661469
      6          6           0        0.460247    0.503092    0.002257
      7          1           0       -0.657867   -0.837596   -0.330863
      8          1           0       -0.365139   -0.952135    1.560496
      9          6           0        1.988960   -0.153894   -0.086722
     10          1           0        0.284390    1.551297    0.917256
     11          1           0        0.197207    1.035553   -1.011346
     12          1           0        2.100668   -0.479298    0.753008
     13          1           0        2.870953    0.654658   -0.087081
     14          1           0        2.314111   -1.263377   -0.943158
 ---------------------------------------------------------------------

 SCF Done:  E(RB2PLYPD3) =  -157.685607097     A.U. after   11 cycles
 E2(B2PLYPD3) =    -0.2587456782D+00 E(B2PLYPD3) =    -0.15794435277473D+03

 The electronic state is 1-A.
 Alpha  occ. eigenvalues --  -10.66309 -10.66072 -10.64037 -10.59892  -1.00253
 Alpha  occ. eigenvalues --   -0.83824  -0.73211  -0.65305  -0.55984  -0.51788
 Alpha  occ. eigenvalues --   -0.48256  -0.44335  -0.42273  -0.40037  -0.37075
 Alpha  occ. eigenvalues --   -0.35978  -0.33599
 Alpha virt. eigenvalues --    0.03886   0.04622   0.05541   0.06770   0.09464
 Alpha virt. eigenvalues --    0.10558   0.11711   0.12472   0.13331   0.13757
 Alpha virt. eigenvalues --    0.14934   0.15809   0.17783   0.18572   0.20427

 Mulliken charges:
               1
     1  C   -0.162604
     2  C   -0.387809
     3  H    0.076784
     4  H    0.060071
     5  H   -0.010733
     6  C   -0.016481
     7  H    0.419550
     8  H    0.003745
     9  C   -0.216078
    10  H    0.003307
    11  H    0.019653
    12  H    0.133504
    13  H    0.050143
    14  H    0.026949
 Sum of Mulliken charges =   0.00000

 Dipole moment (field-independent basis, Debye):
    X=              0.4009    Y=             -0.6805    Z=             -0.4175  Tot=              0.8934
 Quadrupole moment (field-independent basis, Debye-Ang):
   XX=            -30.9235   YY=            -30.4714   ZZ=            -29.8473
   XY=              1.4981   XZ=              1.3660   YZ=              0.7112

 Normal termination of Gaussian 09 at Wed Aug 26 15:27:17 2020.
