 Gaussian 09, Revision D.01,
 Gaussian 09:  ES64L-G09RevD.01 24-Apr-2013

 --------------------
 #p B2PLYPD3/Def2QZVP
 --------------------

 ----------
 butane_opt
 ----------
 Symbolic Z-matrix:
 Charge =  0 Multiplicity = 1

                         Standard orientation:
 ---------------------------------------------------------------------
 Center     Atomic      Atomic             Coordinates (Angstroms)
 Number     Number       Type             X           Y           Z
 ---------------------------------------------------------------------
      1          6           0       -1.944623   -0.179138   -0.154371
      2          6           0       -0.550749    0.532817    0.156936
      3          1           0       -2.841549    0.710224   -0.395542
      4          1           0       -2.288124   -1.034987    0.867185
      5          1           0       -1.952825   -0.579660   -0.835819
      6          6           0        0.609597   -0.471510    0.106830
      7          1           0       -0.453053    1.425003    1.199073
      8          1           0       -0.354834    1.043119   -0.558894
      9          6           0        1.913038    0.107871   -0.108267
     10          1           0        0.364285   -1.063231   -0.688346
     11          1           0        0.580280   -1.131857    0.986512
     12          1           0        1.926452    0.848974   -1.149657
     13          1           0        2.790772   -0.791988   -0.191443
     14          1           0        2.065012    0.634163    0.760161
 ---------------------------------------------------------------------

 SCF Done:  E(RB2PLYPD3) =  -157.861320314     A.U. after   11 cycles
 E2(B2PLYPD3) =    -0.2500485093D+00 E(B2PLYPD3) =    -0.15811136882354D+03

 The electronic state is 1-A.
 Alpha  occ. eigenvalues --  -10.62502 -10.62426 -10.61943 -10.59569  -0.93117
 Alpha  occ. eigenvalues --   -0.84679  -0.74606  -0.67651  -0.54848  -0.50867
 Alpha  occ. eigenvalues --   -0.47567  -0.46184  -0.42493  -0.40388  -0.38704
 Alpha  occ. eigenvalues --   -0.37397  -0.36265
 Alpha virt. eigenvalues --    0.04587   0.05978   0.07541   0.08122   0.10380
 Alpha virt. eigenvalues --    0.11083   0.12305   0.12524   0.14495   0.14937
 Alpha virt. eigenvalues --    0.15306   0.16213   0.19049   0.19409   0.20247

 Mulliken charges:
               1
     1  C   -0.377240
     2  C   -0.101587
     3  H    0.035143
     4  H    0.031615
     5  H    0.257567
     6  C   -0.012808
     7  H   -0.001853
     8  H    0.128285
     9  C   -0.169166
    10  H    0.043714
    11  H    0.031569
    12  H    0.024889
    13  H    0.035830
    14  H    0.074043
 Sum of Mulliken charges =   0.00000

 Dipole moment (field-independent basis, Debye):
    X=              0.1860    Y=             -0.2120    Z=             -0.5024  Tot=              0.5762
 Quadrupole moment (field-independent basis, Debye-Ang):
   XX=            -31.5138   YY=            -29.2639   ZZ=            -28.4215
   XY=             -0.2794   XZ=              1.3948   YZ=             -0.3227

 Normal termination of Gaussian 09 at Wed Aug 26 22:23:04 2020.
