 Gaussian 09, Revision D.01,
 Gaussian 09:  ES64L-G09RevD.01 24-Apr-2013

 --------------------
 #p B2PLYPD3/Def2QZVP
 --------------------

 ----------
 butane_opt
 ----------
 Symbolic Z-matrix:
 Charge =  0 Multiplicity = 1

                         Standard orientation:
 ---------------------------------------------------------------------
 Center     Atomic      Atomic             Coordinates (Angstroms)
 Number     Number       Type             X           Y           Z
 ---------------------------------------------------------------------
      1          6           0        1.925345    0.089163   -0.033989
      2          6           0        0.547793   -0.573904    0.107225
      3          1           0        2.613373   -0.562377   -0.323886
      4          1           0        2.315541    0.419525    0.589524
      5          1           0        1.893906    1.015051   -1.048138
      6          6           0       -0.530550    0.519966    0.209726
      7          1           0        0.396173   -1.010104    0.720873
      8          1           0        0.052284   -1.112812   -0.845927
      9          6           0       -1.921981   -0.068175   -0.157458
     10          1           0       -0.382694    1.008748   -0.524910
     11          1           0       -0.512235    1.288629    1.322133
     12          1           0       -1.343468   -0.378387   -0.778937
     13          1           0       -2.521937    0.510599   -0.834819
     14          1           0       -2.634588   -0.981174    0.971060
 ---------------------------------------------------------------------

 SCF Done:  E(RB2PLYPD3) =  -157.618264435     A.U. after   11 cycles
 E2(B2PLYPD3) =    -0.2530922215D+00 E(B2PLYPD3) =    -0.15787135665686D+03

 The electronic state is 1-A.
 Alpha  occ. eigenvalues --  -10.61977 -10.61853 -10.59429 -10.59391  -0.96381
 Alpha  occ. eigenvalues --   -0.87567  -0.78506  -0.69706  -0.56816  -0.52916
 Alpha  occ. eigenvalues --   -0.49918  -0.47997  -0.42656  -0.40118  -0.38618
 Alpha  occ. eigenvalues --   -0.36885  -0.34213
 Alpha virt. eigenvalues --    0.03077   0.05301   0.07318   0.08382   0.10148
 Alpha virt. eigenvalues --    0.10992   0.12044   0.13527   0.14054   0.15296
 Alpha virt. eigenvalues --    0.16521   0.17380   0.18236   0.19578   0.20668

 Mulliken charges:
               1
     1  C   -0.239658
     2  C   -0.311085
     3  H    0.045516
     4  H    0.180887
     5  H   -0.002165
     6  C   -0.147072
     7  H    0.310416
     8  H    0.032174
     9  C   -0.254972
    10  H    0.162867
    11  H   -0.000148
    12  H    0.137375
    13  H    0.059645
    14  H    0.026218
 Sum of Mulliken charges =   0.00000

 Dipole moment (field-independent basis, Debye):
    X=              0.7684    Y=             -0.1431    Z=             -0.2902  Tot=              0.8337
 Quadrupole moment (field-independent basis, Debye-Ang):
   XX=            -29.8505   YY=            -30.1108   ZZ=            -28.0203
   XY=             -0.7959   XZ=              1.5431   YZ=             -1.2583

 Normal termination of Gaussian 09 at Wed Aug 26 20:57:21 2020.
