 Gaussian 09, Revision D.01,
 Gaussian 09:  ES64L-G09RevD.01 24-Apr-2013

 --------------------
 #p B2PLYPD3/Def2QZVP
 --------------------

 ----------
 butane_opt
 ----------
 Symbolic Z-matrix:
 Charge =  0 Multiplicity = 1

                         Standard orientation:
 ---------------------------------------------------------------------
 Center     Atomic      Atomic             Coordinates (Angstroms)
 Number     Number       Type             X           Y           Z
 ---------------------------------------------------------------------
      1          6           0       -1.873375   -0.033745    0.176886
      2          6           0       -0.619613    0.330341   -0.243433
      3          1           0       -2.871076    0.840532    0.028316
      4          1           0       -1.818925   -0.639335    1.149847
      5          1           0       -2.002609   -0.790619   -0.708753
      6          6           0        0.550216   -0.564761   -0.027371
      7          1           0       -0.201012    1.058514    0.399321
      8          1           0       -0.610482    1.195700   -1.454956
      9          6           0        1.914498    0.167157    0.078657
     10          1           0        0.667833   -1.223514   -0.698845
     11          1           0        0.175972   -1.136694    1.040264
     12          1           0        2.046230    0.222086   -0.507844
     13          1           0        2.678798   -0.533942   -0.415821
     14          1           0        2.104910    1.613317    1.260037
 ---------------------------------------------------------------------

 SCF Done:  E(RB2PLYPD3) =  -157.296396094     A.U. after   13 cycles
 E2(B2PLYPD3) =    -0.2614682789D+00 E(B2PLYPD3) =    -0.15755786437299D+03

 The electronic state is 1-A.
 Alpha  occ. eigenvalues --  -10.63556 -10.63348 -10.62978 -10.62457  -0.97928
 Alpha  occ. eigenvalues --   -0.91532  -0.77954  -0.65834  -0.55037  -0.50977
 Alpha  occ. eigenvalues --   -0.47880  -0.47468  -0.41213  -0.38456  -0.36433
 Alpha  occ. eigenvalues --   -0.34548  -0.33048
 Alpha virt. eigenvalues --   -0.02625   0.04519   0.05450   0.05847   0.09578
 Alpha virt. eigenvalues --    0.10761   0.11556   0.12171   0.13890   0.15066
 Alpha virt. eigenvalues --    0.15634   0.15968   0.17405   0.19171   0.20327

 Mulliken charges:
               1
     1  C   -0.171267
     2  C   -0.001374
     3  H    0.054151
     4  H    0.059443
     5  H    0.035065
     6  C   -0.007243
     7  H    0.030873
     8  H   -0.034195
     9  C   -0.833063
    10  H    0.066308
    11  H    0.014591
    12  H    0.701499
    13  H    0.038608
    14  H    0.046604
 Sum of Mulliken charges =   0.00000

 Dipole moment (field-independent basis, Debye):
    X=              0.1723    Y=             -0.3089    Z=             -0.4314  Tot=              0.5579
 Quadrupole moment (field-independent basis, Debye-Ang):
   XX=            -30.8942   YY=            -29.8993   ZZ=            -29.1737
   XY=             -0.3491   XZ=             -2.6391   YZ=              1.5542

 Normal termination of Gaussian 09 at Wed Aug 26 13:12:27 2020.
