 Gaussian 09, Revision D.01,
 Gaussian 09:  ES64L-G09RevD.01 24-Apr-2013

 --------------------
 #p B2PLYPD3/Def2QZVP
 --------------------

 ----------
 butane_opt
 ----------
 Symbolic Z-matrix:
 Charge =  0 Multiplicity = 1

                         Standard orientation:
 ---------------------------------------------------------------------
 Center     Atomic      Atomic             Coordinates (Angstroms)
 Number     Number       Type             X           Y           Z
 ---------------------------------------------------------------------
      1          6           0        1.985848   -0.143093   -0.046848
      2          6           0        0.544933    0.595806    0.093046
      3          1           0        2.764511    0.574872   -0.169417
      4          1           0        2.204473   -0.919905   -1.049067
      5          1           0        2.239390   -0.727900    0.804070
      6          6           0       -0.619159   -0.511985    0.107782
      7          1           0        0.316967    1.242111   -0.854376
      8          1           0        0.602538    1.159593    0.933334
      9          6           0       -1.920309    0.100123   -0.075597
     10          1           0       -0.627435   -1.267233    1.056702
     11          1           0       -0.387947   -1.069242   -0.746077
     12          1           0       -2.328063    0.761177    0.813102
     13          1           0       -2.784388   -0.657237   -0.343224
     14          1           0       -1.947928    0.658659   -0.915344
 ---------------------------------------------------------------------

 SCF Done:  E(RB2PLYPD3) =  -158.065333431     A.U. after   11 cycles
 E2(B2PLYPD3) =    -0.2481426389D+00 E(B2PLYPD3) =    -0.15831347607004D+03

 The electronic state is 1-A.
 Alpha  occ. eigenvalues --  -10.62278 -10.61738 -10.61343 -10.60151  -0.90480
 Alpha  occ. eigenvalues --   -0.82518  -0.72087  -0.66767  -0.53904  -0.48911
 Alpha  occ. eigenvalues --   -0.48167  -0.46690  -0.42539  -0.39782  -0.39388
 Alpha  occ. eigenvalues --   -0.38453  -0.35912
 Alpha virt. eigenvalues --    0.05647   0.06452   0.07924   0.08863   0.10532
 Alpha virt. eigenvalues --    0.11734   0.12514   0.13335   0.14416   0.14968
 Alpha virt. eigenvalues --    0.15781   0.16596   0.19223   0.20281   0.21809

 Mulliken charges:
               1
     1  C   -0.150158
     2  C   -0.064644
     3  H    0.050299
     4  H    0.008875
     5  H    0.060208
     6  C   -0.057249
     7  H    0.030934
     8  H    0.063304
     9  C   -0.139898
    10  H    0.021282
    11  H    0.067574
    12  H    0.033337
    13  H    0.025047
    14  H    0.051091
 Sum of Mulliken charges =   0.00000

 Dipole moment (field-independent basis, Debye):
    X=              0.0791    Y=              0.2171    Z=             -0.0126  Tot=              0.2314
 Quadrupole moment (field-independent basis, Debye-Ang):
   XX=            -29.8741   YY=            -29.2620   ZZ=            -28.2627
   XY=              0.1670   XZ=              0.7225   YZ=              0.0993

 Normal termination of Gaussian 09 at Wed Aug 26 23:56:41 2020.
