 Gaussian 09, Revision D.01,
 Gaussian 09:  ES64L-G09RevD.01 24-Apr-2013

 --------------------
 #p B2PLYPD3/Def2QZVP
 --------------------

 ----------
 butane_opt
 ----------
 Symbolic Z-matrix:
 Charge =  0 Multiplicity = 1

                         Standard orientation:
 ---------------------------------------------------------------------
 Center     Atomic      Atomic             Coordinates (Angstroms)
 Number     Number       Type             X           Y           Z
 ---------------------------------------------------------------------
      1          6           0        1.905549    0.155968    0.061438
      2          6           0        0.532552   -0.548323   -0.019175
      3          1           0        2.742350   -0.689898   -0.372370
      4          1           0        2.212968    1.071943    1.130235
      5          1           0        2.029648    0.417506   -0.593451
      6          6           0       -0.527254    0.483798   -0.159770
      7          1           0        0.314670   -1.060234    0.767112
      8          1           0        0.517813   -1.214525   -0.828151
      9          6           0       -1.923100   -0.111224    0.076293
     10          1           0       -0.609068    1.110982   -1.058787
     11          1           0       -0.321540    1.211719    0.754648
     12          1           0       -2.079178   -0.520056   -0.653437
     13          1           0       -2.773180    0.706077   -0.055118
     14          1           0       -1.960965   -0.914827    1.156600
 ---------------------------------------------------------------------

 SCF Done:  E(RB2PLYPD3) =  -157.725040192     A.U. after   11 cycles
 E2(B2PLYPD3) =    -0.2504036126D+00 E(B2PLYPD3) =    -0.15797544380436D+03

 The electronic state is 1-A.
 Alpha  occ. eigenvalues --  -10.61290 -10.60889 -10.60480 -10.59122  -0.93535
 Alpha  occ. eigenvalues --   -0.86210  -0.77136  -0.67956  -0.54955  -0.50361
 Alpha  occ. eigenvalues --   -0.48762  -0.46403  -0.42107  -0.40295  -0.39148
 Alpha  occ. eigenvalues --   -0.37365  -0.35847
 Alpha virt. eigenvalues --    0.04690   0.05648   0.07406   0.08029   0.10506
 Alpha virt. eigenvalues --    0.11144   0.12078   0.12902   0.14212   0.15570
 Alpha virt. eigenvalues --    0.15708   0.16215   0.18682   0.19294   0.21338

 Mulliken charges:
               1
     1  C   -0.579960
     2  C    0.006548
     3  H    0.010844
     4  H    0.058690
     5  H    0.431173
     6  C   -0.022505
     7  H    0.067509
     8  H    0.022891
     9  C   -0.264458
    10  H    0.035114
    11  H    0.016273
    12  H    0.158094
    13  H    0.032532
    14  H    0.027256
 Sum of Mulliken charges =   0.00000

 Dipole moment (field-independent basis, Debye):
    X=             -0.2251    Y=             -0.0224    Z=             -0.7801  Tot=              0.8122
 Quadrupole moment (field-independent basis, Debye-Ang):
   XX=            -31.4624   YY=            -29.0209   ZZ=            -27.7124
   XY=              0.3149   XZ=              0.0442   YZ=              0.1771

 Normal termination of Gaussian 09 at Wed Aug 26 22:52:58 2020.
