 Gaussian 09, Revision D.01,
 Gaussian 09:  ES64L-G09RevD.01 24-Apr-2013

 --------------------
 #p B2PLYPD3/Def2QZVP
 --------------------

 ----------
 butane_opt
 ----------
 Symbolic Z-matrix:
 Charge =  0 Multiplicity = 1

                         Standard orientation:
 ---------------------------------------------------------------------
 Center     Atomic      Atomic             Coordinates (Angstroms)
 Number     Number       Type             X           Y           Z
 ---------------------------------------------------------------------
      1          6           0       -1.958809    0.014354   -0.239617
      2          6           0       -0.633715   -0.448693    0.285899
      3          1           0       -2.807372   -0.713393   -0.739184
      4          1           0       -1.629485    0.317449   -0.925424
      5          1           0       -2.412260    1.246595    0.925954
      6          6           0        0.518737    0.577803    0.024268
      7          1           0       -0.209737   -0.811404   -0.261430
      8          1           0       -0.872983   -1.324489    1.495785
      9          6           0        1.987211   -0.135336   -0.062160
     10          1           0        0.673277    1.618687    0.856164
     11          1           0        0.538333    1.058999   -0.866664
     12          1           0        2.355892   -0.561860    0.814668
     13          1           0        2.628332    0.322470   -0.391103
     14          1           0        2.255464   -1.201828   -0.959104
 ---------------------------------------------------------------------

 SCF Done:  E(RB2PLYPD3) =  -157.568131759     A.U. after   12 cycles
 E2(B2PLYPD3) =    -0.2570228504D+00 E(B2PLYPD3) =    -0.15782515460919D+03

 The electronic state is 1-A.
 Alpha  occ. eigenvalues --  -10.65912 -10.64092 -10.62852 -10.61368  -0.96263
 Alpha  occ. eigenvalues --   -0.85760  -0.77974  -0.69570  -0.54170  -0.52760
 Alpha  occ. eigenvalues --   -0.49862  -0.45033  -0.42089  -0.41419  -0.37029
 Alpha  occ. eigenvalues --   -0.35669  -0.33172
 Alpha virt. eigenvalues --    0.00737   0.05052   0.05421   0.06625   0.07927
 Alpha virt. eigenvalues --    0.10597   0.11794   0.12491   0.13538   0.14714
 Alpha virt. eigenvalues --    0.15230   0.17094   0.18134   0.18808   0.19891

 Mulliken charges:
               1
     1  C   -0.325756
     2  C   -0.351540
     3  H    0.065317
     4  H    0.254165
     5  H   -0.013783
     6  C   -0.071860
     7  H    0.371841
     8  H    0.023606
     9  C   -0.222525
    10  H    0.004029
    11  H    0.077172
    12  H    0.067157
    13  H    0.148212
    14  H   -0.026035
 Sum of Mulliken charges =   0.00000

 Dipole moment (field-independent basis, Debye):
    X=              0.7694    Y=             -0.0783    Z=             -1.0605  Tot=              1.3125
 Quadrupole moment (field-independent basis, Debye-Ang):
   XX=            -30.3752   YY=            -30.6453   ZZ=            -29.0654
   XY=              2.2964   XZ=              1.3924   YZ=             -0.2132

 Normal termination of Gaussian 09 at Wed Aug 26 12:09:11 2020.
