 Gaussian 09, Revision D.01,
 Gaussian 09:  ES64L-G09RevD.01 24-Apr-2013

 --------------------
 #p B2PLYPD3/Def2QZVP
 --------------------

 ----------
 butane_opt
 ----------
 Symbolic Z-matrix:
 Charge =  0 Multiplicity = 1

                         Standard orientation:
 ---------------------------------------------------------------------
 Center     Atomic      Atomic             Coordinates (Angstroms)
 Number     Number       Type             X           Y           Z
 ---------------------------------------------------------------------
      1          6           0       -1.999788   -0.126549    0.017195
      2          6           0       -0.436531    0.598343    0.114486
      3          1           0       -2.700774    0.518896   -0.749922
      4          1           0       -2.520067   -1.136092    1.112372
      5          1           0       -1.642447   -0.364087   -0.606220
      6          6           0        0.601023   -0.488528   -0.027336
      7          1           0       -0.260845    1.031050    0.754298
      8          1           0       -0.246866    1.295605   -0.918788
      9          6           0        1.826035    0.032768   -0.039634
     10          1           0        0.360595   -1.228809   -0.928023
     11          1           0        0.425206   -0.925189    0.610160
     12          1           0        1.855750    0.496443   -0.873452
     13          1           0        2.732789   -0.804344    0.001977
     14          1           0        2.052228    1.020325    1.209334
 ---------------------------------------------------------------------

 SCF Done:  E(RB2PLYPD3) =  -157.487480478     A.U. after   12 cycles
 E2(B2PLYPD3) =    -0.2554819473D+00 E(B2PLYPD3) =    -0.15774296242569D+03

 The electronic state is 1-A.
 Alpha  occ. eigenvalues --  -10.63440 -10.62584 -10.61306 -10.57444  -0.97697
 Alpha  occ. eigenvalues --   -0.87046  -0.77308  -0.72415  -0.57136  -0.50377
 Alpha  occ. eigenvalues --   -0.48260  -0.46728  -0.42796  -0.41999  -0.37705
 Alpha  occ. eigenvalues --   -0.35902  -0.34068
 Alpha virt. eigenvalues --    0.02552   0.03372   0.05492   0.07410   0.10030
 Alpha virt. eigenvalues --    0.10579   0.10723   0.12624   0.14189   0.15607
 Alpha virt. eigenvalues --    0.16039   0.16128   0.18263   0.19281   0.20553

 Mulliken charges:
               1
     1  C   -0.564038
     2  C   -0.250973
     3  H    0.050683
     4  H    0.062398
     5  H    0.421938
     6  C   -0.230130
     7  H    0.252844
     8  H    0.001403
     9  C   -0.139603
    10  H    0.024095
    11  H    0.261110
    12  H    0.089192
    13  H    0.044712
    14  H   -0.023633
 Sum of Mulliken charges =   0.00000

 Dipole moment (field-independent basis, Debye):
    X=              0.2667    Y=             -0.7112    Z=             -0.5953  Tot=              0.9651
 Quadrupole moment (field-independent basis, Debye-Ang):
   XX=            -32.4289   YY=            -29.5915   ZZ=            -27.8058
   XY=             -0.2239   XZ=             -0.3838   YZ=             -0.9755

 Normal termination of Gaussian 09 at Wed Aug 26 15:31:58 2020.
