 Gaussian 09, Revision D.01,
 Gaussian 09:  ES64L-G09RevD.01 24-Apr-2013

 --------------------
 #p B2PLYPD3/Def2QZVP
 --------------------

 ----------
 butane_opt
 ----------
 Symbolic Z-matrix:
 Charge =  0 Multiplicity = 1

                         Standard orientation:
 ---------------------------------------------------------------------
 Center     Atomic      Atomic             Coordinates (Angstroms)
 Number     Number       Type             X           Y           Z
 ---------------------------------------------------------------------
      1          6           0        1.885286   -0.239834   -0.165886
      2          6           0        0.558161    0.547333    0.155796
      3          1           0        2.842645    0.569594   -0.851375
      4          1           0        1.856350   -0.808394   -0.920891
      5          1           0        2.391309   -0.847910    0.962046
      6          6           0       -0.587661   -0.406630    0.207933
      7          1           0        0.220350    0.918593   -0.370572
      8          1           0        0.622397    1.874813    1.278643
      9          6           0       -1.911152    0.063247   -0.183277
     10          1           0       -0.492032   -1.011287    1.225278
     11          1           0       -0.261155   -1.029487   -0.550064
     12          1           0       -1.949512    0.586445    0.458565
     13          1           0       -2.995796   -0.930620    0.050186
     14          1           0       -1.902358    0.893555   -1.369213
 ---------------------------------------------------------------------

 SCF Done:  E(RB2PLYPD3) =  -157.529624368     A.U. after   12 cycles
 E2(B2PLYPD3) =    -0.2584743229D+00 E(B2PLYPD3) =    -0.15778809869135D+03

 The electronic state is 1-A.
 Alpha  occ. eigenvalues --  -10.66348 -10.64186 -10.63383 -10.62096  -0.97441
 Alpha  occ. eigenvalues --   -0.85682  -0.76240  -0.69757  -0.55903  -0.51150
 Alpha  occ. eigenvalues --   -0.47442  -0.45060  -0.42303  -0.39831  -0.38619
 Alpha  occ. eigenvalues --   -0.35470  -0.33243
 Alpha virt. eigenvalues --    0.01297   0.03243   0.04469   0.06366   0.08633
 Alpha virt. eigenvalues --    0.10214   0.11031   0.12380   0.13060   0.14047
 Alpha virt. eigenvalues --    0.15191   0.16018   0.17729   0.18281   0.19629

 Mulliken charges:
               1
     1  C   -0.173399
     2  C   -0.449737
     3  H    0.013324
     4  H    0.109563
     5  H    0.058128
     6  C   -0.026117
     7  H    0.445240
     8  H   -0.051307
     9  C   -0.359474
    10  H    0.034582
    11  H    0.060308
    12  H    0.265886
    13  H    0.043511
    14  H    0.029493
 Sum of Mulliken charges =   0.00000

 Dipole moment (field-independent basis, Debye):
    X=             -0.2568    Y=             -0.8708    Z=             -0.5970  Tot=              1.0866
 Quadrupole moment (field-independent basis, Debye-Ang):
   XX=            -31.8696   YY=            -30.9125   ZZ=            -29.2887
   XY=             -1.2549   XZ=             -1.4767   YZ=             -1.2940

 Normal termination of Gaussian 09 at Wed Aug 26 23:49:37 2020.
