 Gaussian 09, Revision D.01,
 Gaussian 09:  ES64L-G09RevD.01 24-Apr-2013

 --------------------
 #p B2PLYPD3/Def2QZVP
 --------------------

 ----------
 butane_opt
 ----------
 Symbolic Z-matrix:
 Charge =  0 Multiplicity = 1

                         Standard orientation:
 ---------------------------------------------------------------------
 Center     Atomic      Atomic             Coordinates (Angstroms)
 Number     Number       Type             X           Y           Z
 ---------------------------------------------------------------------
      1          6           0        1.982730    0.059803   -0.218804
      2          6           0        0.585107   -0.465623    0.183825
      3          1           0        2.798399   -0.617485   -0.287960
      4          1           0        2.216662    0.934420    0.757467
      5          1           0        1.726226    0.713340   -1.044521
      6          6           0       -0.517231    0.489154    0.182465
      7          1           0        0.633653   -1.289636    1.242793
      8          1           0        0.260313   -0.785221   -0.579706
      9          6           0       -1.984773   -0.131594   -0.129652
     10          1           0       -0.599407    0.748195   -0.487129
     11          1           0       -0.432231    1.337546    1.143195
     12          1           0       -1.731570   -0.558897   -0.997248
     13          1           0       -2.740266    0.501685   -0.551208
     14          1           0       -2.526785   -0.694391    0.697307
 ---------------------------------------------------------------------

 SCF Done:  E(RB2PLYPD3) =  -157.759750944     A.U. after   11 cycles
 E2(B2PLYPD3) =    -0.2505086900D+00 E(B2PLYPD3) =    -0.15801025963385D+03

 The electronic state is 1-A.
 Alpha  occ. eigenvalues --  -10.62613 -10.60637 -10.60582 -10.59430  -0.96806
 Alpha  occ. eigenvalues --   -0.84659  -0.75228  -0.68833  -0.56577  -0.51652
 Alpha  occ. eigenvalues --   -0.48999  -0.47940  -0.43150  -0.41315  -0.39326
 Alpha  occ. eigenvalues --   -0.36640  -0.33871
 Alpha virt. eigenvalues --    0.05406   0.06577   0.07967   0.08774   0.10494
 Alpha virt. eigenvalues --    0.11301   0.12233   0.12851   0.14062   0.15231
 Alpha virt. eigenvalues --    0.16278   0.16714   0.18166   0.19696   0.21249

 Mulliken charges:
               1
     1  C   -0.147646
     2  C   -0.132114
     3  H    0.078753
     4  H    0.007579
     5  H    0.054169
     6  C   -0.573171
     7  H    0.010180
     8  H    0.167226
     9  C   -0.146662
    10  H    0.500376
    11  H    0.031501
    12  H    0.057019
    13  H    0.039638
    14  H    0.053153
 Sum of Mulliken charges =   0.00000

 Dipole moment (field-independent basis, Debye):
    X=             -0.3232    Y=             -0.1431    Z=             -0.9078  Tot=              0.9742
 Quadrupole moment (field-independent basis, Debye-Ang):
   XX=            -28.7123   YY=            -30.5470   ZZ=            -27.9992
   XY=             -1.1270   XZ=              0.2772   YZ=             -0.4626

 Normal termination of Gaussian 09 at Wed Aug 26 18:46:29 2020.
