 Gaussian 09, Revision D.01,
 Gaussian 09:  ES64L-G09RevD.01 24-Apr-2013

 --------------------
 #p B2PLYPD3/Def2QZVP
 --------------------

 ----------
 butane_opt
 ----------
 Symbolic Z-matrix:
 Charge =  0 Multiplicity = 1

                         Standard orientation:
 ---------------------------------------------------------------------
 Center     Atomic      Atomic             Coordinates (Angstroms)
 Number     Number       Type             X           Y           Z
 ---------------------------------------------------------------------
      1          6           0        2.084727    0.146755    0.086903
      2          6           0        0.506806   -0.592907   -0.011369
      3          1           0        2.744349   -0.639328   -0.450529
      4          1           0        2.392167    1.436554    1.113756
      5          1           0        1.909689    0.351670   -0.528064
      6          6           0       -0.620806    0.472579   -0.174483
      7          1           0        0.547585   -1.011046    0.832174
      8          1           0        0.313054   -1.262193   -0.938897
      9          6           0       -1.936281   -0.050408    0.064576
     10          1           0       -0.579389    1.023950   -1.185242
     11          1           0       -0.589477    0.956624    0.422665
     12          1           0       -2.133476   -0.477107   -0.527784
     13          1           0       -2.809561    0.735679    0.195856
     14          1           0       -2.001612   -0.970914    1.272304
 ---------------------------------------------------------------------

 SCF Done:  E(RB2PLYPD3) =  -157.319543991     A.U. after   12 cycles
 E2(B2PLYPD3) =    -0.2544080024D+00 E(B2PLYPD3) =    -0.15757395199356D+03

 The electronic state is 1-A.
 Alpha  occ. eigenvalues --  -10.61772 -10.61577 -10.60524 -10.57604  -0.95012
 Alpha  occ. eigenvalues --   -0.88426  -0.77928  -0.72047  -0.57262  -0.48679
 Alpha  occ. eigenvalues --   -0.48243  -0.47450  -0.43332  -0.41021  -0.38425
 Alpha  occ. eigenvalues --   -0.35591  -0.34169
 Alpha virt. eigenvalues --    0.00536   0.04912   0.06351   0.07983   0.10039
 Alpha virt. eigenvalues --    0.10514   0.10843   0.12809   0.13592   0.15442
 Alpha virt. eigenvalues --    0.15583   0.16520   0.18261   0.19461   0.21422

 Mulliken charges:
               1
     1  C   -0.780129
     2  C   -0.069104
     3  H    0.073542
     4  H    0.059068
     5  H    0.600986
     6  C   -0.321491
     7  H    0.098834
     8  H    0.036522
     9  C   -0.403928
    10  H    0.036413
    11  H    0.326341
    12  H    0.300279
    13  H    0.053502
    14  H   -0.010834
 Sum of Mulliken charges =   0.00000

 Dipole moment (field-independent basis, Debye):
    X=             -0.3995    Y=              0.4091    Z=             -0.9130  Tot=              1.0773
 Quadrupole moment (field-independent basis, Debye-Ang):
   XX=            -31.3166   YY=            -28.5729   ZZ=            -27.9289
   XY=             -0.5537   XZ=              0.2350   YZ=              1.2631

 Normal termination of Gaussian 09 at Wed Aug 26 15:14:41 2020.
