 Gaussian 09, Revision D.01,
 Gaussian 09:  ES64L-G09RevD.01 24-Apr-2013

 --------------------
 #p B2PLYPD3/Def2QZVP
 --------------------

 ----------
 butane_opt
 ----------
 Symbolic Z-matrix:
 Charge =  0 Multiplicity = 1

                         Standard orientation:
 ---------------------------------------------------------------------
 Center     Atomic      Atomic             Coordinates (Angstroms)
 Number     Number       Type             X           Y           Z
 ---------------------------------------------------------------------
      1          6           0       -1.916002   -0.093216   -0.027508
      2          6           0       -0.630102    0.465738   -0.040786
      3          1           0       -2.740642    0.722250    0.027730
      4          1           0       -1.968796   -0.754485    0.956931
      5          1           0       -1.987510   -0.663450   -0.795861
      6          6           0        0.521904   -0.547264    0.049755
      7          1           0       -0.650232    1.163646    0.789380
      8          1           0       -0.285769    1.141351   -1.010017
      9          6           0        1.998328    0.127673   -0.006339
     10          1           0        0.369053   -1.171819   -0.728857
     11          1           0        0.410405   -1.298170    1.019403
     12          1           0        1.848379    0.600715   -0.729041
     13          1           0        2.805893   -0.646439   -0.460761
     14          1           0        2.354446    1.188819    1.080362
 ---------------------------------------------------------------------

 SCF Done:  E(RB2PLYPD3) =  -157.932096911     A.U. after   11 cycles
 E2(B2PLYPD3) =    -0.2511390160D+00 E(B2PLYPD3) =    -0.15818323592747D+03

 The electronic state is 1-A.
 Alpha  occ. eigenvalues --  -10.63424 -10.62373 -10.61220 -10.59701  -0.92891
 Alpha  occ. eigenvalues --   -0.84600  -0.73147  -0.66487  -0.54614  -0.49650
 Alpha  occ. eigenvalues --   -0.48735  -0.47150  -0.42052  -0.39387  -0.38550
 Alpha  occ. eigenvalues --   -0.37264  -0.35950
 Alpha virt. eigenvalues --    0.03498   0.05949   0.07452   0.07852   0.10297
 Alpha virt. eigenvalues --    0.10671   0.12116   0.12844   0.14318   0.15400
 Alpha virt. eigenvalues --    0.15736   0.16153   0.18994   0.19676   0.20524

 Mulliken charges:
               1
     1  C   -0.164561
     2  C   -0.018599
     3  H    0.049153
     4  H    0.042702
     5  H    0.064971
     6  C   -0.038788
     7  H    0.039928
     8  H   -0.003254
     9  C   -0.281353
    10  H    0.061176
    11  H    0.002453
    12  H    0.174237
    13  H    0.047076
    14  H    0.024859
 Sum of Mulliken charges =   0.00000

 Dipole moment (field-independent basis, Debye):
    X=             -0.3884    Y=             -0.0888    Z=             -0.6281  Tot=              0.7438
 Quadrupole moment (field-independent basis, Debye-Ang):
   XX=            -30.9113   YY=            -29.2279   ZZ=            -28.7385
   XY=             -0.5141   XZ=             -1.3636   YZ=              0.8806

 Normal termination of Gaussian 09 at Wed Aug 26 20:35:32 2020.
