 Gaussian 09, Revision D.01,
 Gaussian 09:  ES64L-G09RevD.01 24-Apr-2013

 --------------------
 #p B2PLYPD3/Def2QZVP
 --------------------

 ----------
 butane_opt
 ----------
 Symbolic Z-matrix:
 Charge =  0 Multiplicity = 1

                         Standard orientation:
 ---------------------------------------------------------------------
 Center     Atomic      Atomic             Coordinates (Angstroms)
 Number     Number       Type             X           Y           Z
 ---------------------------------------------------------------------
      1          6           0        1.872934   -0.153260   -0.120895
      2          6           0        0.523411    0.548601    0.092267
      3          1           0        2.524617    0.391861   -0.607826
      4          1           0        1.743787   -0.411908   -0.738561
      5          1           0        2.384678   -0.870675    0.930315
      6          6           0       -0.583367   -0.486608    0.181359
      7          1           0        0.288835    0.877143   -0.647844
      8          1           0        0.602554    1.605704    1.214055
      9          6           0       -1.893614    0.061605   -0.136866
     10          1           0       -0.572905   -1.080543    1.123455
     11          1           0       -0.085146   -1.270887   -0.746391
     12          1           0       -2.089358    0.887316    0.622892
     13          1           0       -2.734102   -0.680607   -0.106613
     14          1           0       -1.579143    0.730573   -1.138667
 ---------------------------------------------------------------------

 SCF Done:  E(RB2PLYPD3) =  -157.622683392     A.U. after   11 cycles
 E2(B2PLYPD3) =    -0.2526646837D+00 E(B2PLYPD3) =    -0.15787534807553D+03

 The electronic state is 1-A.
 Alpha  occ. eigenvalues --  -10.62988 -10.62603 -10.62171 -10.57868  -0.96297
 Alpha  occ. eigenvalues --   -0.88278  -0.76605  -0.66172  -0.54708  -0.50787
 Alpha  occ. eigenvalues --   -0.49708  -0.48078  -0.41149  -0.40833  -0.39386
 Alpha  occ. eigenvalues --   -0.37661  -0.33580
 Alpha virt. eigenvalues --    0.04669   0.05601   0.06538   0.07928   0.10162
 Alpha virt. eigenvalues --    0.10946   0.12296   0.12329   0.14180   0.14926
 Alpha virt. eigenvalues --    0.16246   0.16801   0.18293   0.19388   0.20855

 Mulliken charges:
               1
     1  C   -0.631308
     2  C   -0.189829
     3  H    0.046022
     4  H    0.499901
     5  H    0.063250
     6  C   -0.013066
     7  H    0.219731
     8  H   -0.027748
     9  C   -0.160558
    10  H    0.042779
    11  H   -0.000441
    12  H    0.062645
    13  H    0.067891
    14  H    0.020732
 Sum of Mulliken charges =   0.00000

 Dipole moment (field-independent basis, Debye):
    X=             -0.0760    Y=             -0.3608    Z=             -0.5264  Tot=              0.6427
 Quadrupole moment (field-independent basis, Debye-Ang):
   XX=            -29.1586   YY=            -30.6163   ZZ=            -28.2783
   XY=              0.2011   XZ=             -1.7669   YZ=             -1.1352

 Normal termination of Gaussian 09 at Wed Aug 26 11:26:12 2020.
