 Gaussian 09, Revision D.01,
 Gaussian 09:  ES64L-G09RevD.01 24-Apr-2013

 --------------------
 #p B2PLYPD3/Def2QZVP
 --------------------

 ----------
 butane_opt
 ----------
 Symbolic Z-matrix:
 Charge =  0 Multiplicity = 1

                         Standard orientation:
 ---------------------------------------------------------------------
 Center     Atomic      Atomic             Coordinates (Angstroms)
 Number     Number       Type             X           Y           Z
 ---------------------------------------------------------------------
      1          6           0       -1.942313   -0.143292    0.051099
      2          6           0       -0.539984    0.502222   -0.043985
      3          1           0       -2.757254    0.576566   -0.012126
      4          1           0       -2.131097   -0.840153    0.964848
      5          1           0       -2.066978   -0.692965   -0.873014
      6          6           0        0.544006   -0.449429   -0.012222
      7          1           0       -0.346885    1.087155    0.770468
      8          1           0       -0.485400    1.403572   -0.998369
      9          6           0        1.949556    0.091920    0.017801
     10          1           0        0.436192   -1.175404   -0.986885
     11          1           0        0.534839   -1.063759    0.851456
     12          1           0        1.997669    0.464883   -0.655178
     13          1           0        2.792413   -0.631502   -0.144395
     14          1           0        1.958911    0.863085    1.007037
 ---------------------------------------------------------------------

 SCF Done:  E(RB2PLYPD3) =  -157.935109980     A.U. after   11 cycles
 E2(B2PLYPD3) =    -0.2481833658D+00 E(B2PLYPD3) =    -0.15818329334565D+03

 The electronic state is 1-A.
 Alpha  occ. eigenvalues --  -10.61853 -10.60923 -10.60734 -10.58095  -0.93277
 Alpha  occ. eigenvalues --   -0.84942  -0.75015  -0.66150  -0.55110  -0.49752
 Alpha  occ. eigenvalues --   -0.49193  -0.47415  -0.42589  -0.41169  -0.40434
 Alpha  occ. eigenvalues --   -0.37029  -0.35837
 Alpha virt. eigenvalues --    0.05664   0.06708   0.07421   0.08072   0.10510
 Alpha virt. eigenvalues --    0.12270   0.13013   0.13499   0.14363   0.15084
 Alpha virt. eigenvalues --    0.15870   0.16523   0.19215   0.20001   0.21964

 Mulliken charges:
               1
     1  C   -0.135683
     2  C   -0.039288
     3  H    0.043480
     4  H    0.042093
     5  H    0.049211
     6  C   -0.008733
     7  H    0.045964
     8  H   -0.007690
     9  C   -0.402246
    10  H   -0.010244
    11  H    0.053617
    12  H    0.285144
    13  H    0.051579
    14  H    0.032797
 Sum of Mulliken charges =   0.00000

 Dipole moment (field-independent basis, Debye):
    X=             -0.0371    Y=              0.0319    Z=              0.0111  Tot=              0.0502
 Quadrupole moment (field-independent basis, Debye-Ang):
   XX=            -29.1279   YY=            -29.5703   ZZ=            -28.2624
   XY=             -0.4995   XZ=             -0.6536   YZ=             -0.0527

 Normal termination of Gaussian 09 at Wed Aug 26 09:59:25 2020.
