 Gaussian 09, Revision D.01,
 Gaussian 09:  ES64L-G09RevD.01 24-Apr-2013

 --------------------
 #p B2PLYPD3/Def2QZVP
 --------------------

 ----------
 butane_opt
 ----------
 Symbolic Z-matrix:
 Charge =  0 Multiplicity = 1

                         Standard orientation:
 ---------------------------------------------------------------------
 Center     Atomic      Atomic             Coordinates (Angstroms)
 Number     Number       Type             X           Y           Z
 ---------------------------------------------------------------------
      1          6           0        1.941258    0.077092   -0.105411
      2          6           0        0.598188   -0.467215    0.110891
      3          1           0        2.752889   -0.662480   -0.400239
      4          1           0        2.266190    0.839549    0.848447
      5          1           0        1.841058    0.503642   -0.909875
      6          6           0       -0.567888    0.599730    0.079356
      7          1           0        0.706497   -1.355300    1.151271
      8          1           0        0.308340   -0.926603   -0.578313
      9          6           0       -1.950971   -0.153700   -0.084683
     10          1           0       -0.336514    1.112722   -0.694502
     11          1           0       -0.485707    1.227192    0.922222
     12          1           0       -2.087743   -0.750135   -0.955800
     13          1           0       -2.682503    0.415328   -0.103380
     14          1           0       -2.406024   -0.739364    0.719249
 ---------------------------------------------------------------------

 SCF Done:  E(RB2PLYPD3) =  -157.945440997     A.U. after   11 cycles
 E2(B2PLYPD3) =    -0.2468201070D+00 E(B2PLYPD3) =    -0.15819226110396D+03

 The electronic state is 1-A.
 Alpha  occ. eigenvalues --  -10.60117 -10.60038 -10.59631 -10.58128  -0.92833
 Alpha  occ. eigenvalues --   -0.85019  -0.76177  -0.69028  -0.55041  -0.50202
 Alpha  occ. eigenvalues --   -0.48890  -0.48311  -0.43300  -0.42313  -0.40465
 Alpha  occ. eigenvalues --   -0.36735  -0.35724
 Alpha virt. eigenvalues --    0.05533   0.06682   0.08117   0.09107   0.10855
 Alpha virt. eigenvalues --    0.11873   0.12865   0.13724   0.14946   0.15224
 Alpha virt. eigenvalues --    0.16393   0.17020   0.19068   0.20056   0.21885

 Mulliken charges:
               1
     1  C   -0.177747
     2  C   -0.133601
     3  H    0.041249
     4  H    0.035041
     5  H    0.081966
     6  C   -0.066493
     7  H   -0.011365
     8  H    0.136004
     9  C   -0.129772
    10  H    0.075451
    11  H    0.040191
    12  H    0.026617
    13  H    0.053396
    14  H    0.029061
 Sum of Mulliken charges =   0.00000

 Dipole moment (field-independent basis, Debye):
    X=             -0.3724    Y=              0.3588    Z=             -0.7049  Tot=              0.8742
 Quadrupole moment (field-independent basis, Debye-Ang):
   XX=            -28.2234   YY=            -29.2673   ZZ=            -28.0621
   XY=             -0.1064   XZ=             -0.6197   YZ=              0.7757

 Normal termination of Gaussian 09 at Wed Aug 26 10:42:34 2020.
