 Gaussian 09, Revision D.01,
 Gaussian 09:  ES64L-G09RevD.01 24-Apr-2013

 --------------------
 #p B2PLYPD3/Def2QZVP
 --------------------

 ----------
 butane_opt
 ----------
 Symbolic Z-matrix:
 Charge =  0 Multiplicity = 1

                         Standard orientation:
 ---------------------------------------------------------------------
 Center     Atomic      Atomic             Coordinates (Angstroms)
 Number     Number       Type             X           Y           Z
 ---------------------------------------------------------------------
      1          6           0        1.935518   -0.155665    0.053638
      2          6           0        0.529153    0.572722   -0.118617
      3          1           0        2.623771    0.477790   -0.006248
      4          1           0        2.202781   -0.596406   -0.748788
      5          1           0        2.038808   -0.861964    1.088173
      6          6           0       -0.544416   -0.463452   -0.022243
      7          1           0        0.439981    1.221163   -0.965040
      8          1           0        0.321328    1.234976    0.776464
      9          6           0       -1.899087    0.102897    0.062059
     10          1           0       -0.463290   -1.235372    0.928668
     11          1           0       -0.478899   -1.136293   -0.905435
     12          1           0       -2.245366    0.993048    1.049714
     13          1           0       -2.803120   -0.842262   -0.465169
     14          1           0       -1.763003    0.406299   -0.601357
 ---------------------------------------------------------------------

 SCF Done:  E(RB2PLYPD3) =  -157.790975389     A.U. after   11 cycles
 E2(B2PLYPD3) =    -0.2508942753D+00 E(B2PLYPD3) =    -0.15804186966422D+03

 The electronic state is 1-A.
 Alpha  occ. eigenvalues --  -10.61858 -10.61657 -10.60864 -10.58861  -0.94426
 Alpha  occ. eigenvalues --   -0.86214  -0.75644  -0.66220  -0.54296  -0.50200
 Alpha  occ. eigenvalues --   -0.48013  -0.47309  -0.42266  -0.41401  -0.39004
 Alpha  occ. eigenvalues --   -0.36296  -0.35375
 Alpha virt. eigenvalues --    0.04451   0.06177   0.07453   0.07803   0.10117
 Alpha virt. eigenvalues --    0.11355   0.12471   0.13064   0.14592   0.15475
 Alpha virt. eigenvalues --    0.15634   0.16291   0.18352   0.20003   0.21466

 Mulliken charges:
               1
     1  C   -0.149924
     2  C   -0.041745
     3  H    0.052487
     4  H    0.040853
     5  H    0.047820
     6  C   -0.001718
     7  H    0.038827
     8  H    0.027681
     9  C   -0.575694
    10  H    0.008197
    11  H    0.036916
    12  H    0.057119
    13  H    0.019715
    14  H    0.439466
 Sum of Mulliken charges =   0.00000

 Dipole moment (field-independent basis, Debye):
    X=              0.7022    Y=              0.4492    Z=             -0.6078  Tot=              1.0317
 Quadrupole moment (field-independent basis, Debye-Ang):
   XX=            -30.8614   YY=            -29.1686   ZZ=            -27.8970
   XY=             -0.2745   XZ=             -0.3701   YZ=              0.3261

 Normal termination of Gaussian 09 at Wed Aug 26 10:40:17 2020.
