 Gaussian 09, Revision D.01,
 Gaussian 09:  ES64L-G09RevD.01 24-Apr-2013

 --------------------
 #p B2PLYPD3/Def2QZVP
 --------------------

 ----------
 butane_opt
 ----------
 Symbolic Z-matrix:
 Charge =  0 Multiplicity = 1

                         Standard orientation:
 ---------------------------------------------------------------------
 Center     Atomic      Atomic             Coordinates (Angstroms)
 Number     Number       Type             X           Y           Z
 ---------------------------------------------------------------------
      1          6           0       -1.956155   -0.097370   -0.200695
      2          6           0       -0.558547    0.493297    0.299155
      3          1           0       -2.646052    0.552190   -0.753535
      4          1           0       -2.439165   -1.051315    0.796328
      5          1           0       -1.620944   -0.526863   -0.985975
      6          6           0        0.538323   -0.460424    0.084602
      7          1           0       -0.327811    1.485446    1.633977
      8          1           0       -0.269065    0.832924   -0.312589
      9          6           0        1.921824    0.115950   -0.176622
     10          1           0        0.153148   -0.958185   -0.730403
     11          1           0        0.572388   -1.313561    1.127019
     12          1           0        1.803854    1.229542   -1.337496
     13          1           0        2.895866   -0.973659   -0.092629
     14          1           0        2.205118    0.414760    0.616668
 ---------------------------------------------------------------------

 SCF Done:  E(RB2PLYPD3) =  -157.583748132     A.U. after   11 cycles
 E2(B2PLYPD3) =    -0.2598422506D+00 E(B2PLYPD3) =    -0.15784359038262D+03

 The electronic state is 1-A.
 Alpha  occ. eigenvalues --  -10.66570 -10.64087 -10.63977 -10.62693  -0.97494
 Alpha  occ. eigenvalues --   -0.84459  -0.76712  -0.67780  -0.54327  -0.50608
 Alpha  occ. eigenvalues --   -0.47720  -0.44712  -0.42518  -0.39000  -0.38311
 Alpha  occ. eigenvalues --   -0.34890  -0.34356
 Alpha virt. eigenvalues --    0.00928   0.02591   0.04675   0.05531   0.09402
 Alpha virt. eigenvalues --    0.09705   0.11299   0.11770   0.12761   0.14305
 Alpha virt. eigenvalues --    0.15438   0.16059   0.16882   0.18759   0.20059

 Mulliken charges:
               1
     1  C   -0.175528
     2  C   -0.443321
     3  H    0.063925
     4  H    0.039922
     5  H    0.097533
     6  C   -0.035790
     7  H   -0.023125
     8  H    0.428453
     9  C   -0.217817
    10  H    0.073295
    11  H   -0.004157
    12  H    0.021225
    13  H    0.021472
    14  H    0.153911
 Sum of Mulliken charges =   0.00000

 Dipole moment (field-independent basis, Debye):
    X=             -0.1006    Y=             -0.2088    Z=             -0.7442  Tot=              0.7794
 Quadrupole moment (field-independent basis, Debye-Ang):
   XX=            -31.3060   YY=            -31.2482   ZZ=            -29.3526
   XY=              0.0425   XZ=              3.0089   YZ=             -1.2989

 Normal termination of Gaussian 09 at Wed Aug 26 20:08:54 2020.
