 Gaussian 09, Revision D.01,
 Gaussian 09:  ES64L-G09RevD.01 24-Apr-2013

 --------------------
 #p B2PLYPD3/Def2QZVP
 --------------------

 ----------
 butane_opt
 ----------
 Symbolic Z-matrix:
 Charge =  0 Multiplicity = 1

                         Standard orientation:
 ---------------------------------------------------------------------
 Center     Atomic      Atomic             Coordinates (Angstroms)
 Number     Number       Type             X           Y           Z
 ---------------------------------------------------------------------
      1          6           0        1.952024    0.149015   -0.062117
      2          6           0        0.484326   -0.533685    0.185418
      3          1           0        2.756234   -0.718811   -0.723949
      4          1           0        2.529834    0.960624    0.861675
      5          1           0        1.903552    0.508456   -0.774725
      6          6           0       -0.598753    0.433049    0.002442
      7          1           0        0.150138   -1.446179    1.246412
      8          1           0        0.421676   -0.938895   -0.519859
      9          6           0       -1.857929   -0.089701   -0.115508
     10          1           0       -0.299019    1.000931   -0.801073
     11          1           0       -0.591143    1.516373    1.035876
     12          1           0       -1.844554   -0.858566   -1.004438
     13          1           0       -2.675626    0.741546   -0.293993
     14          1           0       -2.229098   -0.517539    0.912663
 ---------------------------------------------------------------------

 SCF Done:  E(RB2PLYPD3) =  -157.735986556     A.U. after   11 cycles
 E2(B2PLYPD3) =    -0.2538846785D+00 E(B2PLYPD3) =    -0.15798987123433D+03

 The electronic state is 1-A.
 Alpha  occ. eigenvalues --  -10.63401 -10.62804 -10.62483 -10.62262  -0.96040
 Alpha  occ. eigenvalues --   -0.85892  -0.76302  -0.66360  -0.54876  -0.51582
 Alpha  occ. eigenvalues --   -0.48964  -0.47597  -0.41024  -0.40111  -0.39244
 Alpha  occ. eigenvalues --   -0.36621  -0.33457
 Alpha virt. eigenvalues --    0.04013   0.05019   0.06597   0.06976   0.09707
 Alpha virt. eigenvalues --    0.10347   0.11195   0.12076   0.14602   0.15153
 Alpha virt. eigenvalues --    0.15604   0.16332   0.17383   0.19155   0.20477

 Mulliken charges:
               1
     1  C   -0.401489
     2  C   -0.288450
     3  H    0.009395
     4  H    0.065466
     5  H    0.296479
     6  C    0.007257
     7  H    0.016794
     8  H    0.296068
     9  C   -0.147806
    10  H    0.054028
    11  H   -0.051505
    12  H    0.042217
    13  H    0.047519
    14  H    0.054028
 Sum of Mulliken charges =   0.00000

 Dipole moment (field-independent basis, Debye):
    X=             -0.3713    Y=              0.0495    Z=             -1.1313  Tot=              1.1916
 Quadrupole moment (field-independent basis, Debye-Ang):
   XX=            -30.8162   YY=            -30.5758   ZZ=            -28.7048
   XY=              1.0301   XZ=             -1.0608   YZ=              0.0869

 Normal termination of Gaussian 09 at Wed Aug 26 10:51:15 2020.
