 Gaussian 09, Revision D.01,
 Gaussian 09:  ES64L-G09RevD.01 24-Apr-2013

 --------------------
 #p B2PLYPD3/Def2QZVP
 --------------------

 ----------
 butane_opt
 ----------
 Symbolic Z-matrix:
 Charge =  0 Multiplicity = 1

                         Standard orientation:
 ---------------------------------------------------------------------
 Center     Atomic      Atomic             Coordinates (Angstroms)
 Number     Number       Type             X           Y           Z
 ---------------------------------------------------------------------
      1          6           0       -1.952322   -0.126057   -0.115928
      2          6           0       -0.507688    0.606864    0.046563
      3          1           0       -2.700182    0.450892   -0.136061
      4          1           0       -2.064634   -0.630500    0.879774
      5          1           0       -2.132411   -1.033674   -1.023923
      6          6           0        0.560778   -0.423735    0.213194
      7          1           0       -0.327125    1.200147    0.812659
      8          1           0       -0.102135    0.882673   -0.801645
      9          6           0        1.896185    0.057400   -0.222005
     10          1           0        0.347144   -0.818257   -0.302548
     11          1           0        0.500932   -1.224915    1.508926
     12          1           0        1.414183    0.315378   -0.860455
     13          1           0        2.831519   -1.025462   -0.474148
     14          1           0        2.250993    1.196883    0.866478
 ---------------------------------------------------------------------

 SCF Done:  E(RB2PLYPD3) =  -157.500246654     A.U. after   12 cycles
 E2(B2PLYPD3) =    -0.2557694827D+00 E(B2PLYPD3) =    -0.15775601613693D+03

 The electronic state is 1-A.
 Alpha  occ. eigenvalues --  -10.65397 -10.62319 -10.60530 -10.60286  -1.00398
 Alpha  occ. eigenvalues --   -0.85023  -0.75893  -0.72144  -0.57401  -0.49865
 Alpha  occ. eigenvalues --   -0.48128  -0.47825  -0.42058  -0.40978  -0.39937
 Alpha  occ. eigenvalues --   -0.35648  -0.34144
 Alpha virt. eigenvalues --    0.01359   0.05624   0.06789   0.07183   0.09422
 Alpha virt. eigenvalues --    0.10444   0.12261   0.13370   0.13443   0.14809
 Alpha virt. eigenvalues --    0.14937   0.16556   0.18004   0.19116   0.19730

 Mulliken charges:
               1
     1  C   -0.166641
     2  C   -0.084523
     3  H    0.073665
     4  H    0.052885
     5  H    0.027891
     6  C   -0.639937
     7  H    0.082726
     8  H    0.083886
     9  C   -0.297448
    10  H    0.596754
    11  H   -0.037003
    12  H    0.230260
    13  H    0.064814
    14  H    0.012671
 Sum of Mulliken charges =   0.00000

 Dipole moment (field-independent basis, Debye):
    X=             -0.7446    Y=              0.0582    Z=             -0.6923  Tot=              1.0184
 Quadrupole moment (field-independent basis, Debye-Ang):
   XX=            -30.3859   YY=            -30.0512   ZZ=            -29.1810
   XY=             -1.2598   XZ=             -0.5511   YZ=              1.7786

 Normal termination of Gaussian 09 at Wed Aug 26 13:58:37 2020.
