 Gaussian 09, Revision D.01,
 Gaussian 09:  ES64L-G09RevD.01 24-Apr-2013

 --------------------
 #p B2PLYPD3/Def2QZVP
 --------------------

 ----------
 butane_opt
 ----------
 Symbolic Z-matrix:
 Charge =  0 Multiplicity = 1

                         Standard orientation:
 ---------------------------------------------------------------------
 Center     Atomic      Atomic             Coordinates (Angstroms)
 Number     Number       Type             X           Y           Z
 ---------------------------------------------------------------------
      1          6           0        2.031542   -0.168792   -0.070527
      2          6           0        0.463930    0.656863    0.247522
      3          1           0        2.770159    0.479837   -0.958019
      4          1           0        1.573639   -0.560550   -0.868234
      5          1           0        2.482312   -1.093500    0.970225
      6          6           0       -0.589547   -0.455689    0.053138
      7          1           0        0.493251    1.137943   -0.600133
      8          1           0        0.220106    1.225250    1.148748
      9          6           0       -1.884072    0.036691   -0.090003
     10          1           0       -0.656137   -1.084491    0.945802
     11          1           0       -0.346170   -1.061708   -0.739947
     12          1           0       -2.145623    0.449562    0.554518
     13          1           0       -2.712015   -0.579615   -0.230576
     14          1           0       -1.810646    0.672825   -1.063165
 ---------------------------------------------------------------------

 SCF Done:  E(RB2PLYPD3) =  -157.855543793     A.U. after   11 cycles
 E2(B2PLYPD3) =    -0.2521323405D+00 E(B2PLYPD3) =    -0.15810767613369D+03

 The electronic state is 1-A.
 Alpha  occ. eigenvalues --  -10.65704 -10.61846 -10.58853 -10.55927  -0.94060
 Alpha  occ. eigenvalues --   -0.83575  -0.73257  -0.69028  -0.57015  -0.50717
 Alpha  occ. eigenvalues --   -0.49817  -0.47050  -0.42329  -0.40761  -0.38174
 Alpha  occ. eigenvalues --   -0.36362  -0.34416
 Alpha virt. eigenvalues --    0.03485   0.05875   0.08058   0.08516   0.10268
 Alpha virt. eigenvalues --    0.10579   0.12362   0.12470   0.14431   0.15481
 Alpha virt. eigenvalues --    0.16012   0.17229   0.17797   0.18913   0.20581

 Mulliken charges:
               1
     1  C   -0.249116
     2  C   -0.114031
     3  H    0.029990
     4  H    0.115085
     5  H    0.058050
     6  C   -0.007256
     7  H    0.091833
     8  H    0.060463
     9  C   -0.260051
    10  H    0.012492
    11  H    0.051447
    12  H    0.162756
    13  H    0.030261
    14  H    0.018075
 Sum of Mulliken charges =   0.00000

 Dipole moment (field-independent basis, Debye):
    X=             -0.8609    Y=             -0.1385    Z=             -0.1825  Tot=              0.8908
 Quadrupole moment (field-independent basis, Debye-Ang):
   XX=            -31.3474   YY=            -29.7486   ZZ=            -27.1986
   XY=             -0.1218   XZ=             -1.6356   YZ=             -0.4400

 Normal termination of Gaussian 09 at Wed Aug 26 19:16:47 2020.
