 Gaussian 09, Revision D.01,
 Gaussian 09:  ES64L-G09RevD.01 24-Apr-2013

 --------------------
 #p B2PLYPD3/Def2QZVP
 --------------------

 ----------
 butane_opt
 ----------
 Symbolic Z-matrix:
 Charge =  0 Multiplicity = 1

                         Standard orientation:
 ---------------------------------------------------------------------
 Center     Atomic      Atomic             Coordinates (Angstroms)
 Number     Number       Type             X           Y           Z
 ---------------------------------------------------------------------
      1          6           0        1.937163   -0.148528   -0.076705
      2          6           0        0.516339    0.556699    0.156312
      3          1           0        2.741641    0.667539   -0.397039
      4          1           0        1.765268   -0.733223   -0.763710
      5          1           0        2.300832   -0.974857    0.918671
      6          6           0       -0.537907   -0.525197    0.050184
      7          1           0        0.448846    1.378170   -0.772623
      8          1           0        0.400317    1.208373    1.077048
      9          6           0       -1.839516    0.122798   -0.111553
     10          1           0       -0.761934   -1.115894    0.694604
     11          1           0       -0.435526   -1.181861   -0.900047
     12          1           0       -2.195989    0.728037    0.850627
     13          1           0       -2.662396   -0.790495    0.163811
     14          1           0       -2.057537    0.779577   -0.980777
 ---------------------------------------------------------------------

 SCF Done:  E(RB2PLYPD3) =  -157.973650623     A.U. after   11 cycles
 E2(B2PLYPD3) =    -0.2505577653D+00 E(B2PLYPD3) =    -0.15822420838793D+03

 The electronic state is 1-A.
 Alpha  occ. eigenvalues --  -10.63615 -10.62267 -10.61900 -10.59303  -0.92650
 Alpha  occ. eigenvalues --   -0.83175  -0.71012  -0.68019  -0.55239  -0.49769
 Alpha  occ. eigenvalues --   -0.47001  -0.46154  -0.43039  -0.42180  -0.38071
 Alpha  occ. eigenvalues --   -0.37157  -0.34381
 Alpha virt. eigenvalues --    0.05272   0.06142   0.07354   0.08276   0.10399
 Alpha virt. eigenvalues --    0.10849   0.12540   0.13195   0.14609   0.14888
 Alpha virt. eigenvalues --    0.15479   0.16602   0.19389   0.19572   0.20256

 Mulliken charges:
               1
     1  C   -0.213765
     2  C   -0.016949
     3  H    0.045299
     4  H    0.121887
     5  H    0.014694
     6  C   -0.056518
     7  H    0.011861
     8  H    0.050607
     9  C   -0.145614
    10  H    0.086378
    11  H    0.016821
    12  H    0.017844
    13  H    0.004553
    14  H    0.062901
 Sum of Mulliken charges =   0.00000

 Dipole moment (field-independent basis, Debye):
    X=             -0.1161    Y=             -0.0071    Z=             -0.0964  Tot=              0.1511
 Quadrupole moment (field-independent basis, Debye-Ang):
   XX=            -32.0081   YY=            -28.6474   ZZ=            -28.6889
   XY=              0.4458   XZ=             -1.1453   YZ=             -0.5714

 Normal termination of Gaussian 09 at Wed Aug 26 15:14:50 2020.
