 Gaussian 09, Revision D.01,
 Gaussian 09:  ES64L-G09RevD.01 24-Apr-2013

 --------------------
 #p B2PLYPD3/Def2QZVP
 --------------------

 ----------
 butane_opt
 ----------
 Symbolic Z-matrix:
 Charge =  0 Multiplicity = 1

                         Standard orientation:
 ---------------------------------------------------------------------
 Center     Atomic      Atomic             Coordinates (Angstroms)
 Number     Number       Type             X           Y           Z
 ---------------------------------------------------------------------
      1          6           0        1.892490    0.080358    0.071817
      2          6           0        0.601946   -0.493644   -0.125960
      3          1           0        2.624825   -0.627700   -0.020024
      4          1           0        2.086391    0.734291    1.125614
      5          1           0        2.012749    0.569840   -0.657251
      6          6           0       -0.513544    0.561432    0.029922
      7          1           0        0.441273   -1.000812    0.546552
      8          1           0        0.506269   -1.146408   -1.118670
      9          6           0       -1.973154   -0.122953    0.056449
     10          1           0       -0.417667    1.377140   -0.933707
     11          1           0       -0.417539    0.987510    0.855186
     12          1           0       -1.796407   -0.403537   -0.651132
     13          1           0       -2.687581    0.487420   -0.459779
     14          1           0       -2.398740   -1.128903    1.119839
 ---------------------------------------------------------------------

 SCF Done:  E(RB2PLYPD3) =  -157.746375125     A.U. after   11 cycles
 E2(B2PLYPD3) =    -0.2494534274D+00 E(B2PLYPD3) =    -0.15799582855194D+03

 The electronic state is 1-A.
 Alpha  occ. eigenvalues --  -10.61421 -10.59780 -10.58103 -10.57522  -0.94447
 Alpha  occ. eigenvalues --   -0.87533  -0.76499  -0.69514  -0.55865  -0.49984
 Alpha  occ. eigenvalues --   -0.48574  -0.47258  -0.42493  -0.41174  -0.39078
 Alpha  occ. eigenvalues --   -0.37772  -0.36093
 Alpha virt. eigenvalues --    0.04408   0.05817   0.07330   0.08153   0.10790
 Alpha virt. eigenvalues --    0.11217   0.12687   0.12813   0.14830   0.15689
 Alpha virt. eigenvalues --    0.16219   0.16742   0.18982   0.19252   0.20981

 Mulliken charges:
               1
     1  C   -0.163355
     2  C   -0.152951
     3  H    0.037492
     4  H    0.025254
     5  H    0.091310
     6  C   -0.060329
     7  H    0.163299
     8  H    0.012922
     9  C   -0.487919
    10  H   -0.001280
    11  H    0.086370
    12  H    0.347345
    13  H    0.054583
    14  H    0.047260
 Sum of Mulliken charges =   0.00000

 Dipole moment (field-independent basis, Debye):
    X=              0.4041    Y=             -0.2222    Z=             -0.3706  Tot=              0.5916
 Quadrupole moment (field-independent basis, Debye-Ang):
   XX=            -30.1447   YY=            -29.1961   ZZ=            -27.2930
   XY=             -0.0863   XZ=              0.5031   YZ=             -0.5417

 Normal termination of Gaussian 09 at Wed Aug 26 20:34:56 2020.
