 Gaussian 09, Revision D.01,
 Gaussian 09:  ES64L-G09RevD.01 24-Apr-2013

 --------------------
 #p B2PLYPD3/Def2QZVP
 --------------------

 ----------
 butane_opt
 ----------
 Symbolic Z-matrix:
 Charge =  0 Multiplicity = 1

                         Standard orientation:
 ---------------------------------------------------------------------
 Center     Atomic      Atomic             Coordinates (Angstroms)
 Number     Number       Type             X           Y           Z
 ---------------------------------------------------------------------
      1          6           0        2.026121   -0.134383    0.133331
      2          6           0        0.583360    0.632779   -0.136197
      3          1           0        2.556390    0.059223    0.144014
      4          1           0        2.533388   -0.509424   -0.654942
      5          1           0        2.023307   -0.961382    1.079122
      6          6           0       -0.647120   -0.476437   -0.315057
      7          1           0        0.606396    1.203734   -0.910553
      8          1           0        0.215521    1.160575    0.937275
      9          6           0       -1.937877    0.080451    0.195266
     10          1           0       -0.262496   -1.021207    0.467804
     11          1           0       -0.956583   -1.136462   -1.246464
     12          1           0       -1.712970    0.511174    1.030657
     13          1           0       -2.758882   -0.866387    0.567001
     14          1           0       -2.390982    0.945699   -0.677975
 ---------------------------------------------------------------------

 SCF Done:  E(RB2PLYPD3) =  -157.341167668     A.U. after   11 cycles
 E2(B2PLYPD3) =    -0.2520604035D+00 E(B2PLYPD3) =    -0.15759322807126D+03

 The electronic state is 1-A.
 Alpha  occ. eigenvalues --  -10.64289 -10.62372 -10.61216 -10.59564  -0.94193
 Alpha  occ. eigenvalues --   -0.88841  -0.77030  -0.66718  -0.55859  -0.50038
 Alpha  occ. eigenvalues --   -0.47613  -0.45204  -0.41943  -0.40210  -0.39437
 Alpha  occ. eigenvalues --   -0.38104  -0.34447
 Alpha virt. eigenvalues --    0.04826   0.05972   0.07926   0.08878   0.10052
 Alpha virt. eigenvalues --    0.10974   0.11834   0.13610   0.14382   0.15604
 Alpha virt. eigenvalues --    0.16490   0.17177   0.18274   0.19644   0.20656

 Mulliken charges:
               1
     1  C   -0.765965
     2  C   -0.075439
     3  H    0.658884
     4  H    0.009533
     5  H    0.058052
     6  C   -0.084731
     7  H    0.085769
     8  H    0.037813
     9  C   -0.175898
    10  H    0.074808
    11  H    0.048270
    12  H    0.073899
    13  H    0.027997
    14  H    0.027009
 Sum of Mulliken charges =   0.00000

 Dipole moment (field-independent basis, Debye):
    X=              0.7057    Y=              0.1813    Z=             -0.0239  Tot=              0.7290
 Quadrupole moment (field-independent basis, Debye-Ang):
   XX=            -28.8325   YY=            -29.7087   ZZ=            -27.8853
   XY=              0.5493   XZ=             -0.8005   YZ=             -0.8097

 Normal termination of Gaussian 09 at Wed Aug 26 14:25:53 2020.
