 Gaussian 09, Revision D.01,
 Gaussian 09:  ES64L-G09RevD.01 24-Apr-2013

 --------------------
 #p B2PLYPD3/Def2QZVP
 --------------------

 ----------
 butane_opt
 ----------
 Symbolic Z-matrix:
 Charge =  0 Multiplicity = 1

                         Standard orientation:
 ---------------------------------------------------------------------
 Center     Atomic      Atomic             Coordinates (Angstroms)
 Number     Number       Type             X           Y           Z
 ---------------------------------------------------------------------
      1          6           0        2.055443   -0.179936    0.019798
      2          6           0        0.451191    0.647495   -0.010526
      3          1           0        2.732213    0.465494   -0.928943
      4          1           0        1.820948   -0.266858   -0.540104
      5          1           0        2.859746   -1.079334    1.253485
      6          6           0       -0.607217   -0.530651   -0.098762
      7          1           0        0.399720    1.038656   -0.669219
      8          1           0        0.452186    1.420437    0.997427
      9          6           0       -1.901692    0.044787    0.057499
     10          1           0       -0.471996   -1.143266    0.774648
     11          1           0       -0.641851   -1.000959   -1.010762
     12          1           0       -2.055889    0.878802    1.111612
     13          1           0       -2.804233   -0.852371   -0.043834
     14          1           0       -2.277195    0.649231   -0.752368
 ---------------------------------------------------------------------

 SCF Done:  E(RB2PLYPD3) =  -157.251983875     A.U. after   13 cycles
 E2(B2PLYPD3) =    -0.2601273462D+00 E(B2PLYPD3) =    -0.15751211122103D+03

 The electronic state is 1-A.
 Alpha  occ. eigenvalues --  -10.63937 -10.63751 -10.62440 -10.60824  -0.94445
 Alpha  occ. eigenvalues --   -0.88274  -0.77685  -0.68171  -0.56304  -0.49037
 Alpha  occ. eigenvalues --   -0.47757  -0.45795  -0.41828  -0.39127  -0.38083
 Alpha  occ. eigenvalues --   -0.34578  -0.32255
 Alpha virt. eigenvalues --   -0.00923   0.04901   0.05630   0.07612   0.09247
 Alpha virt. eigenvalues --    0.09709   0.11030   0.12009   0.13361   0.15277
 Alpha virt. eigenvalues --    0.16179   0.16576   0.17474   0.18669   0.18986

 Mulliken charges:
               1
     1  C   -0.962592
     2  C   -0.362785
     3  H    0.001918
     4  H    0.794453
     5  H    0.102840
     6  C   -0.017642
     7  H    0.326778
     8  H    0.052943
     9  C   -0.153547
    10  H    0.069530
    11  H    0.052815
    12  H    0.029726
    13  H    0.022984
    14  H    0.042579
 Sum of Mulliken charges =   0.00000

 Dipole moment (field-independent basis, Debye):
    X=             -0.4955    Y=             -0.3867    Z=             -0.6166  Tot=              0.8805
 Quadrupole moment (field-independent basis, Debye-Ang):
   XX=            -32.7511   YY=            -29.6244   ZZ=            -27.1132
   XY=             -1.4303   XZ=              1.7044   YZ=             -0.8345

 Normal termination of Gaussian 09 at Wed Aug 26 11:20:57 2020.
