 Gaussian 09, Revision D.01,
 Gaussian 09:  ES64L-G09RevD.01 24-Apr-2013

 --------------------
 #p B2PLYPD3/Def2QZVP
 --------------------

 ----------
 butane_opt
 ----------
 Symbolic Z-matrix:
 Charge =  0 Multiplicity = 1

                         Standard orientation:
 ---------------------------------------------------------------------
 Center     Atomic      Atomic             Coordinates (Angstroms)
 Number     Number       Type             X           Y           Z
 ---------------------------------------------------------------------
      1          6           0       -1.890514    0.157671    0.002990
      2          6           0       -0.546927   -0.536399    0.013737
      3          1           0       -2.918751   -0.914529   -0.120215
      4          1           0       -1.994951    0.417885   -0.721477
      5          1           0       -2.021574    0.981675    0.917239
      6          6           0        0.524560    0.559030   -0.139228
      7          1           0       -0.781289   -0.930996   -0.498508
      8          1           0       -0.341478   -1.216727    1.048282
      9          6           0        1.955338   -0.144904    0.032220
     10          1           0        0.402200    1.282705    0.653772
     11          1           0        0.540860    1.214671   -0.975433
     12          1           0        2.038086   -0.431029    0.734128
     13          1           0        2.510248    0.527758    0.439176
     14          1           0        2.311911   -1.143797   -0.935278
 ---------------------------------------------------------------------

 SCF Done:  E(RB2PLYPD3) =  -157.435768084     A.U. after   12 cycles
 E2(B2PLYPD3) =    -0.2507886528D+00 E(B2PLYPD3) =    -0.15768655673662D+03

 The electronic state is 1-A.
 Alpha  occ. eigenvalues --  -10.61691 -10.61689 -10.58615 -10.58369  -0.95471
 Alpha  occ. eigenvalues --   -0.89580  -0.77174  -0.73403  -0.56786  -0.51588
 Alpha  occ. eigenvalues --   -0.48511  -0.46078  -0.42631  -0.40377  -0.40156
 Alpha  occ. eigenvalues --   -0.38030  -0.33919
 Alpha virt. eigenvalues --    0.04271   0.05335   0.07514   0.08239   0.09989
 Alpha virt. eigenvalues --    0.10952   0.11803   0.13406   0.14188   0.15048
 Alpha virt. eigenvalues --    0.16070   0.17234   0.18807   0.19228   0.19962

 Mulliken charges:
               1
     1  C   -0.387026
     2  C   -0.534905
     3  H   -0.023612
     4  H    0.286870
     5  H    0.057348
     6  C    0.050372
     7  H    0.486393
     8  H    0.047296
     9  C   -0.429186
    10  H    0.019898
    11  H    0.040583
    12  H    0.299016
    13  H    0.037888
    14  H    0.049064
 Sum of Mulliken charges =   0.00000

 Dipole moment (field-independent basis, Debye):
    X=              0.4808    Y=              0.4947    Z=              0.1365  Tot=              0.7033
 Quadrupole moment (field-independent basis, Debye-Ang):
   XX=            -32.5254   YY=            -28.1847   ZZ=            -27.5826
   XY=             -0.4309   XZ=              2.3410   YZ=              0.7857

 Normal termination of Gaussian 09 at Wed Aug 26 15:10:20 2020.
