 Gaussian 09, Revision D.01,
 Gaussian 09:  ES64L-G09RevD.01 24-Apr-2013

 --------------------
 #p B2PLYPD3/Def2QZVP
 --------------------

 ----------
 butane_opt
 ----------
 Symbolic Z-matrix:
 Charge =  0 Multiplicity = 1

                         Standard orientation:
 ---------------------------------------------------------------------
 Center     Atomic      Atomic             Coordinates (Angstroms)
 Number     Number       Type             X           Y           Z
 ---------------------------------------------------------------------
      1          6           0        1.978865   -0.120397    0.136582
      2          6           0        0.607594    0.605334   -0.262274
      3          1           0        2.532947    0.225551    0.879288
      4          1           0        2.629123   -0.624338   -0.666981
      5          1           0        1.720433   -0.966454    0.932123
      6          6           0       -0.577041   -0.460857   -0.238660
      7          1           0        0.326746    1.305416   -1.113499
      8          1           0        0.514812    0.932925    0.656546
      9          6           0       -1.958379    0.057824    0.213167
     10          1           0       -0.382895   -1.107163    0.517970
     11          1           0       -0.674396   -1.002767   -1.133565
     12          1           0       -1.977389    0.959923    1.274218
     13          1           0       -2.801329   -0.757520    0.079555
     14          1           0       -2.194282    0.543004   -0.518547
 ---------------------------------------------------------------------

 SCF Done:  E(RB2PLYPD3) =  -157.958288142     A.U. after   11 cycles
 E2(B2PLYPD3) =    -0.2502794829D+00 E(B2PLYPD3) =    -0.15820856762539D+03

 The electronic state is 1-A.
 Alpha  occ. eigenvalues --  -10.61349 -10.61314 -10.61185 -10.59290  -0.90988
 Alpha  occ. eigenvalues --   -0.83704  -0.74086  -0.67873  -0.55186  -0.49266
 Alpha  occ. eigenvalues --   -0.47968  -0.46456  -0.42862  -0.39818  -0.38581
 Alpha  occ. eigenvalues --   -0.37044  -0.35484
 Alpha virt. eigenvalues --    0.05294   0.06125   0.08038   0.08746   0.11034
 Alpha virt. eigenvalues --    0.11368   0.12198   0.13208   0.14339   0.14816
 Alpha virt. eigenvalues --    0.16317   0.16985   0.18168   0.19252   0.21693

 Mulliken charges:
               1
     1  C   -0.138773
     2  C   -0.156070
     3  H    0.062233
     4  H    0.046765
     5  H    0.016542
     6  C   -0.029932
     7  H    0.055144
     8  H    0.097885
     9  C   -0.214460
    10  H    0.064462
    11  H    0.031737
    12  H    0.023521
    13  H    0.040045
    14  H    0.100900
 Sum of Mulliken charges =   0.00000

 Dipole moment (field-independent basis, Debye):
    X=              0.0364    Y=             -0.0237    Z=             -0.1163  Tot=              0.1242
 Quadrupole moment (field-independent basis, Debye-Ang):
   XX=            -29.8581   YY=            -29.6681   ZZ=            -27.6721
   XY=             -0.1306   XZ=              2.1110   YZ=              0.1787

 Normal termination of Gaussian 09 at Wed Aug 26 11:13:33 2020.
