 Gaussian 09, Revision D.01,
 Gaussian 09:  ES64L-G09RevD.01 24-Apr-2013

 --------------------
 #p B2PLYPD3/Def2QZVP
 --------------------

 ----------
 butane_opt
 ----------
 Symbolic Z-matrix:
 Charge =  0 Multiplicity = 1

                         Standard orientation:
 ---------------------------------------------------------------------
 Center     Atomic      Atomic             Coordinates (Angstroms)
 Number     Number       Type             X           Y           Z
 ---------------------------------------------------------------------
      1          6           0        1.945529   -0.235889   -0.100190
      2          6           0        0.554564    0.563553    0.051787
      3          1           0        2.652979    0.447813   -0.189855
      4          1           0        1.845265   -1.347350   -0.962099
      5          1           0        2.491228   -0.418014    0.709905
      6          6           0       -0.579040   -0.296657    0.312600
      7          1           0        0.389344    1.208651   -1.007126
      8          1           0        0.476805    1.340125    0.733566
      9          6           0       -1.910396    0.090562   -0.173092
     10          1           0       -0.892551   -0.966609    1.536165
     11          1           0       -0.319109   -0.876270   -0.284270
     12          1           0       -2.426250    0.775739    0.497457
     13          1           0       -2.893545   -1.072972   -0.628163
     14          1           0       -1.388114    0.179471   -0.952206
 ---------------------------------------------------------------------

 SCF Done:  E(RB2PLYPD3) =  -157.767436632     A.U. after   11 cycles
 E2(B2PLYPD3) =    -0.2553588585D+00 E(B2PLYPD3) =    -0.15802279549008D+03

 The electronic state is 1-A.
 Alpha  occ. eigenvalues --  -10.63742 -10.62520 -10.62303 -10.60756  -0.96982
 Alpha  occ. eigenvalues --   -0.85846  -0.76445  -0.67523  -0.56988  -0.52805
 Alpha  occ. eigenvalues --   -0.47725  -0.45290  -0.43960  -0.40869  -0.38355
 Alpha  occ. eigenvalues --   -0.35084  -0.31860
 Alpha virt. eigenvalues --    0.03586   0.04749   0.05723   0.07509   0.08947
 Alpha virt. eigenvalues --    0.11251   0.11604   0.12532   0.14369   0.14917
 Alpha virt. eigenvalues --    0.15297   0.16314   0.18587   0.18886   0.20728

 Mulliken charges:
               1
     1  C   -0.147827
     2  C   -0.024476
     3  H    0.055414
     4  H    0.045022
     5  H    0.049326
     6  C   -0.190061
     7  H    0.009592
     8  H    0.045268
     9  C   -0.169426
    10  H   -0.011190
    11  H    0.196989
    12  H    0.081839
    13  H   -0.023097
    14  H    0.082626
 Sum of Mulliken charges =   0.00000

 Dipole moment (field-independent basis, Debye):
    X=              1.1726    Y=              0.7451    Z=              0.0387  Tot=              1.3899
 Quadrupole moment (field-independent basis, Debye-Ang):
   XX=            -30.1631   YY=            -29.7823   ZZ=            -30.1528
   XY=             -0.3458   XZ=             -0.3064   YZ=              1.6814

 Normal termination of Gaussian 09 at Wed Aug 26 21:38:32 2020.
