 Gaussian 09, Revision D.01,
 Gaussian 09:  ES64L-G09RevD.01 24-Apr-2013

 --------------------
 #p B2PLYPD3/Def2QZVP
 --------------------

 ----------
 butane_opt
 ----------
 Symbolic Z-matrix:
 Charge =  0 Multiplicity = 1

                         Standard orientation:
 ---------------------------------------------------------------------
 Center     Atomic      Atomic             Coordinates (Angstroms)
 Number     Number       Type             X           Y           Z
 ---------------------------------------------------------------------
      1          6           0        1.873529   -0.096784   -0.040217
      2          6           0        0.558550    0.513896    0.000833
      3          1           0        2.676630    0.665890    0.071635
      4          1           0        2.108884   -0.916126   -1.044812
      5          1           0        1.966912   -0.644481    0.836771
      6          6           0       -0.484757   -0.574034    0.081212
      7          1           0        0.310480    1.110347   -0.904155
      8          1           0        0.623194    1.143369    0.809137
      9          6           0       -1.938075    0.089533   -0.121243
     10          1           0       -0.642858   -1.322318    1.314058
     11          1           0       -0.397802   -0.698805   -0.410432
     12          1           0       -2.390267    1.246773    1.069792
     13          1           0       -2.709202   -0.596334   -0.568559
     14          1           0       -1.601450    0.416018   -0.696946
 ---------------------------------------------------------------------

 SCF Done:  E(RB2PLYPD3) =  -156.917582482     A.U. after   12 cycles
 E2(B2PLYPD3) =    -0.2550014512D+00 E(B2PLYPD3) =    -0.15717258393266D+03

 The electronic state is 1-A.
 Alpha  occ. eigenvalues --  -10.64547 -10.61944 -10.61596 -10.60558  -0.99696
 Alpha  occ. eigenvalues --   -0.87408  -0.78262  -0.69198  -0.55933  -0.51422
 Alpha  occ. eigenvalues --   -0.50083  -0.48553  -0.43521  -0.39050  -0.38731
 Alpha  occ. eigenvalues --   -0.36327  -0.34425
 Alpha virt. eigenvalues --    0.01834   0.05557   0.05850   0.08374   0.09076
 Alpha virt. eigenvalues --    0.10532   0.11667   0.12698   0.13685   0.15090
 Alpha virt. eigenvalues --    0.15740   0.16896   0.17544   0.19393   0.20620

 Mulliken charges:
               1
     1  C   -0.148231
     2  C    0.040288
     3  H    0.043966
     4  H    0.010660
     5  H    0.068361
     6  C   -1.133599
     7  H    0.022054
     8  H    0.057586
     9  C   -0.502264
    10  H    0.047270
    11  H    0.995508
    12  H   -0.006040
    13  H    0.082152
    14  H    0.422289
 Sum of Mulliken charges =   0.00000

 Dipole moment (field-independent basis, Debye):
    X=              0.4695    Y=              0.0499    Z=             -0.3365  Tot=              0.5798
 Quadrupole moment (field-independent basis, Debye-Ang):
   XX=            -31.1299   YY=            -29.6321   ZZ=            -27.6611
   XY=              1.7718   XZ=              1.7209   YZ=              0.4412

 Normal termination of Gaussian 09 at Wed Aug 26 14:25:45 2020.
