 Gaussian 09, Revision D.01,
 Gaussian 09:  ES64L-G09RevD.01 24-Apr-2013

 --------------------
 #p B2PLYPD3/Def2QZVP
 --------------------

 ----------
 butane_opt
 ----------
 Symbolic Z-matrix:
 Charge =  0 Multiplicity = 1

                         Standard orientation:
 ---------------------------------------------------------------------
 Center     Atomic      Atomic             Coordinates (Angstroms)
 Number     Number       Type             X           Y           Z
 ---------------------------------------------------------------------
      1          6           0       -1.975905   -0.180567   -0.133169
      2          6           0       -0.444169    0.618166    0.124838
      3          1           0       -2.647139    0.591375   -0.214598
      4          1           0       -2.355405   -0.600645    0.709988
      5          1           0       -2.029501   -0.932404   -1.024362
      6          6           0        0.611374   -0.491429    0.219726
      7          1           0       -0.397406    1.507741    1.050525
      8          1           0       -0.120689    0.976153   -0.665372
      9          6           0        1.807660    0.053907   -0.230812
     10          1           0        0.090044   -0.908931   -0.218421
     11          1           0        0.729695   -1.248429    1.265165
     12          1           0        1.606603    0.659804   -1.144932
     13          1           0        2.717071   -0.849204   -0.379345
     14          1           0        2.412964    0.804079    0.737847
 ---------------------------------------------------------------------

 SCF Done:  E(RB2PLYPD3) =  -157.843527900     A.U. after   11 cycles
 E2(B2PLYPD3) =    -0.2522115192D+00 E(B2PLYPD3) =    -0.15809573941922D+03

 The electronic state is 1-A.
 Alpha  occ. eigenvalues --  -10.64326 -10.62734 -10.60916 -10.58478  -0.95681
 Alpha  occ. eigenvalues --   -0.81959  -0.74218  -0.69919  -0.54490  -0.49570
 Alpha  occ. eigenvalues --   -0.48126  -0.47041  -0.43548  -0.41045  -0.39785
 Alpha  occ. eigenvalues --   -0.36745  -0.33210
 Alpha virt. eigenvalues --    0.04657   0.06395   0.07598   0.08383   0.09842
 Alpha virt. eigenvalues --    0.11188   0.12716   0.13573   0.14576   0.15229
 Alpha virt. eigenvalues --    0.15711   0.16131   0.18856   0.18902   0.20687

 Mulliken charges:
               1
     1  C   -0.164816
     2  C   -0.144249
     3  H    0.055131
     4  H    0.054306
     5  H    0.046773
     6  C   -0.265035
     7  H    0.023474
     8  H    0.121009
     9  C   -0.138405
    10  H    0.273654
    11  H    0.013883
    12  H    0.067993
    13  H    0.027537
    14  H    0.028746
 Sum of Mulliken charges =   0.00000

 Dipole moment (field-independent basis, Debye):
    X=             -0.5479    Y=             -0.0824    Z=             -0.3933  Tot=              0.6795
 Quadrupole moment (field-independent basis, Debye-Ang):
   XX=            -30.0069   YY=            -29.3674   ZZ=            -28.8862
   XY=              0.2136   XZ=              0.0138   YZ=              0.0372

 Normal termination of Gaussian 09 at Wed Aug 26 22:10:20 2020.
