 Gaussian 09, Revision D.01,
 Gaussian 09:  ES64L-G09RevD.01 24-Apr-2013

 --------------------
 #p B2PLYPD3/Def2QZVP
 --------------------

 ----------
 butane_opt
 ----------
 Symbolic Z-matrix:
 Charge =  0 Multiplicity = 1

                         Standard orientation:
 ---------------------------------------------------------------------
 Center     Atomic      Atomic             Coordinates (Angstroms)
 Number     Number       Type             X           Y           Z
 ---------------------------------------------------------------------
      1          6           0       -1.905143    0.047643    0.147037
      2          6           0       -0.624960   -0.420962   -0.159450
      3          1           0       -2.624701   -0.623923   -0.437173
      4          1           0       -2.050131    0.188607   -0.366855
      5          1           0       -2.053575    1.205872    1.390232
      6          6           0        0.560402    0.594532   -0.159240
      7          1           0       -0.455980   -1.185470   -1.175535
      8          1           0       -0.409775   -1.268623    0.707961
      9          6           0        1.891604   -0.188789    0.100266
     10          1           0        0.339496    1.164472    0.570384
     11          1           0        0.580684    1.386361   -1.132293
     12          1           0        2.000630   -1.195961    1.162324
     13          1           0        2.732829    0.444530    0.088521
     14          1           0        2.409107   -0.310410   -0.379249
 ---------------------------------------------------------------------

 SCF Done:  E(RB2PLYPD3) =  -156.901817774     A.U. after   13 cycles
 E2(B2PLYPD3) =    -0.2593717378D+00 E(B2PLYPD3) =    -0.15716118951144D+03

 The electronic state is 1-A.
 Alpha  occ. eigenvalues --  -10.63540 -10.62420 -10.62250 -10.59761  -0.99161
 Alpha  occ. eigenvalues --   -0.92730  -0.82587  -0.68633  -0.54684  -0.51147
 Alpha  occ. eigenvalues --   -0.46713  -0.44544  -0.42051  -0.39123  -0.36915
 Alpha  occ. eigenvalues --   -0.33932  -0.33145
 Alpha virt. eigenvalues --    0.00015   0.04836   0.05247   0.06666   0.09778
 Alpha virt. eigenvalues --    0.10304   0.12087   0.12606   0.14086   0.15087
 Alpha virt. eigenvalues --    0.15446   0.17237   0.17753   0.19704   0.22123

 Mulliken charges:
               1
     1  C   -0.874633
     2  C   -0.002253
     3  H    0.038797
     4  H    0.755788
     5  H    0.051608
     6  C   -0.024804
     7  H    0.004776
     8  H    0.020735
     9  C   -0.543081
    10  H    0.093835
    11  H    0.000325
    12  H    0.040507
    13  H    0.033670
    14  H    0.404731
 Sum of Mulliken charges =   0.00000

 Dipole moment (field-independent basis, Debye):
    X=              0.2781    Y=              0.6131    Z=             -0.9156  Tot=              1.1365
 Quadrupole moment (field-independent basis, Debye-Ang):
   XX=            -28.1073   YY=            -29.5470   ZZ=            -28.7504
   XY=             -0.2616   XZ=              0.4362   YZ=              0.4060

 Normal termination of Gaussian 09 at Wed Aug 26 23:12:08 2020.
