 Gaussian 09, Revision D.01,
 Gaussian 09:  ES64L-G09RevD.01 24-Apr-2013

 --------------------
 #p B2PLYPD3/Def2QZVP
 --------------------

 ----------
 butane_opt
 ----------
 Symbolic Z-matrix:
 Charge =  0 Multiplicity = 1

                         Standard orientation:
 ---------------------------------------------------------------------
 Center     Atomic      Atomic             Coordinates (Angstroms)
 Number     Number       Type             X           Y           Z
 ---------------------------------------------------------------------
      1          6           0       -1.986877    0.162573   -0.113750
      2          6           0       -0.556248   -0.534302    0.097959
      3          1           0       -2.644513   -0.564155    0.049190
      4          1           0       -2.191577    0.787680   -0.999113
      5          1           0       -2.094927    0.685507    0.729863
      6          6           0        0.636958    0.408910    0.015160
      7          1           0       -0.042178   -0.906490   -0.528360
      8          1           0       -0.462186   -1.330237    1.173391
      9          6           0        1.836424   -0.105241   -0.093289
     10          1           0        0.606489    1.366192    1.132677
     11          1           0        0.586608    0.948001   -0.761008
     12          1           0        1.960284   -0.452335    0.534306
     13          1           0        2.690357    0.770233    0.272026
     14          1           0        2.010103   -0.896024   -1.039457
 ---------------------------------------------------------------------

 SCF Done:  E(RB2PLYPD3) =  -157.684062417     A.U. after   11 cycles
 E2(B2PLYPD3) =    -0.2512453761D+00 E(B2PLYPD3) =    -0.15793530779300D+03

 The electronic state is 1-A.
 Alpha  occ. eigenvalues --  -10.61537 -10.60998 -10.59308 -10.58208  -0.98421
 Alpha  occ. eigenvalues --   -0.86597  -0.78341  -0.69752  -0.54900  -0.51097
 Alpha  occ. eigenvalues --   -0.50328  -0.48465  -0.44329  -0.42653  -0.40016
 Alpha  occ. eigenvalues --   -0.37056  -0.31362
 Alpha virt. eigenvalues --    0.04368   0.06085   0.06871   0.07759   0.10470
 Alpha virt. eigenvalues --    0.12069   0.12763   0.13500   0.14843   0.15272
 Alpha virt. eigenvalues --    0.15539   0.16331   0.18550   0.19298   0.21688

 Mulliken charges:
               1
     1  C   -0.128211
     2  C   -0.158964
     3  H    0.056866
     4  H    0.050793
     5  H    0.066488
     6  C   -0.020794
     7  H    0.131877
     8  H    0.006645
     9  C   -0.508747
    10  H   -0.068756
    11  H    0.091231
    12  H    0.376143
    13  H    0.055335
    14  H    0.050092
 Sum of Mulliken charges =   0.00000

 Dipole moment (field-independent basis, Debye):
    X=             -0.1243    Y=             -0.3353    Z=             -0.3349  Tot=              0.4899
 Quadrupole moment (field-independent basis, Debye-Ang):
   XX=            -28.5761   YY=            -30.0075   ZZ=            -28.3531
   XY=             -0.8173   XZ=              0.2190   YZ=             -0.7247

 Normal termination of Gaussian 09 at Wed Aug 26 11:41:33 2020.
