 Gaussian 09, Revision D.01,
 Gaussian 09:  ES64L-G09RevD.01 24-Apr-2013

 --------------------
 #p B2PLYPD3/Def2QZVP
 --------------------

 ----------
 butane_opt
 ----------
 Symbolic Z-matrix:
 Charge =  0 Multiplicity = 1

                         Standard orientation:
 ---------------------------------------------------------------------
 Center     Atomic      Atomic             Coordinates (Angstroms)
 Number     Number       Type             X           Y           Z
 ---------------------------------------------------------------------
      1          6           0       -1.899190    0.050101   -0.183702
      2          6           0       -0.654707   -0.379513    0.362059
      3          1           0       -2.733110   -0.999297   -0.812047
      4          1           0       -1.601095    0.454433   -1.056376
      5          1           0       -2.529855    0.922517    0.522941
      6          6           0        0.561311    0.591818   -0.011490
      7          1           0       -0.581245   -0.906957   -0.314893
      8          1           0       -0.714812   -1.024815    1.652205
      9          6           0        2.025587   -0.188432   -0.097375
     10          1           0        0.361687    1.640422    0.747828
     11          1           0        0.249463    0.576697   -0.617205
     12          1           0        2.455873   -0.478167    0.769379
     13          1           0        2.709343    0.494323   -0.351543
     14          1           0        2.185747   -1.123001   -0.957242
 ---------------------------------------------------------------------

 SCF Done:  E(RB2PLYPD3) =  -157.573746074     A.U. after   11 cycles
 E2(B2PLYPD3) =    -0.2540429782D+00 E(B2PLYPD3) =    -0.15782778905218D+03

 The electronic state is 1-A.
 Alpha  occ. eigenvalues --  -10.64712 -10.61775 -10.61746 -10.61223  -0.97763
 Alpha  occ. eigenvalues --   -0.85073  -0.77448  -0.67128  -0.55268  -0.49184
 Alpha  occ. eigenvalues --   -0.47774  -0.46764  -0.43450  -0.41026  -0.39597
 Alpha  occ. eigenvalues --   -0.37242  -0.33134
 Alpha virt. eigenvalues --    0.03543   0.05864   0.06591   0.07838   0.09947
 Alpha virt. eigenvalues --    0.10750   0.11763   0.13331   0.14083   0.14606
 Alpha virt. eigenvalues --    0.15149   0.17123   0.17722   0.18757   0.19964

 Mulliken charges:
               1
     1  C   -0.172151
     2  C   -0.229153
     3  H    0.017116
     4  H    0.073784
     5  H    0.033804
     6  C   -0.656006
     7  H    0.246503
     8  H    0.005805
     9  C   -0.104703
    10  H    0.065615
    11  H    0.576939
    12  H    0.058220
    13  H    0.060919
    14  H    0.023309
 Sum of Mulliken charges =   0.00000

 Dipole moment (field-independent basis, Debye):
    X=              0.7203    Y=              0.2619    Z=             -0.5788  Tot=              0.9605
 Quadrupole moment (field-independent basis, Debye-Ang):
   XX=            -30.0779   YY=            -29.8674   ZZ=            -28.6755
   XY=             -0.4932   XZ=              0.6578   YZ=              1.2816

 Normal termination of Gaussian 09 at Wed Aug 26 10:27:26 2020.
