 Gaussian 09, Revision D.01,
 Gaussian 09:  ES64L-G09RevD.01 24-Apr-2013

 --------------------
 #p B2PLYPD3/Def2QZVP
 --------------------

 ----------
 butane_opt
 ----------
 Symbolic Z-matrix:
 Charge =  0 Multiplicity = 1

                         Standard orientation:
 ---------------------------------------------------------------------
 Center     Atomic      Atomic             Coordinates (Angstroms)
 Number     Number       Type             X           Y           Z
 ---------------------------------------------------------------------
      1          6           0        1.895954   -0.131868    0.162902
      2          6           0        0.608696    0.563434   -0.294034
      3          1           0        2.607240    0.568354    0.782166
      4          1           0        2.496518   -0.898218   -0.761408
      5          1           0        1.768902   -0.607260    0.971266
      6          6           0       -0.539449   -0.513323   -0.089097
      7          1           0        0.485940    1.106925   -1.148646
      8          1           0        0.359291    1.085806    0.424137
      9          6           0       -1.924032    0.134524    0.089356
     10          1           0       -0.541413   -1.216696    0.693043
     11          1           0       -0.373076   -1.047271   -0.874198
     12          1           0       -2.050887    1.204900    1.148645
     13          1           0       -2.773332   -0.950179    0.152167
     14          1           0       -2.226200    0.437031   -0.601931
 ---------------------------------------------------------------------

 SCF Done:  E(RB2PLYPD3) =  -157.819405956     A.U. after   11 cycles
 E2(B2PLYPD3) =    -0.2508624591D+00 E(B2PLYPD3) =    -0.15807026841490D+03

 The electronic state is 1-A.
 Alpha  occ. eigenvalues --  -10.63424 -10.61803 -10.59145 -10.58674  -0.92659
 Alpha  occ. eigenvalues --   -0.84297  -0.74851  -0.70947  -0.56433  -0.50205
 Alpha  occ. eigenvalues --   -0.48574  -0.45712  -0.42932  -0.39864  -0.39299
 Alpha  occ. eigenvalues --   -0.38387  -0.33258
 Alpha virt. eigenvalues --    0.03650   0.05603   0.07584   0.08418   0.09994
 Alpha virt. eigenvalues --    0.11096   0.12292   0.12652   0.14059   0.15347
 Alpha virt. eigenvalues --    0.15849   0.16209   0.18661   0.18980   0.20919

 Mulliken charges:
               1
     1  C   -0.171223
     2  C   -0.118643
     3  H    0.021320
     4  H    0.029092
     5  H    0.091664
     6  C   -0.022932
     7  H    0.053186
     8  H    0.103646
     9  C   -0.324222
    10  H    0.040858
    11  H    0.051808
    12  H    0.021205
    13  H    0.009993
    14  H    0.214249
 Sum of Mulliken charges =   0.00000

 Dipole moment (field-independent basis, Debye):
    X=              0.0363    Y=              0.0426    Z=             -0.2099  Tot=              0.2172
 Quadrupole moment (field-independent basis, Debye-Ang):
   XX=            -32.5294   YY=            -28.6742   ZZ=            -27.8440
   XY=             -0.3482   XZ=              1.7482   YZ=              0.1404

 Normal termination of Gaussian 09 at Wed Aug 26 14:00:54 2020.
