 Gaussian 09, Revision D.01,
 Gaussian 09:  ES64L-G09RevD.01 24-Apr-2013

 --------------------
 #p B2PLYPD3/Def2QZVP
 --------------------

 ----------
 butane_opt
 ----------
 Symbolic Z-matrix:
 Charge =  0 Multiplicity = 1

                         Standard orientation:
 ---------------------------------------------------------------------
 Center     Atomic      Atomic             Coordinates (Angstroms)
 Number     Number       Type             X           Y           Z
 ---------------------------------------------------------------------
      1          6           0        1.937753   -0.089110   -0.137596
      2          6           0        0.548260    0.467790    0.111120
      3          1           0        2.836399    0.826859   -0.139648
      4          1           0        1.627234   -0.868192   -1.169465
      5          1           0        2.159843   -0.649911    0.821606
      6          6           0       -0.577448   -0.581282    0.250392
      7          1           0        0.232102    1.278461   -0.986040
      8          1           0        0.706406    1.161707    0.934557
      9          6           0       -1.915886    0.142317   -0.178291
     10          1           0       -0.403452   -1.304779    1.145108
     11          1           0       -0.202837   -1.157467   -0.494776
     12          1           0       -2.524275    1.206926    1.049017
     13          1           0       -2.656973   -0.572272   -0.726824
     14          1           0       -1.730520    0.440370   -0.707286
 ---------------------------------------------------------------------

 SCF Done:  E(RB2PLYPD3) =  -157.536934413     A.U. after   12 cycles
 E2(B2PLYPD3) =    -0.2566251932D+00 E(B2PLYPD3) =    -0.15779355960574D+03

 The electronic state is 1-A.
 Alpha  occ. eigenvalues --  -10.65360 -10.63921 -10.63326 -10.62577  -0.93710
 Alpha  occ. eigenvalues --   -0.86241  -0.75431  -0.64714  -0.54144  -0.49216
 Alpha  occ. eigenvalues --   -0.48809  -0.45535  -0.43781  -0.38728  -0.37713
 Alpha  occ. eigenvalues --   -0.35464  -0.35286
 Alpha virt. eigenvalues --    0.01444   0.04079   0.06713   0.07346   0.09558
 Alpha virt. eigenvalues --    0.10039   0.11539   0.11603   0.14093   0.14782
 Alpha virt. eigenvalues --    0.16004   0.16222   0.18254   0.18749   0.19286

 Mulliken charges:
               1
     1  C   -0.172708
     2  C   -0.014872
     3  H    0.053980
     4  H    0.029432
     5  H    0.058492
     6  C   -0.016386
     7  H   -0.022319
     8  H    0.043113
     9  C   -0.759248
    10  H    0.038811
    11  H    0.060180
    12  H    0.006829
    13  H    0.079410
    14  H    0.615285
 Sum of Mulliken charges =   0.00000

 Dipole moment (field-independent basis, Debye):
    X=              0.4528    Y=             -0.4251    Z=             -0.0333  Tot=              0.6220
 Quadrupole moment (field-independent basis, Debye-Ang):
   XX=            -31.9784   YY=            -30.0213   ZZ=            -28.7750
   XY=              1.3794   XZ=              2.5089   YZ=              0.4831

 Normal termination of Gaussian 09 at Wed Aug 26 13:30:53 2020.
