 Gaussian 09, Revision D.01,
 Gaussian 09:  ES64L-G09RevD.01 24-Apr-2013

 --------------------
 #p B2PLYPD3/Def2QZVP
 --------------------

 ----------
 butane_opt
 ----------
 Symbolic Z-matrix:
 Charge =  0 Multiplicity = 1

                         Standard orientation:
 ---------------------------------------------------------------------
 Center     Atomic      Atomic             Coordinates (Angstroms)
 Number     Number       Type             X           Y           Z
 ---------------------------------------------------------------------
      1          6           0        2.094850   -0.218393    0.120228
      2          6           0        0.515435    0.587811   -0.046807
      3          1           0        2.944388    0.533560   -0.303599
      4          1           0        2.045969   -0.539494   -0.568864
      5          1           0        2.323579   -1.016827    0.937774
      6          6           0       -0.619349   -0.413649   -0.275601
      7          1           0        0.566904    1.491100   -0.751043
      8          1           0        0.241987    1.207900    0.984298
      9          6           0       -1.956555    0.057343    0.130327
     10          1           0       -0.455752   -1.117920    0.532180
     11          1           0       -0.732682   -1.012204   -1.216567
     12          1           0       -1.823891    0.488809    0.996549
     13          1           0       -2.759636   -0.844246    0.418443
     14          1           0       -2.557152    0.730656   -0.598052
 ---------------------------------------------------------------------

 SCF Done:  E(RB2PLYPD3) =  -157.885718905     A.U. after   11 cycles
 E2(B2PLYPD3) =    -0.2505086181D+00 E(B2PLYPD3) =    -0.15813622752313D+03

 The electronic state is 1-A.
 Alpha  occ. eigenvalues --  -10.64823 -10.61104 -10.60443 -10.59967  -0.91149
 Alpha  occ. eigenvalues --   -0.84607  -0.74364  -0.66301  -0.54025  -0.49455
 Alpha  occ. eigenvalues --   -0.47554  -0.46679  -0.42667  -0.41695  -0.38573
 Alpha  occ. eigenvalues --   -0.36316  -0.36001
 Alpha virt. eigenvalues --    0.05417   0.06054   0.07793   0.08720   0.10316
 Alpha virt. eigenvalues --    0.11053   0.12555   0.13500   0.14918   0.15261
 Alpha virt. eigenvalues --    0.15601   0.15951   0.18098   0.19300   0.20942

 Mulliken charges:
               1
     1  C   -0.499095
     2  C   -0.049425
     3  H    0.040716
     4  H    0.375006
     5  H    0.075804
     6  C   -0.053458
     7  H    0.035977
     8  H    0.005402
     9  C   -0.145972
    10  H    0.054642
    11  H    0.036728
    12  H    0.071471
    13  H    0.017364
    14  H    0.034839
 Sum of Mulliken charges =   0.00000

 Dipole moment (field-independent basis, Debye):
    X=              0.0066    Y=             -0.2988    Z=             -0.2168  Tot=              0.3692
 Quadrupole moment (field-independent basis, Debye-Ang):
   XX=            -30.2148   YY=            -28.7676   ZZ=            -28.4648
   XY=             -0.5869   XZ=             -0.7825   YZ=             -0.7858

 Normal termination of Gaussian 09 at Wed Aug 26 19:54:08 2020.
