 Gaussian 09, Revision D.01,
 Gaussian 09:  ES64L-G09RevD.01 24-Apr-2013

 --------------------
 #p B2PLYPD3/Def2QZVP
 --------------------

 ----------
 butane_opt
 ----------
 Symbolic Z-matrix:
 Charge =  0 Multiplicity = 1

                         Standard orientation:
 ---------------------------------------------------------------------
 Center     Atomic      Atomic             Coordinates (Angstroms)
 Number     Number       Type             X           Y           Z
 ---------------------------------------------------------------------
      1          6           0        1.859202    0.035154    0.170022
      2          6           0        0.582009   -0.379437   -0.279019
      3          1           0        2.863271   -1.095578    0.048579
      4          1           0        1.664028    0.735517    1.241009
      5          1           0        2.091813    0.943905   -0.560571
      6          6           0       -0.483742    0.528511    0.032717
      7          1           0        0.358113   -0.956497    0.405732
      8          1           0        0.528368   -1.238029   -1.363616
      9          6           0       -1.931546   -0.173648    0.088729
     10          1           0       -0.576349    1.630954   -0.889087
     11          1           0        0.122717    0.826977    0.843061
     12          1           0       -1.959054   -0.234204   -0.526906
     13          1           0       -2.627339    0.637258   -0.373241
     14          1           0       -2.621113   -1.313789    1.100344
 ---------------------------------------------------------------------

 SCF Done:  E(RB2PLYPD3) =  -157.308314603     A.U. after   12 cycles
 E2(B2PLYPD3) =    -0.2630865484D+00 E(B2PLYPD3) =    -0.15757140115145D+03

 The electronic state is 1-A.
 Alpha  occ. eigenvalues --  -10.66864 -10.65290 -10.62981 -10.60901  -0.98125
 Alpha  occ. eigenvalues --   -0.91203  -0.75025  -0.66040  -0.53875  -0.50232
 Alpha  occ. eigenvalues --   -0.47434  -0.44001  -0.40145  -0.39172  -0.37763
 Alpha  occ. eigenvalues --   -0.36559  -0.33803
 Alpha virt. eigenvalues --    0.00526   0.03138   0.04888   0.05739   0.09132
 Alpha virt. eigenvalues --    0.10409   0.10961   0.12452   0.14067   0.14237
 Alpha virt. eigenvalues --    0.14728   0.16284   0.17130   0.19143   0.19222

 Mulliken charges:
               1
     1  C   -0.181574
     2  C   -0.100858
     3  H    0.048460
     4  H    0.032193
     5  H    0.053197
     6  C   -0.027487
     7  H    0.154507
     8  H   -0.001126
     9  C   -0.846719
    10  H   -0.029983
    11  H    0.081500
    12  H    0.691429
    13  H    0.051894
    14  H    0.074567
 Sum of Mulliken charges =   0.00000

 Dipole moment (field-independent basis, Debye):
    X=             -0.1897    Y=             -0.3886    Z=             -0.0283  Tot=              0.4334
 Quadrupole moment (field-independent basis, Debye-Ang):
   XX=            -31.2048   YY=            -29.8688   ZZ=            -29.6526
   XY=              0.6335   XZ=              0.9619   YZ=             -0.9080

 Normal termination of Gaussian 09 at Wed Aug 26 15:58:10 2020.
