 Gaussian 09, Revision D.01,
 Gaussian 09:  ES64L-G09RevD.01 24-Apr-2013

 --------------------
 #p B2PLYPD3/Def2QZVP
 --------------------

 ----------
 butane_opt
 ----------
 Symbolic Z-matrix:
 Charge =  0 Multiplicity = 1

                         Standard orientation:
 ---------------------------------------------------------------------
 Center     Atomic      Atomic             Coordinates (Angstroms)
 Number     Number       Type             X           Y           Z
 ---------------------------------------------------------------------
      1          6           0       -1.855527    0.075144    0.099820
      2          6           0       -0.581668   -0.496970   -0.048396
      3          1           0       -2.702675   -0.760703   -0.227029
      4          1           0       -2.030207    0.649171   -0.761141
      5          1           0       -2.179743    0.853392    1.058413
      6          6           0        0.536405    0.572877   -0.044594
      7          1           0       -0.451865   -1.287162   -1.129805
      8          1           0       -0.490674   -0.856527    0.664751
      9          6           0        1.929445   -0.159155    0.066597
     10          1           0        0.318223    1.176067    0.755020
     11          1           0        0.447870    1.199053   -0.947381
     12          1           0        2.339087   -1.069681    1.120588
     13          1           0        2.756560    0.585899   -0.410868
     14          1           0        1.821492   -0.440891   -0.563111
 ---------------------------------------------------------------------

 SCF Done:  E(RB2PLYPD3) =  -157.640932225     A.U. after   11 cycles
 E2(B2PLYPD3) =    -0.2516107747D+00 E(B2PLYPD3) =    -0.15789254299931D+03

 The electronic state is 1-A.
 Alpha  occ. eigenvalues --  -10.61846 -10.60798 -10.60460 -10.59127  -0.95041
 Alpha  occ. eigenvalues --   -0.87769  -0.74294  -0.69449  -0.54841  -0.48735
 Alpha  occ. eigenvalues --   -0.47914  -0.47289  -0.42544  -0.40088  -0.39386
 Alpha  occ. eigenvalues --   -0.38181  -0.34810
 Alpha virt. eigenvalues --    0.04877   0.05438   0.06462   0.07874   0.10689
 Alpha virt. eigenvalues --    0.11293   0.12063   0.12357   0.14383   0.15362
 Alpha virt. eigenvalues --    0.16185   0.16216   0.18417   0.19085   0.20964

 Mulliken charges:
               1
     1  C   -0.153873
     2  C   -0.276167
     3  H    0.034781
     4  H    0.041488
     5  H    0.041308
     6  C    0.006477
     7  H    0.011350
     8  H    0.273916
     9  C   -0.692906
    10  H    0.047478
    11  H    0.033326
    12  H    0.059900
    13  H    0.048907
    14  H    0.524015
 Sum of Mulliken charges =   0.00000

 Dipole moment (field-independent basis, Debye):
    X=             -0.1664    Y=              0.0931    Z=             -0.2839  Tot=              0.3420
 Quadrupole moment (field-independent basis, Debye-Ang):
   XX=            -31.2153   YY=            -29.1314   ZZ=            -27.7075
   XY=             -0.7208   XZ=             -0.3332   YZ=             -0.2952

 Normal termination of Gaussian 09 at Wed Aug 26 22:31:20 2020.
