 Gaussian 09, Revision D.01,
 Gaussian 09:  ES64L-G09RevD.01 24-Apr-2013

 --------------------
 #p B2PLYPD3/Def2QZVP
 --------------------

 ----------
 butane_opt
 ----------
 Symbolic Z-matrix:
 Charge =  0 Multiplicity = 1

                         Standard orientation:
 ---------------------------------------------------------------------
 Center     Atomic      Atomic             Coordinates (Angstroms)
 Number     Number       Type             X           Y           Z
 ---------------------------------------------------------------------
      1          6           0        1.971009    0.102281   -0.130582
      2          6           0        0.631382   -0.473503    0.150932
      3          1           0        2.750534   -0.727374   -0.439787
      4          1           0        2.303030    0.842556    0.878263
      5          1           0        1.859081    0.579368   -0.932769
      6          6           0       -0.569819    0.536898    0.110191
      7          1           0        0.643136   -1.214942    1.193096
      8          1           0        0.261098   -1.012263   -0.643075
      9          6           0       -1.968038   -0.138215   -0.083178
     10          1           0       -0.451932    1.211788   -0.880873
     11          1           0       -0.594581    1.252616    0.931814
     12          1           0       -2.147394   -0.941020   -1.017434
     13          1           0       -2.736706    0.572677   -0.182052
     14          1           0       -2.273465   -0.728171    0.808639
 ---------------------------------------------------------------------

 SCF Done:  E(RB2PLYPD3) =  -158.032438943     A.U. after   11 cycles
 E2(B2PLYPD3) =    -0.2492565503D+00 E(B2PLYPD3) =    -0.15828169549355D+03

 The electronic state is 1-A.
 Alpha  occ. eigenvalues --  -10.62878 -10.61830 -10.61697 -10.61173  -0.90915
 Alpha  occ. eigenvalues --   -0.83232  -0.72547  -0.65509  -0.53924  -0.48836
 Alpha  occ. eigenvalues --   -0.48389  -0.46293  -0.42157  -0.40737  -0.39198
 Alpha  occ. eigenvalues --   -0.36737  -0.36509
 Alpha virt. eigenvalues --    0.05407   0.06301   0.07621   0.08501   0.10666
 Alpha virt. eigenvalues --    0.11336   0.12490   0.13032   0.14271   0.14789
 Alpha virt. eigenvalues --    0.15615   0.16367   0.19239   0.19665   0.21172

 Mulliken charges:
               1
     1  C   -0.173925
     2  C   -0.055455
     3  H    0.042097
     4  H    0.034003
     5  H    0.085251
     6  C   -0.032902
     7  H    0.010169
     8  H    0.063743
     9  C   -0.134081
    10  H    0.005485
    11  H    0.041064
    12  H    0.017205
    13  H    0.056295
    14  H    0.041051
 Sum of Mulliken charges =   0.00000

 Dipole moment (field-independent basis, Debye):
    X=             -0.2378    Y=              0.1389    Z=             -0.2480  Tot=              0.3705
 Quadrupole moment (field-independent basis, Debye-Ang):
   XX=            -29.9130   YY=            -29.6260   ZZ=            -28.4868
   XY=             -0.5031   XZ=             -0.5422   YZ=              0.4682

 Normal termination of Gaussian 09 at Wed Aug 26 22:49:08 2020.
