 Gaussian 09, Revision D.01,
 Gaussian 09:  ES64L-G09RevD.01 24-Apr-2013

 --------------------
 #p B2PLYPD3/Def2QZVP
 --------------------

 ----------
 butane_opt
 ----------
 Symbolic Z-matrix:
 Charge =  0 Multiplicity = 1

                         Standard orientation:
 ---------------------------------------------------------------------
 Center     Atomic      Atomic             Coordinates (Angstroms)
 Number     Number       Type             X           Y           Z
 ---------------------------------------------------------------------
      1          6           0        1.987773   -0.143765   -0.226399
      2          6           0        0.577464    0.516886    0.401552
      3          1           0        2.822471    0.743502   -0.923049
      4          1           0        1.605733   -0.440588   -0.903384
      5          1           0        2.385001   -1.018060    0.737340
      6          6           0       -0.574936   -0.602803    0.150275
      7          1           0        0.586802    1.209362   -0.485418
      8          1           0        0.664844    1.302980    1.468345
      9          6           0       -1.952247    0.143386   -0.170363
     10          1           0       -0.721853   -1.259937    0.954517
     11          1           0       -0.327046   -1.185918   -0.883117
     12          1           0       -2.427813    0.499562    0.534848
     13          1           0       -2.748999   -0.409633   -0.262583
     14          1           0       -2.067464    1.076505   -1.167878
 ---------------------------------------------------------------------

 SCF Done:  E(RB2PLYPD3) =  -157.808635846     A.U. after   11 cycles
 E2(B2PLYPD3) =    -0.2550663314D+00 E(B2PLYPD3) =    -0.15806370217726D+03

 The electronic state is 1-A.
 Alpha  occ. eigenvalues --  -10.65080 -10.64645 -10.63542 -10.59875  -0.89598
 Alpha  occ. eigenvalues --   -0.84406  -0.74868  -0.66221  -0.52619  -0.47550
 Alpha  occ. eigenvalues --   -0.46771  -0.46310  -0.41236  -0.39825  -0.38598
 Alpha  occ. eigenvalues --   -0.37237  -0.33677
 Alpha virt. eigenvalues --    0.04097   0.05536   0.06822   0.07866   0.09815
 Alpha virt. eigenvalues --    0.10378   0.11509   0.13078   0.13663   0.14945
 Alpha virt. eigenvalues --    0.15938   0.16959   0.17509   0.19126   0.19987

 Mulliken charges:
               1
     1  C   -0.344434
     2  C   -0.103121
     3  H    0.021408
     4  H    0.253601
     5  H    0.046113
     6  C   -0.047981
     7  H    0.058519
     8  H    0.047281
     9  C   -0.140043
    10  H    0.060572
    11  H    0.035427
    12  H    0.057542
    13  H    0.042167
    14  H    0.012947
 Sum of Mulliken charges =   0.00000

 Dipole moment (field-independent basis, Debye):
    X=             -0.8805    Y=             -0.3398    Z=              0.0992  Tot=              0.9490
 Quadrupole moment (field-independent basis, Debye-Ang):
   XX=            -30.9494   YY=            -29.7572   ZZ=            -28.3273
   XY=              0.8526   XZ=             -1.4495   YZ=             -0.8474

 Normal termination of Gaussian 09 at Wed Aug 26 19:28:58 2020.
