 Gaussian 09, Revision D.01,
 Gaussian 09:  ES64L-G09RevD.01 24-Apr-2013

 --------------------
 #p B2PLYPD3/Def2QZVP
 --------------------

 ----------
 butane_opt
 ----------
 Symbolic Z-matrix:
 Charge =  0 Multiplicity = 1

                         Standard orientation:
 ---------------------------------------------------------------------
 Center     Atomic      Atomic             Coordinates (Angstroms)
 Number     Number       Type             X           Y           Z
 ---------------------------------------------------------------------
      1          6           0       -1.958357   -0.015343   -0.002721
      2          6           0       -0.638262    0.420153   -0.013596
      3          1           0       -2.681409    0.600017   -0.319107
      4          1           0       -2.084227   -0.462174    0.896842
      5          1           0       -2.098894   -0.877699   -0.882960
      6          6           0        0.542871   -0.581526    0.205843
      7          1           0       -0.632607    0.986364    0.700941
      8          1           0       -0.341956    1.195411   -0.907006
      9          6           0        2.046427    0.143902   -0.113538
     10          1           0        0.104131   -1.176967   -0.502549
     11          1           0        0.641085   -1.064258    1.069624
     12          1           0        1.766437    0.378434   -0.854550
     13          1           0        2.748600   -0.728847   -0.714413
     14          1           0        2.622764    1.346602    1.057248
 ---------------------------------------------------------------------

 SCF Done:  E(RB2PLYPD3) =  -157.775131716     A.U. after   11 cycles
 E2(B2PLYPD3) =    -0.2541641569D+00 E(B2PLYPD3) =    -0.15802929587329D+03

 The electronic state is 1-A.
 Alpha  occ. eigenvalues --  -10.64737 -10.60564 -10.59318 -10.59059  -0.94048
 Alpha  occ. eigenvalues --   -0.85272  -0.75395  -0.68803  -0.56480  -0.54050
 Alpha  occ. eigenvalues --   -0.48333  -0.44718  -0.41793  -0.39480  -0.38837
 Alpha  occ. eigenvalues --   -0.36117  -0.34462
 Alpha virt. eigenvalues --   -0.00687   0.05803   0.07737   0.08262   0.09765
 Alpha virt. eigenvalues --    0.11035   0.11817   0.12776   0.13969   0.15365
 Alpha virt. eigenvalues --    0.16058   0.16824   0.18232   0.18956   0.19826

 Mulliken charges:
               1
     1  C   -0.123485
     2  C   -0.077612
     3  H    0.060791
     4  H    0.068803
     5  H   -0.018238
     6  C   -0.086475
     7  H    0.092533
     8  H   -0.003771
     9  C   -0.389321
    10  H    0.062435
    11  H    0.054211
    12  H    0.277676
    13  H    0.037250
    14  H    0.045203
 Sum of Mulliken charges =   0.00000

 Dipole moment (field-independent basis, Debye):
    X=             -0.6947    Y=              0.1895    Z=              0.0093  Tot=              0.7201
 Quadrupole moment (field-independent basis, Debye-Ang):
   XX=            -31.0089   YY=            -29.5206   ZZ=            -27.8964
   XY=             -0.6144   XZ=             -0.6952   YZ=              0.5209

 Normal termination of Gaussian 09 at Wed Aug 26 11:39:45 2020.
