 Gaussian 09, Revision D.01,
 Gaussian 09:  ES64L-G09RevD.01 24-Apr-2013

 --------------------
 #p B2PLYPD3/Def2QZVP
 --------------------

 ----------
 butane_opt
 ----------
 Symbolic Z-matrix:
 Charge =  0 Multiplicity = 1

                         Standard orientation:
 ---------------------------------------------------------------------
 Center     Atomic      Atomic             Coordinates (Angstroms)
 Number     Number       Type             X           Y           Z
 ---------------------------------------------------------------------
      1          6           0        2.082410   -0.136463    0.055114
      2          6           0        0.541374    0.539611    0.002468
      3          1           0        2.807480    0.626044   -0.229244
      4          1           0        1.839619   -0.363392   -0.744121
      5          1           0        2.407169   -1.100837    1.110862
      6          6           0       -0.618561   -0.506639   -0.116322
      7          1           0        0.456450    1.465914   -1.065138
      8          1           0        0.267604    0.923126    0.693072
      9          6           0       -1.978711    0.070330    0.103329
     10          1           0       -0.297410   -1.026014    0.809388
     11          1           0       -0.578475   -1.283648   -1.168855
     12          1           0       -2.191102    1.046290    1.251564
     13          1           0       -2.843465   -0.755575   -0.207463
     14          1           0       -2.026937    0.667057   -0.717602
 ---------------------------------------------------------------------

 SCF Done:  E(RB2PLYPD3) =  -157.758715873     A.U. after   11 cycles
 E2(B2PLYPD3) =    -0.2562072432D+00 E(B2PLYPD3) =    -0.15801492311607D+03

 The electronic state is 1-A.
 Alpha  occ. eigenvalues --  -10.64737 -10.64039 -10.62786 -10.62068  -0.92269
 Alpha  occ. eigenvalues --   -0.84208  -0.75470  -0.65643  -0.52828  -0.48668
 Alpha  occ. eigenvalues --   -0.46886  -0.45470  -0.42146  -0.40025  -0.37739
 Alpha  occ. eigenvalues --   -0.36987  -0.34349
 Alpha virt. eigenvalues --    0.03535   0.04696   0.05225   0.07133   0.09987
 Alpha virt. eigenvalues --    0.10885   0.11449   0.12431   0.13337   0.14876
 Alpha virt. eigenvalues --    0.15285   0.16033   0.18033   0.18461   0.19497

 Mulliken charges:
               1
     1  C   -0.297822
     2  C   -0.232198
     3  H    0.066445
     4  H    0.195897
     5  H    0.058754
     6  C   -0.034342
     7  H   -0.027599
     8  H    0.222813
     9  C   -0.178932
    10  H    0.052194
    11  H    0.018623
    12  H    0.022095
    13  H    0.053351
    14  H    0.080720
 Sum of Mulliken charges =   0.00000

 Dipole moment (field-independent basis, Debye):
    X=             -0.0674    Y=             -0.1264    Z=             -0.2524  Tot=              0.2902
 Quadrupole moment (field-independent basis, Debye-Ang):
   XX=            -30.7006   YY=            -30.3125   ZZ=            -28.7318
   XY=              0.1899   XZ=              0.9022   YZ=              0.0780

 Normal termination of Gaussian 09 at Wed Aug 26 21:37:05 2020.
