 Gaussian 09, Revision D.01,
 Gaussian 09:  ES64L-G09RevD.01 24-Apr-2013

 --------------------
 #p B2PLYPD3/Def2QZVP
 --------------------

 ----------
 butane_opt
 ----------
 Symbolic Z-matrix:
 Charge =  0 Multiplicity = 1

                         Standard orientation:
 ---------------------------------------------------------------------
 Center     Atomic      Atomic             Coordinates (Angstroms)
 Number     Number       Type             X           Y           Z
 ---------------------------------------------------------------------
      1          6           0       -2.005888    0.106107   -0.148107
      2          6           0       -0.577722   -0.502702    0.243699
      3          1           0       -2.762879   -0.673759   -0.394960
      4          1           0       -1.716732    0.512862   -0.967806
      5          1           0       -2.466894    0.905942    0.709255
      6          6           0        0.566903    0.518559    0.072812
      7          1           0       -0.365740   -1.210087   -0.613682
      8          1           0       -0.499059   -1.094428    1.167694
      9          6           0        1.977284   -0.153292   -0.098761
     10          1           0        0.599804    1.338385    0.951347
     11          1           0        0.323361    1.227924   -0.842557
     12          1           0        2.196442   -0.582072    0.723002
     13          1           0        2.795389    0.661109   -0.138265
     14          1           0        2.132847   -0.897908   -1.011887
 ---------------------------------------------------------------------

 SCF Done:  E(RB2PLYPD3) =  -158.050628927     A.U. after   11 cycles
 E2(B2PLYPD3) =    -0.2486910687D+00 E(B2PLYPD3) =    -0.15829931999613D+03

 The electronic state is 1-A.
 Alpha  occ. eigenvalues --  -10.63334 -10.61904 -10.60983 -10.60547  -0.89894
 Alpha  occ. eigenvalues --   -0.82716  -0.73065  -0.65542  -0.52912  -0.49424
 Alpha  occ. eigenvalues --   -0.47596  -0.46383  -0.42832  -0.41268  -0.38531
 Alpha  occ. eigenvalues --   -0.37686  -0.36511
 Alpha virt. eigenvalues --    0.05680   0.06624   0.07881   0.08592   0.10566
 Alpha virt. eigenvalues --    0.11583   0.12712   0.13380   0.14825   0.15007
 Alpha virt. eigenvalues --    0.16057   0.16248   0.18810   0.19865   0.21154

 Mulliken charges:
               1
     1  C   -0.180269
     2  C   -0.062543
     3  H    0.048055
     4  H    0.095289
     5  H    0.031342
     6  C   -0.025097
     7  H    0.030766
     8  H    0.043304
     9  C   -0.148873
    10  H    0.013688
    11  H    0.011421
    12  H    0.076627
    13  H    0.031492
    14  H    0.034798
 Sum of Mulliken charges =   0.00000

 Dipole moment (field-independent basis, Debye):
    X=              0.1521    Y=             -0.2011    Z=             -0.0216  Tot=              0.2531
 Quadrupole moment (field-independent basis, Debye-Ang):
   XX=            -29.7683   YY=            -29.2706   ZZ=            -28.4851
   XY=              0.2548   XZ=              0.5109   YZ=              0.2894

 Normal termination of Gaussian 09 at Wed Aug 26 13:56:10 2020.
