 Gaussian 09, Revision D.01,
 Gaussian 09:  ES64L-G09RevD.01 24-Apr-2013

 --------------------
 #p B2PLYPD3/Def2QZVP
 --------------------

 ----------
 butane_opt
 ----------
 Symbolic Z-matrix:
 Charge =  0 Multiplicity = 1

                         Standard orientation:
 ---------------------------------------------------------------------
 Center     Atomic      Atomic             Coordinates (Angstroms)
 Number     Number       Type             X           Y           Z
 ---------------------------------------------------------------------
      1          6           0        1.960036   -0.118615    0.078059
      2          6           0        0.507530    0.566303   -0.048149
      3          1           0        2.766218    0.540349    0.240445
      4          1           0        2.072519   -0.660562   -0.847398
      5          1           0        2.085461   -1.074237    0.976344
      6          6           0       -0.570375   -0.442573   -0.273237
      7          1           0        0.114816    1.285540   -0.791826
      8          1           0        0.274333    1.034309    0.865328
      9          6           0       -1.871304    0.059490    0.120734
     10          1           0       -0.427229   -0.983185    0.290284
     11          1           0       -0.477512   -0.999871   -1.170527
     12          1           0       -1.251278    0.442300    0.995576
     13          1           0       -2.772986   -1.000339    0.776509
     14          1           0       -2.539665    1.028071   -0.599180
 ---------------------------------------------------------------------

 SCF Done:  E(RB2PLYPD3) =  -157.832473520     A.U. after   11 cycles
 E2(B2PLYPD3) =    -0.2542002261D+00 E(B2PLYPD3) =    -0.15808667374596D+03

 The electronic state is 1-A.
 Alpha  occ. eigenvalues --  -10.66185 -10.63379 -10.61346 -10.56746  -0.96461
 Alpha  occ. eigenvalues --   -0.82660  -0.71886  -0.69405  -0.57286  -0.50126
 Alpha  occ. eigenvalues --   -0.48176  -0.44617  -0.42196  -0.40840  -0.39150
 Alpha  occ. eigenvalues --   -0.37746  -0.33832
 Alpha virt. eigenvalues --    0.03481   0.05341   0.07874   0.08364   0.09772
 Alpha virt. eigenvalues --    0.10149   0.12489   0.13068   0.14502   0.14554
 Alpha virt. eigenvalues --    0.15734   0.16468   0.18444   0.19568   0.20297

 Mulliken charges:
               1
     1  C   -0.160510
     2  C   -0.055841
     3  H    0.068385
     4  H    0.064024
     5  H    0.019774
     6  C   -0.304390
     7  H    0.047521
     8  H    0.049967
     9  C   -0.171470
    10  H    0.303463
    11  H    0.024926
    12  H    0.060715
    13  H    0.008211
    14  H    0.045224
 Sum of Mulliken charges =   0.00000

 Dipole moment (field-independent basis, Debye):
    X=              0.8877    Y=              0.0007    Z=             -0.0363  Tot=              0.8885
 Quadrupole moment (field-independent basis, Debye-Ang):
   XX=            -31.4672   YY=            -29.2196   ZZ=            -29.2284
   XY=             -0.4468   XZ=              0.8249   YZ=             -0.5336

 Normal termination of Gaussian 09 at Wed Aug 26 13:58:40 2020.
