 Gaussian 09, Revision D.01,
 Gaussian 09:  ES64L-G09RevD.01 24-Apr-2013

 --------------------
 #p B2PLYPD3/Def2QZVP
 --------------------

 ----------
 butane_opt
 ----------
 Symbolic Z-matrix:
 Charge =  0 Multiplicity = 1

                         Standard orientation:
 ---------------------------------------------------------------------
 Center     Atomic      Atomic             Coordinates (Angstroms)
 Number     Number       Type             X           Y           Z
 ---------------------------------------------------------------------
      1          6           0        1.956823   -0.148784   -0.111933
      2          6           0        0.585047    0.525171    0.129233
      3          1           0        2.635518    0.324961   -0.102128
      4          1           0        1.887261   -0.622965   -0.848352
      5          1           0        2.093245   -0.895164    0.804796
      6          6           0       -0.593021   -0.399014    0.037666
      7          1           0        0.529710    1.023176   -0.642862
      8          1           0        0.298626    1.382097    1.195264
      9          6           0       -1.908694    0.097746   -0.103903
     10          1           0       -0.506706   -1.264414    0.906958
     11          1           0       -0.420711   -0.971022   -0.794494
     12          1           0       -2.049752    0.464755    0.749183
     13          1           0       -2.915456   -0.835563    0.100284
     14          1           0       -1.792670    0.943430   -1.075028
 ---------------------------------------------------------------------

 SCF Done:  E(RB2PLYPD3) =  -157.826590389     A.U. after   11 cycles
 E2(B2PLYPD3) =    -0.2500836734D+00 E(B2PLYPD3) =    -0.15807667406193D+03

 The electronic state is 1-A.
 Alpha  occ. eigenvalues --  -10.62403 -10.61764 -10.60247 -10.56588  -0.94279
 Alpha  occ. eigenvalues --   -0.87472  -0.76032  -0.66705  -0.55492  -0.55182
 Alpha  occ. eigenvalues --   -0.48990  -0.48425  -0.43285  -0.40126  -0.39259
 Alpha  occ. eigenvalues --   -0.35973  -0.35177
 Alpha virt. eigenvalues --    0.04242   0.06472   0.07469   0.07540   0.09974
 Alpha virt. eigenvalues --    0.11882   0.12527   0.13791   0.14134   0.15100
 Alpha virt. eigenvalues --    0.15451   0.16666   0.18724   0.19474   0.21044

 Mulliken charges:
               1
     1  C   -0.265464
     2  C   -0.098033
     3  H    0.136313
     4  H    0.103035
     5  H    0.023255
     6  C   -0.003581
     7  H    0.102903
     8  H   -0.009413
     9  C   -0.175205
    10  H   -0.010199
    11  H    0.044642
    12  H    0.088763
    13  H    0.024218
    14  H    0.038766
 Sum of Mulliken charges =   0.00000

 Dipole moment (field-independent basis, Debye):
    X=              0.4576    Y=              0.0240    Z=             -0.4394  Tot=              0.6349
 Quadrupole moment (field-independent basis, Debye-Ang):
   XX=            -29.5154   YY=            -29.9006   ZZ=            -28.3558
   XY=              0.4627   XZ=             -1.9275   YZ=             -0.5890

 Normal termination of Gaussian 09 at Wed Aug 26 22:00:07 2020.
