 Gaussian 09, Revision D.01,
 Gaussian 09:  ES64L-G09RevD.01 24-Apr-2013

 --------------------
 #p B2PLYPD3/Def2QZVP
 --------------------

 ----------
 butane_opt
 ----------
 Symbolic Z-matrix:
 Charge =  0 Multiplicity = 1

                         Standard orientation:
 ---------------------------------------------------------------------
 Center     Atomic      Atomic             Coordinates (Angstroms)
 Number     Number       Type             X           Y           Z
 ---------------------------------------------------------------------
      1          6           0        1.957541   -0.190649   -0.212490
      2          6           0        0.548043    0.543020    0.112214
      3          1           0        2.612887    0.494506   -0.224285
      4          1           0        1.901145   -0.772112   -0.949443
      5          1           0        1.944659   -0.536296    0.716154
      6          6           0       -0.559535   -0.438488    0.271946
      7          1           0        0.235521    0.910895   -0.761557
      8          1           0        0.682235    1.474554    1.110737
      9          6           0       -1.870757    0.053608   -0.198204
     10          1           0       -0.553804   -1.238841    1.579597
     11          1           0       -0.489142   -0.953157   -0.306605
     12          1           0       -2.346738    1.026643    0.721446
     13          1           0       -2.569866   -0.633008   -0.607439
     14          1           0       -1.868651    0.421870   -1.119399
 ---------------------------------------------------------------------

 SCF Done:  E(RB2PLYPD3) =  -157.769325609     A.U. after   11 cycles
 E2(B2PLYPD3) =    -0.2513201291D+00 E(B2PLYPD3) =    -0.15802064573781D+03

 The electronic state is 1-A.
 Alpha  occ. eigenvalues --  -10.62769 -10.61984 -10.61106 -10.56196  -0.95624
 Alpha  occ. eigenvalues --   -0.86240  -0.76154  -0.69001  -0.55776  -0.53411
 Alpha  occ. eigenvalues --   -0.52213  -0.46371  -0.43923  -0.40078  -0.38619
 Alpha  occ. eigenvalues --   -0.35248  -0.34638
 Alpha virt. eigenvalues --    0.03983   0.06113   0.06955   0.08004   0.10414
 Alpha virt. eigenvalues --    0.11238   0.11799   0.13234   0.14478   0.15508
 Alpha virt. eigenvalues --    0.15897   0.16928   0.18355   0.19568   0.20536

 Mulliken charges:
               1
     1  C   -0.156384
     2  C   -0.074122
     3  H    0.057189
     4  H    0.052997
     5  H    0.070336
     6  C   -0.365183
     7  H    0.080363
     8  H    0.016003
     9  C   -0.149677
    10  H   -0.018988
    11  H    0.368255
    12  H    0.020439
    13  H    0.045099
    14  H    0.053672
 Sum of Mulliken charges =   0.00000

 Dipole moment (field-independent basis, Debye):
    X=              0.1958    Y=             -0.1273    Z=             -1.2756  Tot=              1.2968
 Quadrupole moment (field-independent basis, Debye-Ang):
   XX=            -30.2606   YY=            -30.1001   ZZ=            -27.7414
   XY=              0.9205   XZ=              1.7038   YZ=              1.3982

 Normal termination of Gaussian 09 at Wed Aug 26 14:14:23 2020.
