 Gaussian 09, Revision D.01,
 Gaussian 09:  ES64L-G09RevD.01 24-Apr-2013

 --------------------
 #p B2PLYPD3/Def2QZVP
 --------------------

 ----------
 butane_opt
 ----------
 Symbolic Z-matrix:
 Charge =  0 Multiplicity = 1

                         Standard orientation:
 ---------------------------------------------------------------------
 Center     Atomic      Atomic             Coordinates (Angstroms)
 Number     Number       Type             X           Y           Z
 ---------------------------------------------------------------------
      1          6           0        1.922842    0.185635   -0.207050
      2          6           0        0.458717   -0.559162    0.211969
      3          1           0        2.720885   -0.601924   -0.767209
      4          1           0        2.553318    1.029780    0.964679
      5          1           0        1.776776    0.491559   -0.793949
      6          6           0       -0.633538    0.406158    0.116490
      7          1           0        0.660158   -1.433027    1.334327
      8          1           0        0.185109   -0.953629   -0.579490
      9          6           0       -1.823615   -0.079324   -0.129008
     10          1           0       -0.473414    0.936578   -0.716801
     11          1           0       -0.615954    1.466392    1.203922
     12          1           0       -1.851672   -0.603621   -0.926124
     13          1           0       -2.689127    0.609645   -0.429671
     14          1           0       -1.812516   -0.661596    0.755907
 ---------------------------------------------------------------------

 SCF Done:  E(RB2PLYPD3) =  -157.532568147     A.U. after   12 cycles
 E2(B2PLYPD3) =    -0.2554001564D+00 E(B2PLYPD3) =    -0.15778796830342D+03

 The electronic state is 1-A.
 Alpha  occ. eigenvalues --  -10.63934 -10.63269 -10.62181 -10.57913  -0.98788
 Alpha  occ. eigenvalues --   -0.87949  -0.78053  -0.66660  -0.59628  -0.52925
 Alpha  occ. eigenvalues --   -0.49686  -0.46779  -0.41372  -0.40314  -0.38294
 Alpha  occ. eigenvalues --   -0.35629  -0.33058
 Alpha virt. eigenvalues --    0.03278   0.05164   0.06293   0.07021   0.08574
 Alpha virt. eigenvalues --    0.10547   0.11360   0.12615   0.13283   0.15578
 Alpha virt. eigenvalues --    0.16492   0.16887   0.17948   0.19080   0.19462

 Mulliken charges:
               1
     1  C   -0.667252
     2  C   -0.121996
     3  H    0.050656
     4  H    0.042324
     5  H    0.522144
     6  C   -0.035899
     7  H    0.030199
     8  H    0.153044
     9  C   -0.129120
    10  H    0.053447
    11  H   -0.048537
    12  H    0.046501
    13  H    0.048218
    14  H    0.056271
 Sum of Mulliken charges =   0.00000

 Dipole moment (field-independent basis, Debye):
    X=             -0.4699    Y=             -0.3977    Z=             -1.3755  Tot=              1.5070
 Quadrupole moment (field-independent basis, Debye-Ang):
   XX=            -30.7237   YY=            -30.8195   ZZ=            -27.8743
   XY=             -0.2770   XZ=              0.9787   YZ=             -0.5461

 Normal termination of Gaussian 09 at Wed Aug 26 14:39:39 2020.
