 Gaussian 09, Revision D.01,
 Gaussian 09:  ES64L-G09RevD.01 24-Apr-2013

 --------------------
 #p B2PLYPD3/Def2QZVP
 --------------------

 ----------
 butane_opt
 ----------
 Symbolic Z-matrix:
 Charge =  0 Multiplicity = 1

                         Standard orientation:
 ---------------------------------------------------------------------
 Center     Atomic      Atomic             Coordinates (Angstroms)
 Number     Number       Type             X           Y           Z
 ---------------------------------------------------------------------
      1          6           0        1.954078    0.094490    0.076650
      2          6           0        0.593448   -0.506625   -0.140170
      3          1           0        2.750805   -0.838981   -0.018125
      4          1           0        1.939081    0.708563    1.105530
      5          1           0        2.423004    0.586517   -0.727389
      6          6           0       -0.609713    0.609607    0.049849
      7          1           0        0.506721   -1.221389    0.705731
      8          1           0        0.628181   -1.024559   -0.984508
      9          6           0       -1.976628   -0.140762    0.011299
     10          1           0       -0.492330    1.355416   -0.820514
     11          1           0       -0.401824    1.429570    0.923470
     12          1           0       -1.857556   -0.376079   -0.746591
     13          1           0       -2.599426    0.308491   -0.582823
     14          1           0       -2.663758   -1.267811    1.159450
 ---------------------------------------------------------------------

 SCF Done:  E(RB2PLYPD3) =  -157.785214386     A.U. after   12 cycles
 E2(B2PLYPD3) =    -0.2544525544D+00 E(B2PLYPD3) =    -0.15803966694042D+03

 The electronic state is 1-A.
 Alpha  occ. eigenvalues --  -10.64760 -10.61699 -10.60849 -10.60517  -0.93496
 Alpha  occ. eigenvalues --   -0.87168  -0.73867  -0.67552  -0.53605  -0.50059
 Alpha  occ. eigenvalues --   -0.47557  -0.43763  -0.41304  -0.40756  -0.37826
 Alpha  occ. eigenvalues --   -0.36564  -0.34133
 Alpha virt. eigenvalues --    0.00565   0.05355   0.07096   0.08000   0.09897
 Alpha virt. eigenvalues --    0.11275   0.11792   0.12368   0.14096   0.15590
 Alpha virt. eigenvalues --    0.15966   0.17260   0.18034   0.18802   0.19858

 Mulliken charges:
               1
     1  C   -0.160986
     2  C   -0.029055
     3  H    0.016394
     4  H    0.054760
     5  H    0.045712
     6  C   -0.052965
     7  H    0.045392
     8  H    0.047331
     9  C   -0.453700
    10  H    0.020780
    11  H    0.024095
    12  H    0.323494
    13  H    0.078945
    14  H    0.039804
 Sum of Mulliken charges =   0.00000

 Dipole moment (field-independent basis, Debye):
    X=              0.0802    Y=              0.0296    Z=             -1.0287  Tot=              1.0322
 Quadrupole moment (field-independent basis, Debye-Ang):
   XX=            -31.0460   YY=            -29.3936   ZZ=            -27.8865
   XY=              0.2998   XZ=              0.6169   YZ=             -0.3079

 Normal termination of Gaussian 09 at Wed Aug 26 14:15:05 2020.
