 Gaussian 09, Revision D.01,
 Gaussian 09:  ES64L-G09RevD.01 24-Apr-2013

 --------------------
 #p B2PLYPD3/Def2QZVP
 --------------------

 ----------
 butane_opt
 ----------
 Symbolic Z-matrix:
 Charge =  0 Multiplicity = 1

                         Standard orientation:
 ---------------------------------------------------------------------
 Center     Atomic      Atomic             Coordinates (Angstroms)
 Number     Number       Type             X           Y           Z
 ---------------------------------------------------------------------
      1          6           0       -2.034456   -0.154689   -0.132071
      2          6           0       -0.553164    0.566325    0.120481
      3          1           0       -2.769083    0.561075   -0.167982
      4          1           0       -2.377709   -0.661242    0.717411
      5          1           0       -1.917109   -0.823237   -0.975504
      6          6           0        0.574555   -0.510610    0.066063
      7          1           0       -0.600451    1.539689    1.268908
      8          1           0       -0.570396    0.705535   -0.507658
      9          6           0        2.007651    0.091666   -0.056741
     10          1           0        0.407365   -1.000786   -0.722066
     11          1           0        0.448840   -1.124953    0.912894
     12          1           0        2.284735    1.403026   -1.219196
     13          1           0        2.968933   -0.884080    0.285162
     14          1           0        2.157359    0.328820    0.421640
 ---------------------------------------------------------------------

 SCF Done:  E(RB2PLYPD3) =  -156.885624751     A.U. after   12 cycles
 E2(B2PLYPD3) =    -0.2553984331D+00 E(B2PLYPD3) =    -0.15714102318435D+03

 The electronic state is 1-A.
 Alpha  occ. eigenvalues --  -10.66066 -10.61474 -10.60614 -10.59930  -0.95213
 Alpha  occ. eigenvalues --   -0.88897  -0.78693  -0.73443  -0.55257  -0.51478
 Alpha  occ. eigenvalues --   -0.47886  -0.46728  -0.43842  -0.42073  -0.36971
 Alpha  occ. eigenvalues --   -0.35934  -0.35179
 Alpha virt. eigenvalues --   -0.00280   0.04820   0.06136   0.06732   0.10043
 Alpha virt. eigenvalues --    0.10748   0.11635   0.12846   0.14223   0.14608
 Alpha virt. eigenvalues --    0.15254   0.16263   0.17622   0.19348   0.21066

 Mulliken charges:
               1
     1  C   -0.127618
     2  C   -0.890090
     3  H    0.054443
     4  H    0.042685
     5  H    0.051946
     6  C    0.069224
     7  H    0.034825
     8  H    0.761652
     9  C   -0.846635
    10  H    0.089257
    11  H    0.050131
    12  H    0.006114
    13  H    0.038574
    14  H    0.665491
 Sum of Mulliken charges =   0.00000

 Dipole moment (field-independent basis, Debye):
    X=             -0.7868    Y=             -0.3506    Z=              0.4738  Tot=              0.9830
 Quadrupole moment (field-independent basis, Debye-Ang):
   XX=            -30.7813   YY=            -29.0180   ZZ=            -28.1469
   XY=             -0.3227   XZ=              1.6005   YZ=              0.0040

 Normal termination of Gaussian 09 at Wed Aug 26 14:53:29 2020.
