 Gaussian 09, Revision D.01,
 Gaussian 09:  ES64L-G09RevD.01 24-Apr-2013

 --------------------
 #p B2PLYPD3/Def2QZVP
 --------------------

 ----------
 butane_opt
 ----------
 Symbolic Z-matrix:
 Charge =  0 Multiplicity = 1

                         Standard orientation:
 ---------------------------------------------------------------------
 Center     Atomic      Atomic             Coordinates (Angstroms)
 Number     Number       Type             X           Y           Z
 ---------------------------------------------------------------------
      1          6           0       -1.896448    0.093793    0.094856
      2          6           0       -0.581862   -0.469127   -0.122809
      3          1           0       -2.760410   -0.701864    0.016489
      4          1           0       -2.088447    0.569612   -0.687148
      5          1           0       -2.000308    0.788110    1.126258
      6          6           0        0.549374    0.575850   -0.108762
      7          1           0       -0.609288   -1.149787   -1.120058
      8          1           0       -0.208691   -1.207166    0.805434
      9          6           0        1.914504   -0.171794    0.097277
     10          1           0        0.295505    1.100494    0.724859
     11          1           0        0.551455    1.362079   -1.034781
     12          1           0        1.925567   -0.757839    0.975904
     13          1           0        2.646140    0.561655    0.159671
     14          1           0        2.335069   -0.737628   -0.730006
 ---------------------------------------------------------------------

 SCF Done:  E(RB2PLYPD3) =  -158.043667716     A.U. after   11 cycles
 E2(B2PLYPD3) =    -0.2484859866D+00 E(B2PLYPD3) =    -0.15829215370287D+03

 The electronic state is 1-A.
 Alpha  occ. eigenvalues --  -10.62703 -10.61556 -10.60140 -10.59024  -0.91682
 Alpha  occ. eigenvalues --   -0.84056  -0.73483  -0.64906  -0.53762  -0.49904
 Alpha  occ. eigenvalues --   -0.48479  -0.47444  -0.42868  -0.41365  -0.39506
 Alpha  occ. eigenvalues --   -0.36443  -0.36110
 Alpha virt. eigenvalues --    0.05642   0.06854   0.07734   0.07981   0.10587
 Alpha virt. eigenvalues --    0.12055   0.12867   0.13842   0.14693   0.15244
 Alpha virt. eigenvalues --    0.15937   0.16251   0.19158   0.19675   0.22181

 Mulliken charges:
               1
     1  C   -0.162638
     2  C   -0.034108
     3  H    0.034089
     4  H    0.085009
     5  H    0.025644
     6  C   -0.057609
     7  H    0.023822
     8  H    0.013141
     9  C   -0.126061
    10  H    0.068185
    11  H    0.010881
    12  H    0.048070
    13  H    0.035695
    14  H    0.035881
 Sum of Mulliken charges =   0.00000

 Dipole moment (field-independent basis, Debye):
    X=              0.0801    Y=              0.2081    Z=             -0.1302  Tot=              0.2582
 Quadrupole moment (field-independent basis, Debye-Ang):
   XX=            -29.2622   YY=            -29.5476   ZZ=            -28.2936
   XY=             -0.0935   XZ=              0.5571   YZ=              0.1492

 Normal termination of Gaussian 09 at Wed Aug 26 21:17:54 2020.
