 Gaussian 09, Revision D.01,
 Gaussian 09:  ES64L-G09RevD.01 24-Apr-2013

 --------------------
 #p B2PLYPD3/Def2QZVP
 --------------------

 ----------
 butane_opt
 ----------
 Symbolic Z-matrix:
 Charge =  0 Multiplicity = 1

                         Standard orientation:
 ---------------------------------------------------------------------
 Center     Atomic      Atomic             Coordinates (Angstroms)
 Number     Number       Type             X           Y           Z
 ---------------------------------------------------------------------
      1          6           0        1.830023    0.095015   -0.172566
      2          6           0        0.605857   -0.457942    0.102228
      3          1           0        2.525275   -0.653165   -0.199089
      4          1           0        2.369315    0.375430    0.638216
      5          1           0        1.695767    0.949954   -1.068861
      6          6           0       -0.480620    0.526348    0.341693
      7          1           0        0.600927   -1.321514    1.132548
      8          1           0        0.279355   -0.977422   -0.849986
      9          6           0       -1.919241   -0.139953   -0.136499
     10          1           0       -0.167952    1.123866   -0.533952
     11          1           0       -0.411782    1.120743    1.177466
     12          1           0       -1.603977   -0.670441   -1.108228
     13          1           0       -2.696116    0.640418   -0.703670
     14          1           0       -2.806930   -0.728674    0.706418
 ---------------------------------------------------------------------

 SCF Done:  E(RB2PLYPD3) =  -157.956059079     A.U. after   11 cycles
 E2(B2PLYPD3) =    -0.2534362334D+00 E(B2PLYPD3) =    -0.15820949531262D+03

 The electronic state is 1-A.
 Alpha  occ. eigenvalues --  -10.65396 -10.62242 -10.61308 -10.59213  -0.94351
 Alpha  occ. eigenvalues --   -0.83190  -0.71971  -0.65899  -0.55505  -0.51317
 Alpha  occ. eigenvalues --   -0.48935  -0.45287  -0.41694  -0.39481  -0.38297
 Alpha  occ. eigenvalues --   -0.36227  -0.34435
 Alpha virt. eigenvalues --    0.05177   0.06183   0.06630   0.08438   0.09736
 Alpha virt. eigenvalues --    0.10519   0.11861   0.13105   0.14913   0.15659
 Alpha virt. eigenvalues --    0.15787   0.16219   0.18322   0.19222   0.20659

 Mulliken charges:
               1
     1  C   -0.123071
     2  C   -0.029766
     3  H    0.048820
     4  H    0.030582
     5  H    0.039751
     6  C   -0.066530
     7  H   -0.017091
     8  H    0.057664
     9  C   -0.176570
    10  H    0.042419
    11  H    0.067061
    12  H    0.053939
    13  H    0.023535
    14  H    0.049256
 Sum of Mulliken charges =   0.00000

 Dipole moment (field-independent basis, Debye):
    X=              0.5627    Y=              0.2771    Z=             -0.0827  Tot=              0.6326
 Quadrupole moment (field-independent basis, Debye-Ang):
   XX=            -29.4285   YY=            -30.7857   ZZ=            -28.4855
   XY=             -0.2300   XZ=              0.6733   YZ=             -0.0412

 Normal termination of Gaussian 09 at Wed Aug 26 22:27:23 2020.
