 Gaussian 09, Revision D.01,
 Gaussian 09:  ES64L-G09RevD.01 24-Apr-2013

 --------------------
 #p B2PLYPD3/Def2QZVP
 --------------------

 ----------
 butane_opt
 ----------
 Symbolic Z-matrix:
 Charge =  0 Multiplicity = 1

                         Standard orientation:
 ---------------------------------------------------------------------
 Center     Atomic      Atomic             Coordinates (Angstroms)
 Number     Number       Type             X           Y           Z
 ---------------------------------------------------------------------
      1          6           0        1.975619    0.077983   -0.134047
      2          6           0        0.579419   -0.481987    0.194173
      3          1           0        2.735861   -0.714846   -0.379264
      4          1           0        2.363245    0.895685    0.773105
      5          1           0        1.706003    0.573334   -0.894990
      6          6           0       -0.540100    0.532093    0.032228
      7          1           0        0.665763   -1.070856    1.116198
      8          1           0        0.378062   -1.070117   -0.511814
      9          6           0       -1.993580   -0.133881   -0.060400
     10          1           0       -0.304578    1.132669   -0.809856
     11          1           0       -0.585995    1.253706    0.860847
     12          1           0       -2.192570   -0.933066   -0.988012
     13          1           0       -2.633178    0.497923   -0.071776
     14          1           0       -2.260763   -0.529681    0.713839
 ---------------------------------------------------------------------

 SCF Done:  E(RB2PLYPD3) =  -157.984812621     A.U. after   11 cycles
 E2(B2PLYPD3) =    -0.2459738594D+00 E(B2PLYPD3) =    -0.15823078648072D+03

 The electronic state is 1-A.
 Alpha  occ. eigenvalues --  -10.60958 -10.60164 -10.58419 -10.57526  -0.92023
 Alpha  occ. eigenvalues --   -0.85084  -0.75175  -0.68298  -0.54580  -0.50558
 Alpha  occ. eigenvalues --   -0.49643  -0.46701  -0.43897  -0.41002  -0.39518
 Alpha  occ. eigenvalues --   -0.38014  -0.37510
 Alpha virt. eigenvalues --    0.05799   0.06797   0.08446   0.09168   0.11006
 Alpha virt. eigenvalues --    0.11834   0.12945   0.14155   0.14580   0.15197
 Alpha virt. eigenvalues --    0.16305   0.16684   0.19395   0.19929   0.21691

 Mulliken charges:
               1
     1  C   -0.184616
     2  C   -0.072722
     3  H    0.049606
     4  H    0.018979
     5  H    0.082626
     6  C   -0.024107
     7  H    0.025428
     8  H    0.079857
     9  C   -0.171702
    10  H    0.035048
    11  H    0.017472
    12  H    0.015423
    13  H    0.067727
    14  H    0.060980
 Sum of Mulliken charges =   0.00000

 Dipole moment (field-independent basis, Debye):
    X=             -0.3838    Y=             -0.0249    Z=             -0.0570  Tot=              0.3888
 Quadrupole moment (field-independent basis, Debye-Ang):
   XX=            -29.1186   YY=            -28.5791   ZZ=            -28.1271
   XY=             -0.9809   XZ=             -0.8354   YZ=              0.3318

 Normal termination of Gaussian 09 at Wed Aug 26 21:50:33 2020.
