 Gaussian 09, Revision D.01,
 Gaussian 09:  ES64L-G09RevD.01 24-Apr-2013

 --------------------
 #p B2PLYPD3/Def2QZVP
 --------------------

 ----------
 butane_opt
 ----------
 Symbolic Z-matrix:
 Charge =  0 Multiplicity = 1

                         Standard orientation:
 ---------------------------------------------------------------------
 Center     Atomic      Atomic             Coordinates (Angstroms)
 Number     Number       Type             X           Y           Z
 ---------------------------------------------------------------------
      1          6           0       -1.956769    0.102188    0.055485
      2          6           0       -0.580747   -0.508898   -0.086541
      3          1           0       -2.725902   -0.725701    0.171579
      4          1           0       -2.282486    0.825557   -0.828182
      5          1           0       -1.920912    0.675175    0.924460
      6          6           0        0.541930    0.564943   -0.041965
      7          1           0       -0.451031   -1.164042   -1.004020
      8          1           0       -0.433296   -1.126687    0.749854
      9          6           0        1.978102   -0.123242    0.044034
     10          1           0        0.385588    1.154139    0.841466
     11          1           0        0.550436    1.157892   -0.830671
     12          1           0        2.141478   -0.862801    0.968783
     13          1           0        2.705094    0.551512   -0.004957
     14          1           0        2.135943   -0.694988   -0.814386
 ---------------------------------------------------------------------

 SCF Done:  E(RB2PLYPD3) =  -158.094527356     A.U. after   11 cycles
 E2(B2PLYPD3) =    -0.2458616853D+00 E(B2PLYPD3) =    -0.15834038904126D+03

 The electronic state is 1-A.
 Alpha  occ. eigenvalues --  -10.60563 -10.60308 -10.59575 -10.59318  -0.90714
 Alpha  occ. eigenvalues --   -0.83004  -0.73144  -0.67305  -0.54286  -0.49437
 Alpha  occ. eigenvalues --   -0.48241  -0.47234  -0.43232  -0.41148  -0.38899
 Alpha  occ. eigenvalues --   -0.38715  -0.37246
 Alpha virt. eigenvalues --    0.05852   0.06820   0.08408   0.09042   0.10889
 Alpha virt. eigenvalues --    0.11997   0.12848   0.14280   0.14701   0.15246
 Alpha virt. eigenvalues --    0.15676   0.16421   0.19579   0.20354   0.21979

 Mulliken charges:
               1
     1  C   -0.155026
     2  C   -0.049602
     3  H    0.043074
     4  H    0.030417
     5  H    0.058128
     6  C   -0.060430
     7  H    0.022957
     8  H    0.052019
     9  C   -0.138026
    10  H    0.029145
    11  H    0.051697
    12  H    0.024564
    13  H    0.050211
    14  H    0.040870
 Sum of Mulliken charges =   0.00000

 Dipole moment (field-independent basis, Debye):
    X=              0.1184    Y=              0.1102    Z=             -0.0172  Tot=              0.1627
 Quadrupole moment (field-independent basis, Debye-Ang):
   XX=            -29.8048   YY=            -28.6090   ZZ=            -28.0991
   XY=              0.4867   XZ=             -0.6002   YZ=             -0.2986

 Normal termination of Gaussian 09 at Wed Aug 26 23:36:10 2020.
