 Gaussian 09, Revision D.01,
 Gaussian 09:  ES64L-G09RevD.01 24-Apr-2013

 --------------------
 #p B2PLYPD3/Def2QZVP
 --------------------

 ----------
 butane_opt
 ----------
 Symbolic Z-matrix:
 Charge =  0 Multiplicity = 1

                         Standard orientation:
 ---------------------------------------------------------------------
 Center     Atomic      Atomic             Coordinates (Angstroms)
 Number     Number       Type             X           Y           Z
 ---------------------------------------------------------------------
      1          6           0       -1.919644   -0.150660    0.073594
      2          6           0       -0.536623    0.544448   -0.154171
      3          1           0       -2.753576    0.618782   -0.079863
      4          1           0       -2.069245   -0.958061    1.191544
      5          1           0       -2.053313   -0.599932   -0.650306
      6          6           0        0.539530   -0.508604   -0.036734
      7          1           0       -0.375773    1.199865    0.740807
      8          1           0       -0.434857    1.283476   -1.058897
      9          6           0        1.875201    0.113016    0.050072
     10          1           0        0.741939   -1.165013   -0.891664
     11          1           0        0.372658   -1.032106    0.820074
     12          1           0        1.794569    0.288366   -0.568500
     13          1           0        2.677538   -0.790103   -0.315725
     14          1           0        2.349283    1.165528    1.215963
 ---------------------------------------------------------------------

 SCF Done:  E(RB2PLYPD3) =  -157.551709677     A.U. after   12 cycles
 E2(B2PLYPD3) =    -0.2531200938D+00 E(B2PLYPD3) =    -0.15780482977035D+03

 The electronic state is 1-A.
 Alpha  occ. eigenvalues --  -10.62376 -10.61183 -10.61078 -10.60180  -0.96327
 Alpha  occ. eigenvalues --   -0.86969  -0.75540  -0.67742  -0.54332  -0.49878
 Alpha  occ. eigenvalues --   -0.48414  -0.46851  -0.41282  -0.39745  -0.39429
 Alpha  occ. eigenvalues --   -0.37304  -0.35471
 Alpha virt. eigenvalues --    0.03158   0.05301   0.06231   0.07500   0.10186
 Alpha virt. eigenvalues --    0.10979   0.11831   0.12728   0.13977   0.15215
 Alpha virt. eigenvalues --    0.15888   0.16110   0.18646   0.19167   0.21007

 Mulliken charges:
               1
     1  C   -0.247083
     2  C   -0.043870
     3  H    0.034612
     4  H    0.034394
     5  H    0.145215
     6  C    0.022479
     7  H    0.044483
     8  H    0.026884
     9  C   -0.829552
    10  H    0.028721
    11  H    0.061542
    12  H    0.645834
    13  H    0.047223
    14  H    0.029119
 Sum of Mulliken charges =   0.00000

 Dipole moment (field-independent basis, Debye):
    X=             -0.4353    Y=             -0.1633    Z=             -0.6895  Tot=              0.8316
 Quadrupole moment (field-independent basis, Debye-Ang):
   XX=            -31.7849   YY=            -29.0031   ZZ=            -27.9000
   XY=             -0.4459   XZ=             -0.2435   YZ=              0.2037

 Normal termination of Gaussian 09 at Wed Aug 26 22:44:21 2020.
