 Gaussian 09, Revision D.01,
 Gaussian 09:  ES64L-G09RevD.01 24-Apr-2013

 --------------------
 #p B2PLYPD3/Def2QZVP
 --------------------

 ----------
 butane_opt
 ----------
 Symbolic Z-matrix:
 Charge =  0 Multiplicity = 1

                         Standard orientation:
 ---------------------------------------------------------------------
 Center     Atomic      Atomic             Coordinates (Angstroms)
 Number     Number       Type             X           Y           Z
 ---------------------------------------------------------------------
      1          6           0        1.924888   -0.040336   -0.049982
      2          6           0        0.566433    0.468821   -0.003582
      3          1           0        2.746683    0.716390   -0.170732
      4          1           0        2.052118   -0.785859   -0.812807
      5          1           0        1.969989   -0.793782    0.887780
      6          6           0       -0.504130   -0.613087    0.200852
      7          1           0        0.425031    1.134615   -0.870033
      8          1           0        0.895342    1.205575    0.809176
      9          6           0       -1.969750    0.114011   -0.074256
     10          1           0       -0.586969   -1.125058    0.884582
     11          1           0       -0.222883   -1.029017   -0.603749
     12          1           0       -2.846223    1.215720    1.004012
     13          1           0       -2.629495   -0.504043   -0.840039
     14          1           0       -1.908234    0.389007   -0.726379
 ---------------------------------------------------------------------

 SCF Done:  E(RB2PLYPD3) =  -157.630856668     A.U. after   12 cycles
 E2(B2PLYPD3) =    -0.2537276780D+00 E(B2PLYPD3) =    -0.15788458434554D+03

 The electronic state is 1-A.
 Alpha  occ. eigenvalues --  -10.62489 -10.61203 -10.61025 -10.59523  -0.94361
 Alpha  occ. eigenvalues --   -0.87424  -0.79270  -0.67992  -0.58682  -0.51767
 Alpha  occ. eigenvalues --   -0.48423  -0.47102  -0.42211  -0.39551  -0.37141
 Alpha  occ. eigenvalues --   -0.36060  -0.35011
 Alpha virt. eigenvalues --    0.00393   0.05382   0.07314   0.08176   0.09745
 Alpha virt. eigenvalues --    0.11072   0.12079   0.12453   0.13895   0.15831
 Alpha virt. eigenvalues --    0.16336   0.17292   0.18447   0.19471   0.20139

 Mulliken charges:
               1
     1  C   -0.152853
     2  C    0.007504
     3  H    0.060796
     4  H    0.022870
     5  H    0.031669
     6  C   -0.154976
     7  H    0.030133
     8  H    0.009592
     9  C   -0.624897
    10  H    0.122764
    11  H    0.096262
    12  H    0.024836
    13  H    0.029681
    14  H    0.496620
 Sum of Mulliken charges =   0.00000

 Dipole moment (field-independent basis, Debye):
    X=              0.6859    Y=             -0.1304    Z=             -0.8360  Tot=              1.0892
 Quadrupole moment (field-independent basis, Debye-Ang):
   XX=            -31.8059   YY=            -29.0368   ZZ=            -28.0434
   XY=              0.3656   XZ=              0.9874   YZ=             -0.1882

 Normal termination of Gaussian 09 at Wed Aug 26 11:02:13 2020.
