 Gaussian 09, Revision D.01,
 Gaussian 09:  ES64L-G09RevD.01 24-Apr-2013

 --------------------
 #p B2PLYPD3/Def2QZVP
 --------------------

 ----------
 butane_opt
 ----------
 Symbolic Z-matrix:
 Charge =  0 Multiplicity = 1

                         Standard orientation:
 ---------------------------------------------------------------------
 Center     Atomic      Atomic             Coordinates (Angstroms)
 Number     Number       Type             X           Y           Z
 ---------------------------------------------------------------------
      1          6           0       -1.968827    0.083017   -0.132247
      2          6           0       -0.689946   -0.461191    0.012420
      3          1           0       -2.980478   -0.801375    0.410972
      4          1           0       -2.090171    0.736918   -0.952307
      5          1           0       -1.668429    0.696444    0.776537
      6          6           0        0.558907    0.581747    0.121781
      7          1           0       -0.324167   -0.879268   -0.740333
      8          1           0       -0.630289   -1.117387    0.724393
      9          6           0        1.998387   -0.204649   -0.067161
     10          1           0        0.421671    1.390251    1.143488
     11          1           0        0.485825    0.999252   -0.632880
     12          1           0        2.545594   -1.011531    0.937413
     13          1           0        2.814705    0.533387   -0.425652
     14          1           0        2.034615   -0.540230   -0.850392
 ---------------------------------------------------------------------

 SCF Done:  E(RB2PLYPD3) =  -157.803726342     A.U. after   11 cycles
 E2(B2PLYPD3) =    -0.2520937190D+00 E(B2PLYPD3) =    -0.15805582006105D+03

 The electronic state is 1-A.
 Alpha  occ. eigenvalues --  -10.62414 -10.62191 -10.62157 -10.57369  -0.93939
 Alpha  occ. eigenvalues --   -0.85406  -0.74935  -0.69553  -0.56935  -0.50492
 Alpha  occ. eigenvalues --   -0.47706  -0.45938  -0.42724  -0.40489  -0.39333
 Alpha  occ. eigenvalues --   -0.38435  -0.32770
 Alpha virt. eigenvalues --    0.04452   0.05317   0.08053   0.08620   0.09801
 Alpha virt. eigenvalues --    0.10469   0.11851   0.13224   0.14449   0.15355
 Alpha virt. eigenvalues --    0.15834   0.16006   0.18510   0.19805   0.20514

 Mulliken charges:
               1
     1  C   -0.183411
     2  C   -0.028333
     3  H    0.031995
     4  H    0.071809
     5  H    0.034494
     6  C   -0.165293
     7  H    0.039365
     8  H    0.055047
     9  C   -0.272151
    10  H    0.015050
    11  H    0.166636
    12  H    0.043415
    13  H    0.026559
    14  H    0.164819
 Sum of Mulliken charges =   0.00000

 Dipole moment (field-independent basis, Debye):
    X=              0.3401    Y=             -0.0373    Z=             -0.6540  Tot=              0.7381
 Quadrupole moment (field-independent basis, Debye-Ang):
   XX=            -31.3656   YY=            -29.5892   ZZ=            -27.8065
   XY=              0.0265   XZ=             -1.1362   YZ=             -1.3038

 Normal termination of Gaussian 09 at Wed Aug 26 22:42:04 2020.
