 Gaussian 09, Revision D.01,
 Gaussian 09:  ES64L-G09RevD.01 24-Apr-2013

 --------------------
 #p B2PLYPD3/Def2QZVP
 --------------------

 ----------
 butane_opt
 ----------
 Symbolic Z-matrix:
 Charge =  0 Multiplicity = 1

                         Standard orientation:
 ---------------------------------------------------------------------
 Center     Atomic      Atomic             Coordinates (Angstroms)
 Number     Number       Type             X           Y           Z
 ---------------------------------------------------------------------
      1          6           0        1.950851   -0.177142   -0.085074
      2          6           0        0.545397    0.581206    0.121850
      3          1           0        2.791000    0.507853   -0.368562
      4          1           0        2.015042   -0.702209   -0.933441
      5          1           0        2.313888   -0.775629    0.770927
      6          6           0       -0.583760   -0.494160    0.162494
      7          1           0        0.255816    1.124083   -0.681606
      8          1           0        0.325464    1.419034    1.063624
      9          6           0       -1.898376    0.077052   -0.132296
     10          1           0       -0.664851   -0.971008    0.997581
     11          1           0       -0.395014   -1.138682   -0.695500
     12          1           0       -2.100188    0.588809    0.622565
     13          1           0       -2.704284   -0.705806   -0.059774
     14          1           0       -1.921541    0.731817   -1.117659
 ---------------------------------------------------------------------

 SCF Done:  E(RB2PLYPD3) =  -158.036947567     A.U. after   11 cycles
 E2(B2PLYPD3) =    -0.2470388986D+00 E(B2PLYPD3) =    -0.15828398646546D+03

 The electronic state is 1-A.
 Alpha  occ. eigenvalues --  -10.62334 -10.60200 -10.58458 -10.58267  -0.92041
 Alpha  occ. eigenvalues --   -0.83447  -0.73841  -0.67754  -0.55483  -0.49402
 Alpha  occ. eigenvalues --   -0.48497  -0.47114  -0.42508  -0.42046  -0.39666
 Alpha  occ. eigenvalues --   -0.38068  -0.36038
 Alpha virt. eigenvalues --    0.05765   0.06805   0.08152   0.08875   0.10894
 Alpha virt. eigenvalues --    0.12279   0.12742   0.13706   0.14816   0.15575
 Alpha virt. eigenvalues --    0.15932   0.16977   0.19275   0.19710   0.21269

 Mulliken charges:
               1
     1  C   -0.126680
     2  C   -0.093753
     3  H    0.020353
     4  H    0.054139
     5  H    0.051330
     6  C   -0.026156
     7  H    0.064635
     8  H    0.006622
     9  C   -0.160298
    10  H    0.048302
    11  H    0.032118
    12  H    0.068101
    13  H    0.032113
    14  H    0.029173
 Sum of Mulliken charges =   0.00000

 Dipole moment (field-independent basis, Debye):
    X=             -0.0283    Y=             -0.1937    Z=             -0.0790  Tot=              0.2111
 Quadrupole moment (field-independent basis, Debye-Ang):
   XX=            -29.3127   YY=            -29.2207   ZZ=            -27.8143
   XY=             -0.3545   XZ=             -1.2708   YZ=             -0.4872

 Normal termination of Gaussian 09 at Wed Aug 26 20:36:46 2020.
