 Gaussian 09, Revision D.01,
 Gaussian 09:  ES64L-G09RevD.01 24-Apr-2013

 --------------------
 #p B2PLYPD3/Def2QZVP
 --------------------

 ----------
 butane_opt
 ----------
 Symbolic Z-matrix:
 Charge =  0 Multiplicity = 1

                         Standard orientation:
 ---------------------------------------------------------------------
 Center     Atomic      Atomic             Coordinates (Angstroms)
 Number     Number       Type             X           Y           Z
 ---------------------------------------------------------------------
      1          6           0        1.889444    0.071430    0.121158
      2          6           0        0.534948   -0.470232   -0.177436
      3          1           0        2.776515   -0.736989   -0.349312
      4          1           0        1.994465    0.947949    1.158458
      5          1           0        1.817380    0.418233   -0.398379
      6          6           0       -0.457691    0.563554    0.042009
      7          1           0        0.233032   -1.021210    0.554507
      8          1           0        0.527531   -1.296150   -1.129224
      9          6           0       -1.878452   -0.147015    0.101433
     10          1           0       -0.447171    1.609984   -0.926691
     11          1           0       -0.315290    0.876423    0.746368
     12          1           0       -1.809417   -0.431751   -0.565524
     13          1           0       -2.718329    0.780119   -0.793417
     14          1           0       -2.588211   -1.253022    1.180231
 ---------------------------------------------------------------------

 SCF Done:  E(RB2PLYPD3) =  -157.098571165     A.U. after   13 cycles
 E2(B2PLYPD3) =    -0.2599221164D+00 E(B2PLYPD3) =    -0.15735849328107D+03

 The electronic state is 1-A.
 Alpha  occ. eigenvalues --  -10.64755 -10.62307 -10.61324 -10.60591  -0.98494
 Alpha  occ. eigenvalues --   -0.89562  -0.79301  -0.71441  -0.54565  -0.50008
 Alpha  occ. eigenvalues --   -0.47662  -0.46115  -0.41779  -0.40253  -0.39369
 Alpha  occ. eigenvalues --   -0.36680  -0.33088
 Alpha virt. eigenvalues --   -0.01035   0.03039   0.05085   0.06332   0.09642
 Alpha virt. eigenvalues --    0.10195   0.11914   0.12291   0.13500   0.15092
 Alpha virt. eigenvalues --    0.15338   0.16229   0.17013   0.18729   0.19988

 Mulliken charges:
               1
     1  C   -0.881329
     2  C    0.002975
     3  H    0.065469
     4  H    0.065014
     5  H    0.681271
     6  C   -0.281025
     7  H    0.087054
     8  H    0.023063
     9  C   -0.637227
    10  H    0.004518
    11  H    0.301661
    12  H    0.517146
    13  H   -0.017569
    14  H    0.068978
 Sum of Mulliken charges =   0.00000

 Dipole moment (field-independent basis, Debye):
    X=              0.6202    Y=             -0.5399    Z=             -0.1839  Tot=              0.8425
 Quadrupole moment (field-independent basis, Debye-Ang):
   XX=            -33.6764   YY=            -28.8747   ZZ=            -28.1695
   XY=              1.9345   XZ=             -0.7665   YZ=              0.1759

 Normal termination of Gaussian 09 at Wed Aug 26 22:36:45 2020.
