 Gaussian 09, Revision D.01,
 Gaussian 09:  ES64L-G09RevD.01 24-Apr-2013

 --------------------
 #p B2PLYPD3/Def2QZVP
 --------------------

 ----------
 butane_opt
 ----------
 Symbolic Z-matrix:
 Charge =  0 Multiplicity = 1

                         Standard orientation:
 ---------------------------------------------------------------------
 Center     Atomic      Atomic             Coordinates (Angstroms)
 Number     Number       Type             X           Y           Z
 ---------------------------------------------------------------------
      1          6           0       -2.060730   -0.185374   -0.141953
      2          6           0       -0.532484    0.575629    0.093452
      3          1           0       -2.791804    0.570954    0.031942
      4          1           0       -2.112262   -0.451347    0.702898
      5          1           0       -2.374308   -1.141715   -1.125643
      6          6           0        0.684814   -0.424748    0.298492
      7          1           0       -0.697187    1.351911    0.869891
      8          1           0       -0.265329    0.873686   -0.692741
      9          6           0        1.907347    0.055191   -0.224470
     10          1           0        0.422839   -0.862260   -0.267859
     11          1           0        0.862137   -1.123336    1.537652
     12          1           0        1.617405    0.463345   -1.259622
     13          1           0        2.771503   -0.767928   -0.479055
     14          1           0        2.573321    0.962507    0.529410
 ---------------------------------------------------------------------

 SCF Done:  E(RB2PLYPD3) =  -157.728368661     A.U. after   11 cycles
 E2(B2PLYPD3) =    -0.2522490338D+00 E(B2PLYPD3) =    -0.15798061769516D+03

 The electronic state is 1-A.
 Alpha  occ. eigenvalues --  -10.64273 -10.61368 -10.61117 -10.60227  -0.95340
 Alpha  occ. eigenvalues --   -0.84344  -0.75009  -0.68809  -0.54939  -0.49946
 Alpha  occ. eigenvalues --   -0.47624  -0.46455  -0.43075  -0.41560  -0.37700
 Alpha  occ. eigenvalues --   -0.36948  -0.34937
 Alpha virt. eigenvalues --    0.04945   0.05406   0.06875   0.08152   0.10288
 Alpha virt. eigenvalues --    0.11006   0.11849   0.12738   0.13942   0.14278
 Alpha virt. eigenvalues --    0.15871   0.16449   0.18548   0.18764   0.20936

 Mulliken charges:
               1
     1  C   -0.280489
     2  C   -0.136295
     3  H    0.046164
     4  H    0.149882
     5  H    0.051972
     6  C   -0.453055
     7  H    0.044372
     8  H    0.151701
     9  C   -0.128472
    10  H    0.436163
    11  H    0.007168
    12  H    0.041839
    13  H    0.046545
    14  H    0.022505
 Sum of Mulliken charges =   0.00000

 Dipole moment (field-independent basis, Debye):
    X=             -0.2715    Y=              0.0562    Z=             -0.2429  Tot=              0.3686
 Quadrupole moment (field-independent basis, Debye-Ang):
   XX=            -29.8322   YY=            -29.6533   ZZ=            -28.5373
   XY=             -0.7621   XZ=             -0.9646   YZ=              1.2446

 Normal termination of Gaussian 09 at Wed Aug 26 19:17:12 2020.
