 Gaussian 09, Revision D.01,
 Gaussian 09:  ES64L-G09RevD.01 24-Apr-2013

 --------------------
 #p B2PLYPD3/Def2QZVP
 --------------------

 ----------
 butane_opt
 ----------
 Symbolic Z-matrix:
 Charge =  0 Multiplicity = 1

                         Standard orientation:
 ---------------------------------------------------------------------
 Center     Atomic      Atomic             Coordinates (Angstroms)
 Number     Number       Type             X           Y           Z
 ---------------------------------------------------------------------
      1          6           0        1.982437   -0.163387   -0.038186
      2          6           0        0.530553    0.584447   -0.018312
      3          1           0        2.738091    0.573804   -0.001554
      4          1           0        2.104012   -0.788020   -0.962323
      5          1           0        2.222720   -0.738733    0.919724
      6          6           0       -0.565864   -0.502927    0.076768
      7          1           0        0.397030    1.130832   -0.851800
      8          1           0        0.292225    1.410319    1.034894
      9          6           0       -1.901082    0.081083   -0.050247
     10          1           0       -0.514953   -1.124724    1.003750
     11          1           0       -0.524141   -1.163823   -0.760175
     12          1           0       -2.196699    0.735911    0.804405
     13          1           0       -2.747635   -0.759585   -0.063636
     14          1           0       -2.046911    0.728722   -0.943425
 ---------------------------------------------------------------------

 SCF Done:  E(RB2PLYPD3) =  -158.073269183     A.U. after   11 cycles
 E2(B2PLYPD3) =    -0.2483548741D+00 E(B2PLYPD3) =    -0.15832162405743D+03

 The electronic state is 1-A.
 Alpha  occ. eigenvalues --  -10.63300 -10.61315 -10.60630 -10.60238  -0.90851
 Alpha  occ. eigenvalues --   -0.82118  -0.72072  -0.66497  -0.53528  -0.48896
 Alpha  occ. eigenvalues --   -0.48056  -0.46949  -0.42428  -0.40651  -0.39638
 Alpha  occ. eigenvalues --   -0.37049  -0.36215
 Alpha virt. eigenvalues --    0.05498   0.06588   0.07652   0.08536   0.10488
 Alpha virt. eigenvalues --    0.11798   0.12708   0.13780   0.14359   0.15247
 Alpha virt. eigenvalues --    0.15670   0.16090   0.19222   0.20052   0.21775

 Mulliken charges:
               1
     1  C   -0.142189
     2  C   -0.102913
     3  H    0.050124
     4  H    0.052841
     5  H    0.042308
     6  C   -0.021331
     7  H    0.078788
     8  H   -0.000399
     9  C   -0.135283
    10  H    0.039677
    11  H    0.037901
    12  H    0.034322
    13  H    0.028622
    14  H    0.037529
 Sum of Mulliken charges =   0.00000

 Dipole moment (field-independent basis, Debye):
    X=              0.1626    Y=             -0.1152    Z=             -0.2812  Tot=              0.3446
 Quadrupole moment (field-independent basis, Debye-Ang):
   XX=            -30.0045   YY=            -29.3345   ZZ=            -28.2742
   XY=              0.0257   XZ=             -0.1003   YZ=             -0.3054

 Normal termination of Gaussian 09 at Wed Aug 26 23:01:57 2020.
