 Gaussian 09, Revision D.01,
 Gaussian 09:  ES64L-G09RevD.01 24-Apr-2013

 --------------------
 #p B2PLYPD3/Def2QZVP
 --------------------

 ----------
 butane_opt
 ----------
 Symbolic Z-matrix:
 Charge =  0 Multiplicity = 1

                         Standard orientation:
 ---------------------------------------------------------------------
 Center     Atomic      Atomic             Coordinates (Angstroms)
 Number     Number       Type             X           Y           Z
 ---------------------------------------------------------------------
      1          6           0        1.983478    0.080176    0.044759
      2          6           0        0.626326   -0.431343   -0.096355
      3          1           0        2.834392   -0.944714   -0.141693
      4          1           0        2.336207    0.933944    1.048337
      5          1           0        1.851803    0.350403   -0.555212
      6          6           0       -0.533742    0.575691   -0.077352
      7          1           0        0.510697   -0.939721    0.759920
      8          1           0        0.613763   -1.007197   -0.993605
      9          6           0       -2.056705   -0.200012    0.060036
     10          1           0       -0.689016    1.034546   -0.868829
     11          1           0       -0.325591    1.401435    0.825750
     12          1           0       -2.119980   -0.171196   -0.451218
     13          1           0       -2.739921    0.365013   -0.357324
     14          1           0       -2.388496   -1.169582    1.147354
 ---------------------------------------------------------------------

 SCF Done:  E(RB2PLYPD3) =  -156.702351132     A.U. after   12 cycles
 E2(B2PLYPD3) =    -0.2550462804D+00 E(B2PLYPD3) =    -0.15695739741259D+03

 The electronic state is 1-A.
 Alpha  occ. eigenvalues --  -10.63200 -10.62456 -10.59904 -10.59331  -1.00344
 Alpha  occ. eigenvalues --   -0.95236  -0.80011  -0.68970  -0.55783  -0.50784
 Alpha  occ. eigenvalues --   -0.48510  -0.45179  -0.41931  -0.41463  -0.37242
 Alpha  occ. eigenvalues --   -0.36361  -0.33575
 Alpha virt. eigenvalues --    0.04714   0.05417   0.06131   0.07909   0.09507
 Alpha virt. eigenvalues --    0.10624   0.11368   0.12615   0.14512   0.15616
 Alpha virt. eigenvalues --    0.16287   0.16560   0.18352   0.19241   0.21163

 Mulliken charges:
               1
     1  C   -0.734708
     2  C    0.011069
     3  H    0.043946
     4  H    0.051272
     5  H    0.560397
     6  C   -0.081061
     7  H    0.063226
     8  H    0.040460
     9  C   -1.052193
    10  H    0.073615
    11  H    0.024819
    12  H    0.952692
    13  H   -0.050777
    14  H    0.097243
 Sum of Mulliken charges =   0.00000

 Dipole moment (field-independent basis, Debye):
    X=             -0.4898    Y=             -0.0276    Z=             -0.8158  Tot=              0.9519
 Quadrupole moment (field-independent basis, Debye-Ang):
   XX=            -29.8344   YY=            -29.1923   ZZ=            -26.7280
   XY=             -0.0393   XZ=              1.4530   YZ=             -0.9186

 Normal termination of Gaussian 09 at Wed Aug 26 20:57:44 2020.
