 Gaussian 09, Revision D.01,
 Gaussian 09:  ES64L-G09RevD.01 24-Apr-2013

 --------------------
 #p B2PLYPD3/Def2QZVP
 --------------------

 ----------
 butane_opt
 ----------
 Symbolic Z-matrix:
 Charge =  0 Multiplicity = 1

                         Standard orientation:
 ---------------------------------------------------------------------
 Center     Atomic      Atomic             Coordinates (Angstroms)
 Number     Number       Type             X           Y           Z
 ---------------------------------------------------------------------
      1          6           0        1.940560    0.028523    0.143104
      2          6           0        0.585873   -0.445892   -0.239617
      3          1           0        2.665099   -0.649062    0.187815
      4          1           0        2.035635    0.904691    1.423929
      5          1           0        2.260231    0.375188   -0.438367
      6          6           0       -0.507675    0.653865   -0.157292
      7          1           0        0.581731   -1.204303    0.484649
      8          1           0        0.767786   -1.184148   -1.225367
      9          6           0       -2.060031   -0.129308    0.160603
     10          1           0       -0.465770    2.002326   -1.222141
     11          1           0       -0.292849    0.701556    0.478014
     12          1           0       -2.693546   -1.007734   -1.002985
     13          1           0       -2.818186    0.331680    0.818657
     14          1           0       -1.792495   -0.913319    1.055008
 ---------------------------------------------------------------------

 SCF Done:  E(RB2PLYPD3) =  -157.351306877     A.U. after   12 cycles
 E2(B2PLYPD3) =    -0.2596771872D+00 E(B2PLYPD3) =    -0.15761098406425D+03

 The electronic state is 1-A.
 Alpha  occ. eigenvalues --  -10.67750 -10.65345 -10.63257 -10.59458  -0.96021
 Alpha  occ. eigenvalues --   -0.87466  -0.74487  -0.70749  -0.54163  -0.50630
 Alpha  occ. eigenvalues --   -0.45339  -0.44976  -0.41409  -0.39512  -0.37311
 Alpha  occ. eigenvalues --   -0.35777  -0.34980
 Alpha virt. eigenvalues --    0.00843   0.03181   0.04579   0.06565   0.08835
 Alpha virt. eigenvalues --    0.10643   0.11151   0.12015   0.12962   0.14382
 Alpha virt. eigenvalues --    0.15386   0.17033   0.17538   0.18179   0.19545

 Mulliken charges:
               1
     1  C   -0.387671
     2  C    0.003850
     3  H    0.049178
     4  H   -0.011350
     5  H    0.295754
     6  C   -0.747961
     7  H    0.066092
     8  H    0.006626
     9  C   -0.161985
    10  H    0.036572
    11  H    0.716160
    12  H    0.024936
    13  H    0.076078
    14  H    0.033722
 Sum of Mulliken charges =   0.00000

 Dipole moment (field-independent basis, Debye):
    X=              0.6016    Y=             -0.4447    Z=              0.3266  Tot=              0.8163
 Quadrupole moment (field-independent basis, Debye-Ang):
   XX=            -29.6795   YY=            -29.9084   ZZ=            -29.1225
   XY=             -1.1704   XZ=             -2.5260   YZ=             -0.3239

 Normal termination of Gaussian 09 at Wed Aug 26 12:31:15 2020.
