 Gaussian 09, Revision D.01,
 Gaussian 09:  ES64L-G09RevD.01 24-Apr-2013

 --------------------
 #p B2PLYPD3/Def2QZVP
 --------------------

 ----------
 butane_opt
 ----------
 Symbolic Z-matrix:
 Charge =  0 Multiplicity = 1

                         Standard orientation:
 ---------------------------------------------------------------------
 Center     Atomic      Atomic             Coordinates (Angstroms)
 Number     Number       Type             X           Y           Z
 ---------------------------------------------------------------------
      1          6           0        2.002093   -0.164578    0.196740
      2          6           0        0.500081    0.641777   -0.164041
      3          1           0        2.669056    0.295822    0.918117
      4          1           0        3.006638   -0.980801   -0.940022
      5          1           0        1.625457   -0.768836    0.748156
      6          6           0       -0.579080   -0.432019   -0.307218
      7          1           0        0.627513    1.780588   -1.094668
      8          1           0        0.414424    0.946041    0.693932
      9          6           0       -1.919967    0.034365    0.138947
     10          1           0       -0.565296   -1.407586    0.571536
     11          1           0       -0.552701   -0.691020   -1.172502
     12          1           0       -2.039001    0.653947    1.422141
     13          1           0       -2.756364   -0.824338    0.065185
     14          1           0       -2.448492    0.518913   -0.398442
 ---------------------------------------------------------------------

 SCF Done:  E(RB2PLYPD3) =  -157.725017594     A.U. after   11 cycles
 E2(B2PLYPD3) =    -0.2563136870D+00 E(B2PLYPD3) =    -0.15798133128078D+03

 The electronic state is 1-A.
 Alpha  occ. eigenvalues --  -10.65064 -10.63947 -10.62466 -10.62418  -0.92886
 Alpha  occ. eigenvalues --   -0.84148  -0.75621  -0.69699  -0.56382  -0.49704
 Alpha  occ. eigenvalues --   -0.47889  -0.45007  -0.41963  -0.39342  -0.37847
 Alpha  occ. eigenvalues --   -0.35894  -0.34226
 Alpha virt. eigenvalues --    0.02062   0.04104   0.04811   0.07984   0.08486
 Alpha virt. eigenvalues --    0.10407   0.11002   0.12569   0.13039   0.15069
 Alpha virt. eigenvalues --    0.15951   0.16272   0.17559   0.19000   0.20050

 Mulliken charges:
               1
     1  C   -0.240570
     2  C   -0.181265
     3  H    0.053660
     4  H   -0.015660
     5  H    0.153180
     6  C   -0.066650
     7  H    0.029205
     8  H    0.176640
     9  C   -0.167209
    10  H    0.029830
    11  H    0.107013
    12  H    0.011983
    13  H    0.022277
    14  H    0.087565
 Sum of Mulliken charges =   0.00000

 Dipole moment (field-independent basis, Debye):
    X=             -0.9795    Y=              0.1733    Z=              0.3859  Tot=              1.0669
 Quadrupole moment (field-independent basis, Debye-Ang):
   XX=            -31.6825   YY=            -30.3444   ZZ=            -28.5455
   XY=              0.8499   XZ=              2.6415   YZ=             -0.0130

 Normal termination of Gaussian 09 at Wed Aug 26 16:33:35 2020.
