 Gaussian 09, Revision D.01,
 Gaussian 09:  ES64L-G09RevD.01 24-Apr-2013

 --------------------
 #p B2PLYPD3/Def2QZVP
 --------------------

 ----------
 butane_opt
 ----------
 Symbolic Z-matrix:
 Charge =  0 Multiplicity = 1

                         Standard orientation:
 ---------------------------------------------------------------------
 Center     Atomic      Atomic             Coordinates (Angstroms)
 Number     Number       Type             X           Y           Z
 ---------------------------------------------------------------------
      1          6           0       -1.895310    0.090033   -0.113866
      2          6           0       -0.646243   -0.476628    0.183032
      3          1           0       -2.627600   -0.662837   -0.654569
      4          1           0       -1.738886    0.342322   -0.760093
      5          1           0       -2.442178    1.090366    0.925088
      6          6           0        0.564749    0.584142   -0.000280
      7          1           0       -0.518948   -1.215251   -0.650592
      8          1           0       -0.748107   -1.356299    1.285996
      9          6           0        1.982970   -0.161149   -0.100371
     10          1           0        0.602858    1.557032    0.856572
     11          1           0        0.020781    0.889425   -0.668781
     12          1           0        2.567601   -0.874368    0.915464
     13          1           0        2.675054    0.494109   -0.194782
     14          1           0        2.172428   -0.482892   -0.865390
 ---------------------------------------------------------------------

 SCF Done:  E(RB2PLYPD3) =  -157.581632630     A.U. after   12 cycles
 E2(B2PLYPD3) =    -0.2544097958D+00 E(B2PLYPD3) =    -0.15783604242587D+03

 The electronic state is 1-A.
 Alpha  occ. eigenvalues --  -10.64257 -10.63381 -10.60590 -10.59847  -0.96447
 Alpha  occ. eigenvalues --   -0.87579  -0.78372  -0.67115  -0.53842  -0.52475
 Alpha  occ. eigenvalues --   -0.47742  -0.47229  -0.42159  -0.40341  -0.39686
 Alpha  occ. eigenvalues --   -0.35297  -0.33926
 Alpha virt. eigenvalues --    0.03943   0.05184   0.06663   0.07748   0.08916
 Alpha virt. eigenvalues --    0.10574   0.11745   0.12552   0.14650   0.15696
 Alpha virt. eigenvalues --    0.15902   0.16875   0.17541   0.18967   0.20922

 Mulliken charges:
               1
     1  C   -0.625732
     2  C   -0.016582
     3  H    0.062041
     4  H    0.491393
     5  H    0.027697
     6  C   -0.145546
     7  H    0.048071
     8  H   -0.005616
     9  C   -0.188815
    10  H    0.021932
    11  H    0.121520
    12  H    0.047549
    13  H    0.054385
    14  H    0.107703
 Sum of Mulliken charges =   0.00000

 Dipole moment (field-independent basis, Debye):
    X=              0.5585    Y=              0.1998    Z=             -1.3251  Tot=              1.4518
 Quadrupole moment (field-independent basis, Debye-Ang):
   XX=            -28.9490   YY=            -30.0765   ZZ=            -28.5692
   XY=              0.3649   XZ=              0.8549   YZ=              0.9630

 Normal termination of Gaussian 09 at Wed Aug 26 14:14:39 2020.
