 Gaussian 09, Revision D.01,
 Gaussian 09:  ES64L-G09RevD.01 24-Apr-2013

 --------------------
 #p B2PLYPD3/Def2QZVP
 --------------------

 ----------
 butane_opt
 ----------
 Symbolic Z-matrix:
 Charge =  0 Multiplicity = 1

                         Standard orientation:
 ---------------------------------------------------------------------
 Center     Atomic      Atomic             Coordinates (Angstroms)
 Number     Number       Type             X           Y           Z
 ---------------------------------------------------------------------
      1          6           0        1.846230   -0.075394    0.054534
      2          6           0        0.579925    0.439792   -0.047844
      3          1           0        2.838301    0.942019    0.064945
      4          1           0        1.865034   -0.812702   -0.689735
      5          1           0        1.843369   -0.757706    0.983294
      6          6           0       -0.470896   -0.588420   -0.207457
      7          1           0        0.553847    1.058193   -0.976204
      8          1           0        0.332560    1.323793    1.001777
      9          6           0       -1.927317    0.122756    0.079969
     10          1           0       -0.261077   -1.335045    0.714591
     11          1           0       -0.639787   -1.151726   -0.975073
     12          1           0       -1.810741    0.585067    0.859349
     13          1           0       -2.507440   -0.383351    0.780311
     14          1           0       -2.381719    1.139055   -1.038473
 ---------------------------------------------------------------------

 SCF Done:  E(RB2PLYPD3) =  -157.846035863     A.U. after   11 cycles
 E2(B2PLYPD3) =    -0.2550751232D+00 E(B2PLYPD3) =    -0.15810111098640D+03

 The electronic state is 1-A.
 Alpha  occ. eigenvalues --  -10.62832 -10.62487 -10.62228 -10.61853  -0.94357
 Alpha  occ. eigenvalues --   -0.85530  -0.75228  -0.65902  -0.55238  -0.51338
 Alpha  occ. eigenvalues --   -0.48838  -0.43778  -0.41426  -0.40028  -0.37251
 Alpha  occ. eigenvalues --   -0.36366  -0.34354
 Alpha virt. eigenvalues --    0.03369   0.04293   0.06823   0.07195   0.09960
 Alpha virt. eigenvalues --    0.10061   0.11679   0.11999   0.13505   0.15274
 Alpha virt. eigenvalues --    0.16169   0.16696   0.18945   0.19247   0.19559

 Mulliken charges:
               1
     1  C   -0.167892
     2  C    0.011472
     3  H    0.037118
     4  H    0.072133
     5  H    0.036482
     6  C   -0.066509
     7  H    0.038333
     8  H   -0.010716
     9  C   -0.248926
    10  H    0.001362
    11  H    0.076661
    12  H    0.133785
    13  H    0.056683
    14  H    0.030015
 Sum of Mulliken charges =   0.00000

 Dipole moment (field-independent basis, Debye):
    X=              0.1061    Y=             -0.3397    Z=              0.1475  Tot=              0.3852
 Quadrupole moment (field-independent basis, Debye-Ang):
   XX=            -32.8482   YY=            -29.6486   ZZ=            -28.1380
   XY=             -0.0400   XZ=             -1.6091   YZ=             -0.2865

 Normal termination of Gaussian 09 at Wed Aug 26 13:07:29 2020.
