 Gaussian 09, Revision D.01,
 Gaussian 09:  ES64L-G09RevD.01 24-Apr-2013

 --------------------
 #p B2PLYPD3/Def2QZVP
 --------------------

 ----------
 butane_opt
 ----------
 Symbolic Z-matrix:
 Charge =  0 Multiplicity = 1

                         Standard orientation:
 ---------------------------------------------------------------------
 Center     Atomic      Atomic             Coordinates (Angstroms)
 Number     Number       Type             X           Y           Z
 ---------------------------------------------------------------------
      1          6           0       -2.009129    0.125662    0.013544
      2          6           0       -0.561664   -0.644369    0.081135
      3          1           0       -2.539932   -0.449199   -0.636533
      4          1           0       -1.804429    0.132981   -0.564886
      5          1           0       -2.897518    1.534595    1.282209
      6          6           0        0.628266    0.524733   -0.180750
      7          1           0       -0.387674   -1.582810   -0.927355
      8          1           0       -0.433653   -0.933049    0.755078
      9          6           0        1.952846   -0.107706    0.111987
     10          1           0        0.549547    0.957136    0.397243
     11          1           0        0.549783    1.344883   -1.249101
     12          1           0        1.851461   -0.720413    1.219628
     13          1           0        2.874560    0.735385    0.004074
     14          1           0        2.175942   -0.409430   -0.435847
 ---------------------------------------------------------------------

 SCF Done:  E(RB2PLYPD3) =  -156.673140281     A.U. after   14 cycles
 E2(B2PLYPD3) =    -0.2620981497D+00 E(B2PLYPD3) =    -0.15693523843057D+03

 The electronic state is 1-A.
 Alpha  occ. eigenvalues --  -10.63566 -10.61958 -10.60097 -10.59788  -0.98483
 Alpha  occ. eigenvalues --   -0.92670  -0.82104  -0.76153  -0.54139  -0.50741
 Alpha  occ. eigenvalues --   -0.47630  -0.44605  -0.42556  -0.40059  -0.39519
 Alpha  occ. eigenvalues --   -0.35697  -0.32417
 Alpha virt. eigenvalues --   -0.06528   0.04766   0.06167   0.07212   0.09401
 Alpha virt. eigenvalues --    0.10181   0.12178   0.12531   0.14668   0.15667
 Alpha virt. eigenvalues --    0.16178   0.16696   0.17673   0.18346   0.19523

 Mulliken charges:
               1
     1  C   -0.862202
     2  C   -0.376519
     3  H    0.039046
     4  H    0.744272
     5  H    0.052193
     6  C   -0.440294
     7  H    0.027827
     8  H    0.377112
     9  C   -0.610545
    10  H    0.458634
    11  H    0.026209
    12  H    0.066344
    13  H    0.036853
    14  H    0.461069
 Sum of Mulliken charges =   0.00000

 Dipole moment (field-independent basis, Debye):
    X=              0.5176    Y=             -0.1553    Z=             -0.4318  Tot=              0.6917
 Quadrupole moment (field-independent basis, Debye-Ang):
   XX=            -31.2894   YY=            -28.9932   ZZ=            -27.1085
   XY=             -0.9793   XZ=              0.4135   YZ=              1.0075

 Normal termination of Gaussian 09 at Wed Aug 26 13:42:26 2020.
