 Gaussian 09, Revision D.01,
 Gaussian 09:  ES64L-G09RevD.01 24-Apr-2013

 --------------------
 #p B2PLYPD3/Def2QZVP
 --------------------

 ----------
 butane_opt
 ----------
 Symbolic Z-matrix:
 Charge =  0 Multiplicity = 1

                         Standard orientation:
 ---------------------------------------------------------------------
 Center     Atomic      Atomic             Coordinates (Angstroms)
 Number     Number       Type             X           Y           Z
 ---------------------------------------------------------------------
      1          6           0        2.009004    0.057699    0.190181
      2          6           0        0.585694   -0.499147   -0.199643
      3          1           0        2.796394   -0.685393   -0.378194
      4          1           0        2.240857    1.039187    1.313554
      5          1           0        1.889946    0.417080   -0.461759
      6          6           0       -0.581431    0.556323   -0.116466
      7          1           0        0.386856   -1.106273    0.485340
      8          1           0        0.680041   -1.031323   -1.017880
      9          6           0       -2.035027   -0.166397    0.060891
     10          1           0       -0.195961    1.248695   -0.979732
     11          1           0       -0.278975    1.186582    0.809177
     12          1           0       -1.982580   -0.188522   -0.533234
     13          1           0       -2.912972    0.773213   -0.210778
     14          1           0       -2.493053   -1.344113    1.363733
 ---------------------------------------------------------------------

 SCF Done:  E(RB2PLYPD3) =  -157.124775278     A.U. after   13 cycles
 E2(B2PLYPD3) =    -0.2613274670D+00 E(B2PLYPD3) =    -0.15738610274466D+03

 The electronic state is 1-A.
 Alpha  occ. eigenvalues --  -10.65248 -10.64103 -10.60728 -10.58608  -0.94663
 Alpha  occ. eigenvalues --   -0.90397  -0.77265  -0.68714  -0.54446  -0.47904
 Alpha  occ. eigenvalues --   -0.45888  -0.45426  -0.40838  -0.39441  -0.37424
 Alpha  occ. eigenvalues --   -0.35802  -0.34936
 Alpha virt. eigenvalues --   -0.02587   0.03717   0.05694   0.07462   0.08884
 Alpha virt. eigenvalues --    0.10424   0.11755   0.12327   0.13796   0.15263
 Alpha virt. eigenvalues --    0.15826   0.16934   0.17826   0.18423   0.19915

 Mulliken charges:
               1
     1  C   -0.582967
     2  C   -0.043491
     3  H    0.045741
     4  H    0.058225
     5  H    0.429243
     6  C   -0.060685
     7  H    0.074203
     8  H    0.026702
     9  C   -0.945910
    10  H    0.037475
    11  H    0.039749
    12  H    0.777281
    13  H    0.056319
    14  H    0.088116
 Sum of Mulliken charges =   0.00000

 Dipole moment (field-independent basis, Debye):
    X=             -0.1741    Y=             -0.1688    Z=             -0.6832  Tot=              0.7249
 Quadrupole moment (field-independent basis, Debye-Ang):
   XX=            -31.4934   YY=            -28.9972   ZZ=            -27.5851
   XY=              1.1204   XZ=             -1.3850   YZ=             -0.2978

 Normal termination of Gaussian 09 at Wed Aug 26 13:19:58 2020.
