 Gaussian 09, Revision D.01,
 Gaussian 09:  ES64L-G09RevD.01 24-Apr-2013

 --------------------
 #p B2PLYPD3/Def2QZVP
 --------------------

 ----------
 butane_opt
 ----------
 Symbolic Z-matrix:
 Charge =  0 Multiplicity = 1

                         Standard orientation:
 ---------------------------------------------------------------------
 Center     Atomic      Atomic             Coordinates (Angstroms)
 Number     Number       Type             X           Y           Z
 ---------------------------------------------------------------------
      1          6           0        1.884215    0.010291    0.191977
      2          6           0        0.623739    0.335892   -0.271938
      3          1           0        2.612216    0.690467   -0.016280
      4          1           0        1.909044   -0.591693   -0.550268
      5          1           0        1.834168   -0.588199    1.279667
      6          6           0       -0.484117   -0.574303   -0.080929
      7          1           0        0.571498    1.019693   -1.316125
      8          1           0        0.532555    0.967822    0.465801
      9          6           0       -1.977902    0.173058    0.079639
     10          1           0       -0.228777   -1.101317    0.925409
     11          1           0       -0.498378   -1.413417   -0.813801
     12          1           0       -2.319477    1.535440    1.025267
     13          1           0       -2.793777   -0.630420   -0.023578
     14          1           0       -1.894675    0.441990   -0.488591
 ---------------------------------------------------------------------

 SCF Done:  E(RB2PLYPD3) =  -157.505434823     A.U. after   12 cycles
 E2(B2PLYPD3) =    -0.2543783245D+00 E(B2PLYPD3) =    -0.15775981314754D+03

 The electronic state is 1-A.
 Alpha  occ. eigenvalues --  -10.63046 -10.62507 -10.59252 -10.58187  -0.96651
 Alpha  occ. eigenvalues --   -0.88786  -0.76826  -0.66549  -0.56331  -0.53123
 Alpha  occ. eigenvalues --   -0.51349  -0.46287  -0.44190  -0.39673  -0.38067
 Alpha  occ. eigenvalues --   -0.36028  -0.32083
 Alpha virt. eigenvalues --    0.01570   0.06024   0.06816   0.07692   0.10718
 Alpha virt. eigenvalues --    0.10876   0.12084   0.12934   0.14449   0.15148
 Alpha virt. eigenvalues --    0.15648   0.15749   0.18219   0.19446   0.21285

 Mulliken charges:
               1
     1  C   -0.179587
     2  C   -0.078199
     3  H    0.060347
     4  H    0.065180
     5  H    0.044693
     6  C   -0.010839
     7  H   -0.000077
     8  H    0.090041
     9  C   -0.771685
    10  H    0.023562
    11  H    0.033753
    12  H    0.009903
    13  H    0.099287
    14  H    0.613622
 Sum of Mulliken charges =   0.00000

 Dipole moment (field-independent basis, Debye):
    X=              0.2482    Y=             -0.1669    Z=             -0.5957  Tot=              0.6666
 Quadrupole moment (field-independent basis, Debye-Ang):
   XX=            -30.4007   YY=            -28.9792   ZZ=            -28.6648
   XY=              1.6523   XZ=              1.0216   YZ=              0.0985

 Normal termination of Gaussian 09 at Wed Aug 26 23:29:00 2020.
