 Gaussian 09, Revision D.01,
 Gaussian 09:  ES64L-G09RevD.01 24-Apr-2013

 --------------------
 #p B2PLYPD3/Def2QZVP
 --------------------

 ----------
 butane_opt
 ----------
 Symbolic Z-matrix:
 Charge =  0 Multiplicity = 1

                         Standard orientation:
 ---------------------------------------------------------------------
 Center     Atomic      Atomic             Coordinates (Angstroms)
 Number     Number       Type             X           Y           Z
 ---------------------------------------------------------------------
      1          6           0        1.917652    0.088198   -0.183311
      2          6           0        0.618784   -0.462899    0.204697
      3          1           0        2.916668   -0.805179   -0.378791
      4          1           0        2.266971    0.392232    0.487536
      5          1           0        1.982090    0.907645   -1.178834
      6          6           0       -0.516884    0.574354    0.301782
      7          1           0        0.756555   -1.220577    1.183190
      8          1           0        0.403935   -1.065109   -0.615859
      9          6           0       -2.075926   -0.125807   -0.170970
     10          1           0       -0.299504    1.174299   -0.554297
     11          1           0       -0.219890    1.441206    1.150967
     12          1           0       -1.907083   -0.933414   -1.102025
     13          1           0       -2.847326    0.649946   -0.663769
     14          1           0       -2.714173   -0.984121    0.758692
 ---------------------------------------------------------------------

 SCF Done:  E(RB2PLYPD3) =  -157.858317168     A.U. after   11 cycles
 E2(B2PLYPD3) =    -0.2548354308D+00 E(B2PLYPD3) =    -0.15811315259853D+03

 The electronic state is 1-A.
 Alpha  occ. eigenvalues --  -10.68178 -10.64954 -10.61855 -10.61105  -0.91712
 Alpha  occ. eigenvalues --   -0.80898  -0.72035  -0.66735  -0.53321  -0.47981
 Alpha  occ. eigenvalues --   -0.45970  -0.44679  -0.41541  -0.40005  -0.38077
 Alpha  occ. eigenvalues --   -0.36643  -0.35712
 Alpha virt. eigenvalues --    0.04425   0.04855   0.07311   0.07716   0.09881
 Alpha virt. eigenvalues --    0.10501   0.11307   0.11979   0.13961   0.14837
 Alpha virt. eigenvalues --    0.15342   0.15822   0.18194   0.18816   0.19709

 Mulliken charges:
               1
     1  C   -0.311253
     2  C   -0.011553
     3  H    0.011004
     4  H    0.203949
     5  H    0.035739
     6  C   -0.068591
     7  H    0.015470
     8  H    0.070677
     9  C   -0.176254
    10  H    0.050322
    11  H    0.032997
    12  H    0.046844
    13  H    0.067989
    14  H    0.032659
 Sum of Mulliken charges =   0.00000

 Dipole moment (field-independent basis, Debye):
    X=              0.1426    Y=              0.3108    Z=             -0.3015  Tot=              0.4559
 Quadrupole moment (field-independent basis, Debye-Ang):
   XX=            -30.7525   YY=            -29.4433   ZZ=            -29.4146
   XY=              0.4700   XZ=              1.8224   YZ=             -0.3130

 Normal termination of Gaussian 09 at Wed Aug 26 22:15:35 2020.
