 Gaussian 09, Revision D.01,
 Gaussian 09:  ES64L-G09RevD.01 24-Apr-2013

 --------------------
 #p B2PLYPD3/Def2QZVP
 --------------------

 ----------
 butane_opt
 ----------
 Symbolic Z-matrix:
 Charge =  0 Multiplicity = 1

                         Standard orientation:
 ---------------------------------------------------------------------
 Center     Atomic      Atomic             Coordinates (Angstroms)
 Number     Number       Type             X           Y           Z
 ---------------------------------------------------------------------
      1          6           0       -2.003798   -0.199793   -0.104286
      2          6           0       -0.541649    0.614640    0.010043
      3          1           0       -2.744318    0.421559   -0.220390
      4          1           0       -2.323694   -0.483851    0.807431
      5          1           0       -2.205834   -1.054489   -0.942825
      6          6           0        0.577283   -0.383729    0.299824
      7          1           0       -0.405977    1.581924    0.818999
      8          1           0       -0.205047    0.801571   -0.738884
      9          6           0        1.921327    0.009380   -0.159790
     10          1           0        0.365489   -0.871970   -0.189470
     11          1           0        0.690716   -1.027196    1.489718
     12          1           0        1.348375    0.424313   -1.175868
     13          1           0        2.935926   -1.048667   -0.636334
     14          1           0        2.825387    1.013819    0.512876
 ---------------------------------------------------------------------

 SCF Done:  E(RB2PLYPD3) =  -157.614244440     A.U. after   12 cycles
 E2(B2PLYPD3) =    -0.2563358491D+00 E(B2PLYPD3) =    -0.15787058028901D+03

 The electronic state is 1-A.
 Alpha  occ. eigenvalues --  -10.69045 -10.62322 -10.61034 -10.60175  -0.97062
 Alpha  occ. eigenvalues --   -0.83759  -0.75561  -0.68566  -0.54996  -0.48400
 Alpha  occ. eigenvalues --   -0.47303  -0.46817  -0.42649  -0.41023  -0.40288
 Alpha  occ. eigenvalues --   -0.35182  -0.34026
 Alpha virt. eigenvalues --    0.02569   0.05802   0.06973   0.07688   0.07977
 Alpha virt. eigenvalues --    0.09751   0.12169   0.13405   0.13903   0.14319
 Alpha virt. eigenvalues --    0.15727   0.16850   0.18254   0.18938   0.20106

 Mulliken charges:
               1
     1  C   -0.128026
     2  C   -0.208438
     3  H    0.054168
     4  H    0.056785
     5  H    0.037965
     6  C   -0.537481
     7  H    0.041838
     8  H    0.220605
     9  C   -0.157191
    10  H    0.514797
    11  H    0.008493
    12  H    0.025822
    13  H    0.029507
    14  H    0.041157
 Sum of Mulliken charges =   0.00000

 Dipole moment (field-independent basis, Debye):
    X=             -0.9506    Y=              0.0631    Z=             -0.3473  Tot=              1.0140
 Quadrupole moment (field-independent basis, Debye-Ang):
   XX=            -29.2104   YY=            -30.0604   ZZ=            -29.7495
   XY=              0.2883   XZ=              0.3279   YZ=              1.2414

 Normal termination of Gaussian 09 at Wed Aug 26 12:23:57 2020.
