 Gaussian 09, Revision D.01,
 Gaussian 09:  ES64L-G09RevD.01 24-Apr-2013

 --------------------
 #p B2PLYPD3/Def2QZVP
 --------------------

 ----------
 butane_opt
 ----------
 Symbolic Z-matrix:
 Charge =  0 Multiplicity = 1

                         Standard orientation:
 ---------------------------------------------------------------------
 Center     Atomic      Atomic             Coordinates (Angstroms)
 Number     Number       Type             X           Y           Z
 ---------------------------------------------------------------------
      1          6           0       -1.968714    0.143887    0.111398
      2          6           0       -0.445971   -0.538198   -0.225677
      3          1           0       -2.665422   -0.630503    0.896389
      4          1           0       -2.665336    1.277240   -0.937629
      5          1           0       -1.660164    0.413940    0.740859
      6          6           0        0.595543    0.376789   -0.082478
      7          1           0       -0.540264   -1.364143   -1.151317
      8          1           0       -0.413610   -0.951964    0.579962
      9          6           0        1.889684   -0.110083    0.039168
     10          1           0        0.270821    1.251729    0.875769
     11          1           0        0.565188    1.094337   -0.855495
     12          1           0        1.718356   -0.935302    1.090598
     13          1           0        2.870030    1.049662    0.373427
     14          1           0        2.097146   -0.439368   -0.667027
 ---------------------------------------------------------------------

 SCF Done:  E(RB2PLYPD3) =  -157.535055073     A.U. after   12 cycles
 E2(B2PLYPD3) =    -0.2585877727D+00 E(B2PLYPD3) =    -0.15779364284611D+03

 The electronic state is 1-A.
 Alpha  occ. eigenvalues --  -10.64175 -10.63694 -10.62022 -10.61853  -0.97361
 Alpha  occ. eigenvalues --   -0.87825  -0.77199  -0.68037  -0.57775  -0.51087
 Alpha  occ. eigenvalues --   -0.48781  -0.46205  -0.41838  -0.39313  -0.36197
 Alpha  occ. eigenvalues --   -0.35404  -0.34955
 Alpha virt. eigenvalues --    0.01024   0.02452   0.06476   0.06618   0.08687
 Alpha virt. eigenvalues --    0.09421   0.11105   0.12304   0.13258   0.14802
 Alpha virt. eigenvalues --    0.15286   0.16530   0.17111   0.18802   0.19887

 Mulliken charges:
               1
     1  C   -0.561234
     2  C   -0.149273
     3  H    0.037558
     4  H    0.032405
     5  H    0.442927
     6  C    0.027400
     7  H    0.036357
     8  H    0.150415
     9  C   -0.321487
    10  H   -0.012510
    11  H    0.039501
    12  H    0.027948
    13  H    0.015196
    14  H    0.234800
 Sum of Mulliken charges =   0.00000

 Dipole moment (field-independent basis, Debye):
    X=              0.3122    Y=             -0.2293    Z=              0.0747  Tot=              0.3945
 Quadrupole moment (field-independent basis, Debye-Ang):
   XX=            -33.8058   YY=            -29.7558   ZZ=            -28.4646
   XY=              0.1545   XZ=             -1.9693   YZ=             -0.5379

 Normal termination of Gaussian 09 at Wed Aug 26 13:12:01 2020.
