 Gaussian 09, Revision D.01,
 Gaussian 09:  ES64L-G09RevD.01 24-Apr-2013

 --------------------
 #p B2PLYPD3/Def2QZVP
 --------------------

 ----------
 butane_opt
 ----------
 Symbolic Z-matrix:
 Charge =  0 Multiplicity = 1

                         Standard orientation:
 ---------------------------------------------------------------------
 Center     Atomic      Atomic             Coordinates (Angstroms)
 Number     Number       Type             X           Y           Z
 ---------------------------------------------------------------------
      1          6           0        2.059801   -0.111461   -0.072113
      2          6           0        0.537103    0.592608    0.109837
      3          1           0        2.640414    0.402748   -0.150807
      4          1           0        1.717822   -0.849989   -1.014102
      5          1           0        2.503595   -0.525012    0.498891
      6          6           0       -0.632430   -0.539574    0.215330
      7          1           0        0.431130    1.282696   -0.818009
      8          1           0        0.323906    1.066800    0.890842
      9          6           0       -1.926618    0.079719   -0.148074
     10          1           0       -0.566991   -1.280401    1.139982
     11          1           0       -0.288491   -1.114430   -0.452130
     12          1           0       -2.610275    1.008512    0.879479
     13          1           0       -2.610318   -0.628733   -0.681178
     14          1           0       -1.767923    0.510065   -0.922843
 ---------------------------------------------------------------------

 SCF Done:  E(RB2PLYPD3) =  -157.725972726     A.U. after   11 cycles
 E2(B2PLYPD3) =    -0.2497587435D+00 E(B2PLYPD3) =    -0.15797573146911D+03

 The electronic state is 1-A.
 Alpha  occ. eigenvalues --  -10.61877 -10.61256 -10.60444 -10.56345  -0.91855
 Alpha  occ. eigenvalues --   -0.87869  -0.77619  -0.69617  -0.55505  -0.50715
 Alpha  occ. eigenvalues --   -0.48893  -0.47954  -0.43784  -0.40742  -0.37983
 Alpha  occ. eigenvalues --   -0.37314  -0.34923
 Alpha virt. eigenvalues --    0.04255   0.06062   0.07983   0.08385   0.10387
 Alpha virt. eigenvalues --    0.11239   0.12371   0.14177   0.14924   0.15076
 Alpha virt. eigenvalues --    0.16581   0.17309   0.18418   0.19143   0.20856

 Mulliken charges:
               1
     1  C   -0.381558
     2  C   -0.078606
     3  H    0.204530
     4  H    0.031451
     5  H    0.105367
     6  C   -0.074320
     7  H    0.029804
     8  H    0.089869
     9  C   -0.215286
    10  H    0.026390
    11  H    0.085381
    12  H    0.015646
    13  H    0.037066
    14  H    0.124266
 Sum of Mulliken charges =   0.00000

 Dipole moment (field-independent basis, Debye):
    X=              0.5209    Y=             -0.1078    Z=             -0.3680  Tot=              0.6469
 Quadrupole moment (field-independent basis, Debye-Ang):
   XX=            -29.2160   YY=            -28.8630   ZZ=            -28.0824
   XY=              0.4296   XZ=              1.7970   YZ=              0.2018

 Normal termination of Gaussian 09 at Wed Aug 26 10:48:35 2020.
