 Gaussian 09, Revision D.01,
 Gaussian 09:  ES64L-G09RevD.01 24-Apr-2013

 --------------------
 #p B2PLYPD3/Def2QZVP
 --------------------

 ----------
 butane_opt
 ----------
 Symbolic Z-matrix:
 Charge =  0 Multiplicity = 1

                         Standard orientation:
 ---------------------------------------------------------------------
 Center     Atomic      Atomic             Coordinates (Angstroms)
 Number     Number       Type             X           Y           Z
 ---------------------------------------------------------------------
      1          6           0        2.004466   -0.129021    0.007266
      2          6           0        0.550439    0.531037   -0.058538
      3          1           0        2.694201    0.480964   -0.156870
      4          1           0        2.138578   -0.636461   -0.674499
      5          1           0        2.212176   -0.840321    1.005842
      6          6           0       -0.565830   -0.477623    0.053842
      7          1           0        0.340234    1.266852   -1.061062
      8          1           0        0.486317    1.196926    0.782151
      9          6           0       -1.976833    0.097044    0.032792
     10          1           0       -0.579882   -1.047465    0.875377
     11          1           0       -0.522984   -1.346982   -0.821539
     12          1           0       -2.201968    1.022698    1.026414
     13          1           0       -2.838915   -0.745558   -0.478563
     14          1           0       -1.801209    0.520728   -0.709422
 ---------------------------------------------------------------------

 SCF Done:  E(RB2PLYPD3) =  -157.880515508     A.U. after   11 cycles
 E2(B2PLYPD3) =    -0.2499276229D+00 E(B2PLYPD3) =    -0.15813044313092D+03

 The electronic state is 1-A.
 Alpha  occ. eigenvalues --  -10.63159 -10.61671 -10.61022 -10.57838  -0.91946
 Alpha  occ. eigenvalues --   -0.85704  -0.75158  -0.67049  -0.53675  -0.49589
 Alpha  occ. eigenvalues --   -0.48136  -0.46688  -0.42511  -0.40539  -0.39023
 Alpha  occ. eigenvalues --   -0.37468  -0.36389
 Alpha virt. eigenvalues --    0.04775   0.06211   0.07361   0.07901   0.10257
 Alpha virt. eigenvalues --    0.11799   0.12431   0.13131   0.14112   0.15408
 Alpha virt. eigenvalues --    0.15926   0.16490   0.18984   0.19718   0.21183

 Mulliken charges:
               1
     1  C   -0.201726
     2  C   -0.038716
     3  H    0.049884
     4  H    0.111763
     5  H    0.031098
     6  C   -0.014001
     7  H    0.004745
     8  H    0.046994
     9  C   -0.285800
    10  H    0.056326
    11  H   -0.006829
    12  H    0.031639
    13  H    0.038098
    14  H    0.176525
 Sum of Mulliken charges =   0.00000

 Dipole moment (field-independent basis, Debye):
    X=              0.5761    Y=              0.0314    Z=             -0.3013  Tot=              0.6509
 Quadrupole moment (field-independent basis, Debye-Ang):
   XX=            -30.2060   YY=            -28.9934   ZZ=            -28.3393
   XY=              0.2508   XZ=              0.1253   YZ=              0.3914

 Normal termination of Gaussian 09 at Wed Aug 26 21:41:07 2020.
