 Gaussian 09, Revision D.01,
 Gaussian 09:  ES64L-G09RevD.01 24-Apr-2013

 --------------------
 #p B2PLYPD3/Def2QZVP
 --------------------

 ----------
 butane_opt
 ----------
 Symbolic Z-matrix:
 Charge =  0 Multiplicity = 1

                         Standard orientation:
 ---------------------------------------------------------------------
 Center     Atomic      Atomic             Coordinates (Angstroms)
 Number     Number       Type             X           Y           Z
 ---------------------------------------------------------------------
      1          6           0       -1.963074    0.092363    0.079080
      2          6           0       -0.624711   -0.478074   -0.201028
      3          1           0       -2.775818   -0.664957    0.478097
      4          1           0       -2.353085    0.880968   -0.782646
      5          1           0       -1.664289    0.522168    0.996453
      6          6           0        0.548080    0.547191   -0.032062
      7          1           0       -0.490203   -1.099640   -1.098675
      8          1           0       -0.515791   -1.140842    0.639698
      9          6           0        2.028959   -0.157027    0.036927
     10          1           0        0.273469    1.154700    0.938995
     11          1           0        0.551865    1.296591   -0.918798
     12          1           0        2.047906   -0.952718    0.932642
     13          1           0        2.823276    0.528008    0.238778
     14          1           0        2.167145   -0.550996   -0.722041
 ---------------------------------------------------------------------

 SCF Done:  E(RB2PLYPD3) =  -158.027261059     A.U. after   11 cycles
 E2(B2PLYPD3) =    -0.2485142461D+00 E(B2PLYPD3) =    -0.15827577530478D+03

 The electronic state is 1-A.
 Alpha  occ. eigenvalues --  -10.63243 -10.61638 -10.60555 -10.59232  -0.90873
 Alpha  occ. eigenvalues --   -0.83723  -0.72825  -0.65591  -0.54028  -0.50579
 Alpha  occ. eigenvalues --   -0.48443  -0.46929  -0.41881  -0.40505  -0.39323
 Alpha  occ. eigenvalues --   -0.37675  -0.36446
 Alpha virt. eigenvalues --    0.05575   0.06717   0.08222   0.08566   0.10600
 Alpha virt. eigenvalues --    0.11748   0.12553   0.13550   0.14433   0.15189
 Alpha virt. eigenvalues --    0.15961   0.16822   0.19023   0.19587   0.21340

 Mulliken charges:
               1
     1  C   -0.167865
     2  C   -0.041453
     3  H    0.044619
     4  H    0.038944
     5  H    0.061405
     6  C   -0.056861
     7  H    0.028857
     8  H    0.046822
     9  C   -0.213016
    10  H    0.023234
    11  H    0.023319
    12  H    0.024634
    13  H    0.050276
    14  H    0.137086
 Sum of Mulliken charges =   0.00000

 Dipole moment (field-independent basis, Debye):
    X=              0.2532    Y=             -0.1634    Z=              0.0376  Tot=              0.3037
 Quadrupole moment (field-independent basis, Debye-Ang):
   XX=            -29.6713   YY=            -29.5788   ZZ=            -28.0981
   XY=              0.5082   XZ=             -0.7096   YZ=             -0.4120

 Normal termination of Gaussian 09 at Wed Aug 26 22:52:02 2020.
