 Gaussian 09, Revision D.01,
 Gaussian 09:  ES64L-G09RevD.01 24-Apr-2013

 --------------------
 #p B2PLYPD3/Def2QZVP
 --------------------

 ----------
 butane_opt
 ----------
 Symbolic Z-matrix:
 Charge =  0 Multiplicity = 1

                         Standard orientation:
 ---------------------------------------------------------------------
 Center     Atomic      Atomic             Coordinates (Angstroms)
 Number     Number       Type             X           Y           Z
 ---------------------------------------------------------------------
      1          6           0        1.963103   -0.142384   -0.188655
      2          6           0        0.550518    0.616956    0.148560
      3          1           0        2.643222    0.440347   -0.286460
      4          1           0        2.100945   -0.973796   -1.089028
      5          1           0        2.584443   -0.699461    0.916217
      6          6           0       -0.600264   -0.533150    0.292590
      7          1           0        0.084377    1.265173   -0.933916
      8          1           0        0.575713    1.427595    1.067490
      9          6           0       -1.958619    0.059616   -0.150922
     10          1           0       -0.478354   -1.120245    1.261248
     11          1           0       -0.554930   -1.100784   -0.523132
     12          1           0       -2.538395    0.919725    0.694652
     13          1           0       -2.822186   -0.767555   -0.639128
     14          1           0       -1.323258    0.602778   -1.077380
 ---------------------------------------------------------------------

 SCF Done:  E(RB2PLYPD3) =  -157.892277137     A.U. after   11 cycles
 E2(B2PLYPD3) =    -0.2571611178D+00 E(B2PLYPD3) =    -0.15814943825434D+03

 The electronic state is 1-A.
 Alpha  occ. eigenvalues --  -10.67238 -10.65934 -10.63508 -10.61736  -0.89660
 Alpha  occ. eigenvalues --   -0.81876  -0.70178  -0.64724  -0.53327  -0.48740
 Alpha  occ. eigenvalues --   -0.47662  -0.42416  -0.42050  -0.39432  -0.37371
 Alpha  occ. eigenvalues --   -0.36433  -0.34830
 Alpha virt. eigenvalues --    0.04604   0.05005   0.07231   0.07577   0.09411
 Alpha virt. eigenvalues --    0.10465   0.11702   0.12407   0.14074   0.14352
 Alpha virt. eigenvalues --    0.15590   0.16779   0.18008   0.19023   0.19671

 Mulliken charges:
               1
     1  C   -0.192022
     2  C   -0.058031
     3  H    0.120861
     4  H    0.048718
     5  H   -0.001028
     6  C   -0.086024
     7  H    0.003992
     8  H    0.054917
     9  C   -0.181691
    10  H    0.050649
    11  H    0.103223
    12  H    0.031804
    13  H    0.046256
    14  H    0.058374
 Sum of Mulliken charges =   0.00000

 Dipole moment (field-independent basis, Debye):
    X=              0.4948    Y=             -0.0634    Z=             -0.1363  Tot=              0.5171
 Quadrupole moment (field-independent basis, Debye-Ang):
   XX=            -30.8617   YY=            -30.0987   ZZ=            -29.2137
   XY=              1.0762   XZ=             -0.4801   YZ=              1.2907

 Normal termination of Gaussian 09 at Wed Aug 26 12:24:44 2020.
