 Gaussian 09, Revision D.01,
 Gaussian 09:  ES64L-G09RevD.01 24-Apr-2013

 --------------------
 #p B2PLYPD3/Def2QZVP
 --------------------

 ----------
 butane_opt
 ----------
 Symbolic Z-matrix:
 Charge =  0 Multiplicity = 1

                         Standard orientation:
 ---------------------------------------------------------------------
 Center     Atomic      Atomic             Coordinates (Angstroms)
 Number     Number       Type             X           Y           Z
 ---------------------------------------------------------------------
      1          6           0       -1.919534    0.082809    0.173403
      2          6           0       -0.612349   -0.482915   -0.212681
      3          1           0       -2.567824   -0.580424   -0.027683
      4          1           0       -2.173739    0.461857   -0.467807
      5          1           0       -1.853303    0.709517    1.153986
      6          6           0        0.577978    0.618728   -0.195051
      7          1           0       -0.697262   -0.962212   -1.061508
      8          1           0       -0.466372   -1.247681    0.601170
      9          6           0        1.972745   -0.122242    0.106632
     10          1           0        0.397331    0.993555    0.714352
     11          1           0        0.302002    1.435172   -1.021538
     12          1           0        1.632555   -0.937385    0.958638
     13          1           0        2.606276    0.211526    0.926493
     14          1           0        2.707295   -0.662206   -1.009921
 ---------------------------------------------------------------------

 SCF Done:  E(RB2PLYPD3) =  -157.850209896     A.U. after   11 cycles
 E2(B2PLYPD3) =    -0.2511172918D+00 E(B2PLYPD3) =    -0.15810132718811D+03

 The electronic state is 1-A.
 Alpha  occ. eigenvalues --  -10.65181 -10.62394 -10.59118 -10.54938  -0.93114
 Alpha  occ. eigenvalues --   -0.84670  -0.73725  -0.67793  -0.55844  -0.50162
 Alpha  occ. eigenvalues --   -0.47888  -0.46946  -0.42072  -0.41226  -0.37668
 Alpha  occ. eigenvalues --   -0.37081  -0.34681
 Alpha virt. eigenvalues --    0.04830   0.06258   0.07886   0.08595   0.10577
 Alpha virt. eigenvalues --    0.11227   0.11737   0.13779   0.14279   0.15180
 Alpha virt. eigenvalues --    0.16371   0.16697   0.18620   0.19078   0.21435

 Mulliken charges:
               1
     1  C   -0.328972
     2  C    0.016087
     3  H    0.034590
     4  H    0.201674
     5  H    0.057098
     6  C   -0.121359
     7  H    0.032668
     8  H    0.022228
     9  C   -0.183595
    10  H    0.087572
    11  H    0.042911
    12  H    0.035536
    13  H    0.066444
    14  H    0.037118
 Sum of Mulliken charges =   0.00000

 Dipole moment (field-independent basis, Debye):
    X=             -0.6321    Y=              0.1341    Z=              0.1238  Tot=              0.6579
 Quadrupole moment (field-independent basis, Debye-Ang):
   XX=            -29.9685   YY=            -29.9401   ZZ=            -27.0830
   XY=              0.0556   XZ=              2.0314   YZ=              0.2750

 Normal termination of Gaussian 09 at Wed Aug 26 14:20:43 2020.
