 Gaussian 09, Revision D.01,
 Gaussian 09:  ES64L-G09RevD.01 24-Apr-2013

 --------------------
 #p B2PLYPD3/Def2QZVP
 --------------------

 ----------
 butane_opt
 ----------
 Symbolic Z-matrix:
 Charge =  0 Multiplicity = 1

                         Standard orientation:
 ---------------------------------------------------------------------
 Center     Atomic      Atomic             Coordinates (Angstroms)
 Number     Number       Type             X           Y           Z
 ---------------------------------------------------------------------
      1          6           0        1.893195   -0.008374   -0.220423
      2          6           0        0.588591   -0.361884    0.158156
      3          1           0        2.808192   -0.876531   -0.111805
      4          1           0        2.211803    0.795198    0.677445
      5          1           0        1.736606    0.704117   -1.146439
      6          6           0       -0.489121    0.551574    0.183020
      7          1           0        0.750167   -1.232792    1.337830
      8          1           0        0.058710   -0.813262   -0.518008
      9          6           0       -1.978861   -0.187503   -0.133480
     10          1           0       -0.320524    1.062912   -0.597412
     11          1           0       -0.445508    1.597289    1.035929
     12          1           0       -1.810200   -0.851223   -0.951770
     13          1           0       -2.663618    0.431600   -0.479741
     14          1           0       -2.408453   -0.780187    0.830331
 ---------------------------------------------------------------------

 SCF Done:  E(RB2PLYPD3) =  -157.907940883     A.U. after   11 cycles
 E2(B2PLYPD3) =    -0.2534141603D+00 E(B2PLYPD3) =    -0.15816135504295D+03

 The electronic state is 1-A.
 Alpha  occ. eigenvalues --  -10.64208 -10.62958 -10.61909 -10.61726  -0.96133
 Alpha  occ. eigenvalues --   -0.83155  -0.75326  -0.65923  -0.53732  -0.51037
 Alpha  occ. eigenvalues --   -0.49002  -0.46764  -0.44923  -0.40426  -0.39217
 Alpha  occ. eigenvalues --   -0.35148  -0.33255
 Alpha virt. eigenvalues --    0.04427   0.06231   0.06636   0.07873   0.10471
 Alpha virt. eigenvalues --    0.10838   0.12417   0.12576   0.13987   0.14768
 Alpha virt. eigenvalues --    0.15665   0.15806   0.18228   0.19805   0.20285

 Mulliken charges:
               1
     1  C   -0.161751
     2  C   -0.022649
     3  H    0.075691
     4  H    0.030874
     5  H    0.034526
     6  C   -0.114471
     7  H   -0.041661
     8  H    0.093790
     9  C   -0.149071
    10  H    0.093015
    11  H   -0.006670
    12  H    0.050772
    13  H    0.066673
    14  H    0.050933
 Sum of Mulliken charges =   0.00000

 Dipole moment (field-independent basis, Debye):
    X=             -0.3260    Y=              0.1058    Z=             -1.0091  Tot=              1.0657
 Quadrupole moment (field-independent basis, Debye-Ang):
   XX=            -28.9509   YY=            -30.3942   ZZ=            -29.7628
   XY=             -0.3985   XZ=              1.0243   YZ=             -0.3263

 Normal termination of Gaussian 09 at Wed Aug 26 12:13:45 2020.
