 Gaussian 09, Revision D.01,
 Gaussian 09:  ES64L-G09RevD.01 24-Apr-2013

 --------------------
 #p B2PLYPD3/Def2QZVP
 --------------------

 ----------
 butane_opt
 ----------
 Symbolic Z-matrix:
 Charge =  0 Multiplicity = 1

                         Standard orientation:
 ---------------------------------------------------------------------
 Center     Atomic      Atomic             Coordinates (Angstroms)
 Number     Number       Type             X           Y           Z
 ---------------------------------------------------------------------
      1          6           0       -1.981196    0.082268   -0.075017
      2          6           0       -0.614581   -0.596878    0.098986
      3          1           0       -2.799528   -0.547483   -0.647445
      4          1           0       -1.441519    0.433548   -0.905486
      5          1           0       -2.547309    1.110656    0.981744
      6          6           0        0.579778    0.593644    0.006058
      7          1           0       -0.455651   -1.045643   -0.524896
      8          1           0       -0.551993   -1.309936    1.132066
      9          6           0        1.978538   -0.111472   -0.062804
     10          1           0        0.433284    1.553991    1.101500
     11          1           0        0.359424    1.093019   -0.845542
     12          1           0        2.329236   -1.004391    1.030800
     13          1           0        2.663668    0.535850   -0.212119
     14          1           0        2.235150   -0.624981   -0.913963
 ---------------------------------------------------------------------

 SCF Done:  E(RB2PLYPD3) =  -157.746046636     A.U. after   11 cycles
 E2(B2PLYPD3) =    -0.2560420811D+00 E(B2PLYPD3) =    -0.15800208871745D+03

 The electronic state is 1-A.
 Alpha  occ. eigenvalues --  -10.65582 -10.64501 -10.62102 -10.61396  -0.92645
 Alpha  occ. eigenvalues --   -0.84766  -0.72469  -0.69385  -0.53289  -0.50269
 Alpha  occ. eigenvalues --   -0.48181  -0.46710  -0.40279  -0.38899  -0.37336
 Alpha  occ. eigenvalues --   -0.36398  -0.34367
 Alpha virt. eigenvalues --    0.03048   0.04625   0.07005   0.07948   0.08512
 Alpha virt. eigenvalues --    0.10184   0.11617   0.12433   0.13752   0.15051
 Alpha virt. eigenvalues --    0.15911   0.17121   0.17802   0.18984   0.19801

 Mulliken charges:
               1
     1  C   -0.188819
     2  C   -0.319580
     3  H    0.051917
     4  H    0.065589
     5  H    0.043727
     6  C   -0.076164
     7  H    0.316250
     8  H    0.027363
     9  C   -0.148892
    10  H    0.011433
    11  H    0.088970
    12  H    0.026608
    13  H    0.068980
    14  H    0.032618
 Sum of Mulliken charges =   0.00000

 Dipole moment (field-independent basis, Debye):
    X=              0.4896    Y=             -0.1298    Z=             -1.1983  Tot=              1.3010
 Quadrupole moment (field-independent basis, Debye-Ang):
   XX=            -30.4047   YY=            -30.1300   ZZ=            -28.6537
   XY=              0.5884   XZ=             -1.0138   YZ=              0.6216

 Normal termination of Gaussian 09 at Wed Aug 26 21:09:27 2020.
