 Gaussian 09, Revision D.01,
 Gaussian 09:  ES64L-G09RevD.01 24-Apr-2013

 --------------------
 #p B2PLYPD3/Def2QZVP
 --------------------

 ----------
 butane_opt
 ----------
 Symbolic Z-matrix:
 Charge =  0 Multiplicity = 1

                         Standard orientation:
 ---------------------------------------------------------------------
 Center     Atomic      Atomic             Coordinates (Angstroms)
 Number     Number       Type             X           Y           Z
 ---------------------------------------------------------------------
      1          6           0       -1.874972    0.031814   -0.067854
      2          6           0       -0.502724   -0.440047    0.136284
      3          1           0       -2.653138   -0.961526   -0.277822
      4          1           0       -1.735638    0.643228   -0.938987
      5          1           0       -2.120351    0.752947    0.750402
      6          6           0        0.474374    0.582314   -0.044797
      7          1           0       -0.482685   -0.715873   -0.472249
      8          1           0       -0.529025   -1.140226    1.116455
      9          6           0        1.919669   -0.105768   -0.062787
     10          1           0        0.321169    1.502115    0.908936
     11          1           0        0.342271    0.929956   -0.882571
     12          1           0        2.146158   -0.695006    0.853608
     13          1           0        2.426595    0.340440    0.261535
     14          1           0        2.186568   -1.065930   -1.084386
 ---------------------------------------------------------------------

 SCF Done:  E(RB2PLYPD3) =  -157.510016808     A.U. after   11 cycles
 E2(B2PLYPD3) =    -0.2508044057D+00 E(B2PLYPD3) =    -0.15776082121372D+03

 The electronic state is 1-A.
 Alpha  occ. eigenvalues --  -10.61571 -10.61141 -10.60114 -10.55948  -0.98198
 Alpha  occ. eigenvalues --   -0.87154  -0.76456  -0.69846  -0.57963  -0.50632
 Alpha  occ. eigenvalues --   -0.49847  -0.45649  -0.42501  -0.40403  -0.39026
 Alpha  occ. eigenvalues --   -0.37561  -0.35638
 Alpha virt. eigenvalues --    0.05320   0.05475   0.07338   0.08314   0.10058
 Alpha virt. eigenvalues --    0.11356   0.11981   0.13458   0.14911   0.15255
 Alpha virt. eigenvalues --    0.15308   0.16736   0.19321   0.19910   0.20581

 Mulliken charges:
               1
     1  C   -0.131570
     2  C   -0.714888
     3  H    0.036810
     4  H    0.038364
     5  H    0.050059
     6  C   -0.017617
     7  H    0.628184
     8  H    0.056673
     9  C   -0.445218
    10  H   -0.007720
    11  H    0.106838
    12  H    0.033239
    13  H    0.322246
    14  H    0.044601
 Sum of Mulliken charges =   0.00000

 Dipole moment (field-independent basis, Debye):
    X=              0.2439    Y=             -0.1103    Z=             -0.0964  Tot=              0.2846
 Quadrupole moment (field-independent basis, Debye-Ang):
   XX=            -30.4763   YY=            -29.0361   ZZ=            -27.8041
   XY=              0.2237   XZ=              0.8517   YZ=              0.4710

 Normal termination of Gaussian 09 at Wed Aug 26 22:31:50 2020.
