 Gaussian 09, Revision D.01,
 Gaussian 09:  ES64L-G09RevD.01 24-Apr-2013

 --------------------
 #p B2PLYPD3/Def2QZVP
 --------------------

 ----------
 butane_opt
 ----------
 Symbolic Z-matrix:
 Charge =  0 Multiplicity = 1

                         Standard orientation:
 ---------------------------------------------------------------------
 Center     Atomic      Atomic             Coordinates (Angstroms)
 Number     Number       Type             X           Y           Z
 ---------------------------------------------------------------------
      1          6           0        1.932022   -0.196261   -0.161470
      2          6           0        0.463465    0.571311    0.212612
      3          1           0        2.654960    0.427275   -0.831215
      4          1           0        1.562769   -0.610486   -0.870060
      5          1           0        2.962479   -0.853322    0.792363
      6          6           0       -0.554044   -0.466649    0.135033
      7          1           0        0.277252    0.987350   -0.530279
      8          1           0        0.411604    1.829037    1.298325
      9          6           0       -1.907678    0.072733   -0.191579
     10          1           0       -0.748082   -1.216188    1.408919
     11          1           0       -0.338560   -0.821630   -0.461527
     12          1           0       -2.019504    0.506294    0.499973
     13          1           0       -2.689941   -0.884004   -0.139052
     14          1           0       -1.675570    0.748875   -1.135024
 ---------------------------------------------------------------------

 SCF Done:  E(RB2PLYPD3) =  -157.504419655     A.U. after   12 cycles
 E2(B2PLYPD3) =    -0.2568442475D+00 E(B2PLYPD3) =    -0.15776126390237D+03

 The electronic state is 1-A.
 Alpha  occ. eigenvalues --  -10.64945 -10.64610 -10.60794 -10.59832  -0.98287
 Alpha  occ. eigenvalues --   -0.85450  -0.76918  -0.71884  -0.56025  -0.49193
 Alpha  occ. eigenvalues --   -0.48882  -0.47210  -0.45066  -0.39107  -0.37948
 Alpha  occ. eigenvalues --   -0.35627  -0.34560
 Alpha virt. eigenvalues --    0.02062   0.03669   0.06167   0.06579   0.08647
 Alpha virt. eigenvalues --    0.10593   0.11104   0.12508   0.14418   0.14849
 Alpha virt. eigenvalues --    0.15916   0.16531   0.17536   0.18861   0.19477

 Mulliken charges:
               1
     1  C   -0.246887
     2  C   -0.184941
     3  H    0.028443
     4  H    0.146099
     5  H    0.055310
     6  C   -0.496515
     7  H    0.204133
     8  H   -0.014195
     9  C   -0.266032
    10  H   -0.014142
    11  H    0.476573
    12  H    0.221537
    13  H    0.053538
    14  H    0.037079
 Sum of Mulliken charges =   0.00000

 Dipole moment (field-independent basis, Debye):
    X=             -0.1150    Y=             -0.0946    Z=             -1.1631  Tot=              1.1726
 Quadrupole moment (field-independent basis, Debye-Ang):
   XX=            -29.8764   YY=            -30.8240   ZZ=            -28.9924
   XY=              0.0094   XZ=             -1.2954   YZ=             -0.3974

 Normal termination of Gaussian 09 at Wed Aug 26 13:14:05 2020.
