 Gaussian 09, Revision D.01,
 Gaussian 09:  ES64L-G09RevD.01 24-Apr-2013

 --------------------
 #p B2PLYPD3/Def2QZVP
 --------------------

 ----------
 butane_opt
 ----------
 Symbolic Z-matrix:
 Charge =  0 Multiplicity = 1

                         Standard orientation:
 ---------------------------------------------------------------------
 Center     Atomic      Atomic             Coordinates (Angstroms)
 Number     Number       Type             X           Y           Z
 ---------------------------------------------------------------------
      1          6           0       -2.000085   -0.194617   -0.095372
      2          6           0       -0.515129    0.593617    0.126787
      3          1           0       -2.792485    0.534382   -0.527352
      4          1           0       -2.660706   -0.890172    1.041976
      5          1           0       -1.975814   -0.671719   -0.823343
      6          6           0        0.615446   -0.393756    0.121161
      7          1           0       -0.448803    1.280960    0.844077
      8          1           0       -0.559972    0.931430   -0.503318
      9          6           0        1.984026    0.050220   -0.087522
     10          1           0        0.486589   -1.261367   -0.852031
     11          1           0        0.542716   -0.868448    0.930079
     12          1           0        1.659622    0.836418   -1.121129
     13          1           0        2.948884   -0.825137   -0.064030
     14          1           0        2.294421    0.600868    0.684744
 ---------------------------------------------------------------------

 SCF Done:  E(RB2PLYPD3) =  -157.689558170     A.U. after   11 cycles
 E2(B2PLYPD3) =    -0.2507804345D+00 E(B2PLYPD3) =    -0.15794033860441D+03

 The electronic state is 1-A.
 Alpha  occ. eigenvalues --  -10.63264 -10.62857 -10.60501 -10.57758  -0.94283
 Alpha  occ. eigenvalues --   -0.85007  -0.76630  -0.69307  -0.57047  -0.50891
 Alpha  occ. eigenvalues --   -0.49277  -0.46303  -0.44569  -0.39262  -0.37485
 Alpha  occ. eigenvalues --   -0.36696  -0.35733
 Alpha virt. eigenvalues --    0.04113   0.05115   0.07962   0.08637   0.10199
 Alpha virt. eigenvalues --    0.10470   0.11700   0.11952   0.14734   0.14932
 Alpha virt. eigenvalues --    0.15570   0.16507   0.18674   0.19122   0.21269

 Mulliken charges:
               1
     1  C   -0.225898
     2  C   -0.504758
     3  H    0.021717
     4  H    0.020653
     5  H    0.154311
     6  C    0.001754
     7  H    0.052602
     8  H    0.449592
     9  C   -0.150836
    10  H   -0.007767
    11  H    0.073360
    12  H    0.012888
    13  H    0.043184
    14  H    0.059198
 Sum of Mulliken charges =   0.00000

 Dipole moment (field-independent basis, Debye):
    X=              0.1727    Y=              0.4172    Z=              0.1141  Tot=              0.4658
 Quadrupole moment (field-independent basis, Debye-Ang):
   XX=            -30.5323   YY=            -29.4182   ZZ=            -28.2792
   XY=             -1.0256   XZ=              2.7148   YZ=             -0.0435

 Normal termination of Gaussian 09 at Wed Aug 26 13:28:23 2020.
