 Gaussian 09, Revision D.01,
 Gaussian 09:  ES64L-G09RevD.01 24-Apr-2013

 --------------------
 #p B2PLYPD3/Def2QZVP
 --------------------

 ----------
 butane_opt
 ----------
 Symbolic Z-matrix:
 Charge =  0 Multiplicity = 1

                         Standard orientation:
 ---------------------------------------------------------------------
 Center     Atomic      Atomic             Coordinates (Angstroms)
 Number     Number       Type             X           Y           Z
 ---------------------------------------------------------------------
      1          6           0       -1.982798   -0.137775   -0.122375
      2          6           0       -0.483311    0.592038    0.222833
      3          1           0       -2.653780    0.631384   -0.858680
      4          1           0       -2.760804   -0.896926    0.923172
      5          1           0       -1.713481   -0.553020   -0.937607
      6          6           0        0.604839   -0.576990    0.095557
      7          1           0       -0.575931    1.236895    1.157590
      8          1           0       -0.062080    1.171930   -0.565860
      9          6           0        1.935949    0.047100   -0.090997
     10          1           0        0.218176   -1.088889   -0.720240
     11          1           0        0.528418   -0.972254    0.913422
     12          1           0        1.935528    0.863747   -1.107544
     13          1           0        2.635575   -0.599554   -0.185460
     14          1           0        2.000313    0.660452    0.751095
 ---------------------------------------------------------------------

 SCF Done:  E(RB2PLYPD3) =  -157.914650977     A.U. after   11 cycles
 E2(B2PLYPD3) =    -0.2520522987D+00 E(B2PLYPD3) =    -0.15816670327573D+03

 The electronic state is 1-A.
 Alpha  occ. eigenvalues --  -10.64438 -10.62286 -10.59963 -10.58165  -0.92158
 Alpha  occ. eigenvalues --   -0.82011  -0.73231  -0.68109  -0.56389  -0.52814
 Alpha  occ. eigenvalues --   -0.45906  -0.45406  -0.40760  -0.40136  -0.40029
 Alpha  occ. eigenvalues --   -0.37296  -0.34585
 Alpha virt. eigenvalues --    0.03835   0.05846   0.08296   0.08579   0.09578
 Alpha virt. eigenvalues --    0.11105   0.12243   0.13183   0.14260   0.15057
 Alpha virt. eigenvalues --    0.16245   0.17082   0.18240   0.19229   0.19959

 Mulliken charges:
               1
     1  C   -0.256591
     2  C   -0.076396
     3  H    0.023620
     4  H    0.060108
     5  H    0.114293
     6  C   -0.111027
     7  H    0.038748
     8  H    0.067158
     9  C   -0.148877
    10  H    0.058024
    11  H    0.097395
    12  H    0.000879
    13  H    0.063344
    14  H    0.069323
 Sum of Mulliken charges =   0.00000

 Dipole moment (field-independent basis, Debye):
    X=              0.5011    Y=             -0.3267    Z=              0.0074  Tot=              0.5983
 Quadrupole moment (field-independent basis, Debye-Ang):
   XX=            -31.0205   YY=            -29.7599   ZZ=            -27.6509
   XY=              0.1141   XZ=              0.3569   YZ=             -0.2136

 Normal termination of Gaussian 09 at Wed Aug 26 12:41:02 2020.
