 Gaussian 09, Revision D.01,
 Gaussian 09:  ES64L-G09RevD.01 24-Apr-2013

 --------------------
 #p B2PLYPD3/Def2QZVP
 --------------------

 ----------
 butane_opt
 ----------
 Symbolic Z-matrix:
 Charge =  0 Multiplicity = 1

                         Standard orientation:
 ---------------------------------------------------------------------
 Center     Atomic      Atomic             Coordinates (Angstroms)
 Number     Number       Type             X           Y           Z
 ---------------------------------------------------------------------
      1          6           0        1.896938   -0.117354   -0.068807
      2          6           0        0.543073    0.567734    0.053152
      3          1           0        2.587902    0.402380   -0.355204
      4          1           0        1.785731   -0.529621   -0.802526
      5          1           0        2.143930   -0.831923    0.997598
      6          6           0       -0.469113   -0.478950    0.089736
      7          1           0        0.554615    0.795662   -0.638528
      8          1           0        0.259320    1.412667    0.989936
      9          6           0       -1.924781    0.104713   -0.079820
     10          1           0       -0.397469   -1.177352    0.949497
     11          1           0       -0.479782   -1.198139   -0.780032
     12          1           0       -2.256700    0.696098    0.663384
     13          1           0       -2.775066   -0.660104   -0.065255
     14          1           0       -1.699185    0.633475   -0.924443
 ---------------------------------------------------------------------

 SCF Done:  E(RB2PLYPD3) =  -157.773003849     A.U. after   11 cycles
 E2(B2PLYPD3) =    -0.2475129437D+00 E(B2PLYPD3) =    -0.15802051679280D+03

 The electronic state is 1-A.
 Alpha  occ. eigenvalues --  -10.60446 -10.58492 -10.58380 -10.57329  -0.96353
 Alpha  occ. eigenvalues --   -0.85631  -0.76704  -0.69000  -0.56424  -0.52266
 Alpha  occ. eigenvalues --   -0.51119  -0.48071  -0.42160  -0.40896  -0.39483
 Alpha  occ. eigenvalues --   -0.37650  -0.36449
 Alpha virt. eigenvalues --    0.05691   0.07082   0.07775   0.08845   0.10845
 Alpha virt. eigenvalues --    0.12210   0.12432   0.13754   0.15234   0.15703
 Alpha virt. eigenvalues --    0.16183   0.16964   0.18827   0.19684   0.22158

 Mulliken charges:
               1
     1  C   -0.232779
     2  C   -0.539734
     3  H    0.051828
     4  H    0.148262
     5  H    0.035800
     6  C    0.000036
     7  H    0.459035
     8  H    0.049433
     9  C   -0.146306
    10  H    0.024736
    11  H    0.016672
    12  H    0.039460
    13  H    0.030909
    14  H    0.062647
 Sum of Mulliken charges =   0.00000

 Dipole moment (field-independent basis, Debye):
    X=              0.1108    Y=              0.1339    Z=             -0.4871  Tot=              0.5171
 Quadrupole moment (field-independent basis, Debye-Ang):
   XX=            -29.2672   YY=            -29.1714   ZZ=            -27.4436
   XY=              0.6239   XZ=             -1.7863   YZ=             -0.2186

 Normal termination of Gaussian 09 at Wed Aug 26 23:33:20 2020.
