 Gaussian 09, Revision D.01,
 Gaussian 09:  ES64L-G09RevD.01 24-Apr-2013

 --------------------
 #p B2PLYPD3/Def2QZVP
 --------------------

 ----------
 butane_opt
 ----------
 Symbolic Z-matrix:
 Charge =  0 Multiplicity = 1

                         Standard orientation:
 ---------------------------------------------------------------------
 Center     Atomic      Atomic             Coordinates (Angstroms)
 Number     Number       Type             X           Y           Z
 ---------------------------------------------------------------------
      1          6           0        1.850788   -0.039557   -0.165183
      2          6           0        0.580692    0.453437    0.293699
      3          1           0        2.612725    0.693434   -0.198196
      4          1           0        1.940038   -0.669268   -1.233376
      5          1           0        2.258184   -0.588728    0.580222
      6          6           0       -0.496648   -0.622212   -0.028405
      7          1           0        0.283621    0.874878   -0.245932
      8          1           0        0.528161    1.138616    1.529309
      9          6           0       -1.938656    0.183653   -0.148094
     10          1           0       -0.602468   -1.424309    0.759524
     11          1           0       -0.003344   -0.784226   -0.812530
     12          1           0       -1.851335    0.224267    0.571219
     13          1           0       -2.750984   -0.826824    0.572037
     14          1           0       -2.391657    1.510236   -1.234383
 ---------------------------------------------------------------------

 SCF Done:  E(RB2PLYPD3) =  -157.429446818     A.U. after   13 cycles
 E2(B2PLYPD3) =    -0.2597641681D+00 E(B2PLYPD3) =    -0.15768921098606D+03

 The electronic state is 1-A.
 Alpha  occ. eigenvalues --  -10.64884 -10.61866 -10.60113 -10.59656  -0.97052
 Alpha  occ. eigenvalues --   -0.87134  -0.77270  -0.70219  -0.55077  -0.51018
 Alpha  occ. eigenvalues --   -0.47374  -0.46048  -0.41494  -0.39646  -0.38329
 Alpha  occ. eigenvalues --   -0.36888  -0.32641
 Alpha virt. eigenvalues --   -0.02555   0.04204   0.06062   0.06417   0.09981
 Alpha virt. eigenvalues --    0.11315   0.11715   0.13093   0.13818   0.15381
 Alpha virt. eigenvalues --    0.15421   0.16218   0.18128   0.18177   0.20405

 Mulliken charges:
               1
     1  C   -0.092631
     2  C   -0.515831
     3  H    0.037002
     4  H    0.029733
     5  H    0.046200
     6  C   -0.069615
     7  H    0.453869
     8  H    0.010050
     9  C   -0.687052
    10  H    0.044624
    11  H    0.119253
    12  H    0.560955
    13  H   -0.022320
    14  H    0.085764
 Sum of Mulliken charges =   0.00000

 Dipole moment (field-independent basis, Debye):
    X=              0.9522    Y=              0.3750    Z=              0.1433  Tot=              1.0333
 Quadrupole moment (field-independent basis, Debye-Ang):
   XX=            -32.2286   YY=            -29.1483   ZZ=            -28.0593
   XY=             -1.7174   XZ=             -0.7524   YZ=             -1.9106

 Normal termination of Gaussian 09 at Wed Aug 26 13:39:18 2020.
