 Gaussian 09, Revision D.01,
 Gaussian 09:  ES64L-G09RevD.01 24-Apr-2013

 --------------------
 #p B2PLYPD3/Def2QZVP
 --------------------

 ----------
 butane_opt
 ----------
 Symbolic Z-matrix:
 Charge =  0 Multiplicity = 1

                         Standard orientation:
 ---------------------------------------------------------------------
 Center     Atomic      Atomic             Coordinates (Angstroms)
 Number     Number       Type             X           Y           Z
 ---------------------------------------------------------------------
      1          6           0       -1.939926    0.129565   -0.134730
      2          6           0       -0.625150   -0.481340    0.201543
      3          1           0       -2.775308   -0.763883   -0.501826
      4          1           0       -1.704547    0.470966   -0.921958
      5          1           0       -2.353413    0.875703    0.780231
      6          6           0        0.566076    0.558663    0.050577
      7          1           0       -0.468418   -1.066942   -0.584423
      8          1           0       -0.691436   -1.168519    1.164006
      9          6           0        2.014680   -0.154049   -0.065927
     10          1           0        0.413959    1.320664    0.823548
     11          1           0        0.315631    0.983943   -0.742138
     12          1           0        2.123793   -0.676061    0.790227
     13          1           0        2.824089    0.551822   -0.147274
     14          1           0        2.221570   -0.844722   -0.969169
 ---------------------------------------------------------------------

 SCF Done:  E(RB2PLYPD3) =  -157.996019478     A.U. after   11 cycles
 E2(B2PLYPD3) =    -0.2474039670D+00 E(B2PLYPD3) =    -0.15824342344461D+03

 The electronic state is 1-A.
 Alpha  occ. eigenvalues --  -10.60760 -10.60386 -10.60055 -10.60013  -0.92176
 Alpha  occ. eigenvalues --   -0.83588  -0.73991  -0.67697  -0.54955  -0.50371
 Alpha  occ. eigenvalues --   -0.47076  -0.46879  -0.43198  -0.41777  -0.39402
 Alpha  occ. eigenvalues --   -0.38697  -0.35726
 Alpha virt. eigenvalues --    0.05456   0.06607   0.08520   0.08886   0.10998
 Alpha virt. eigenvalues --    0.11231   0.12857   0.13456   0.14785   0.15310
 Alpha virt. eigenvalues --    0.16046   0.16516   0.18707   0.19954   0.21376

 Mulliken charges:
               1
     1  C   -0.230836
     2  C   -0.053636
     3  H    0.024348
     4  H    0.125479
     5  H    0.042631
     6  C   -0.116848
     7  H    0.071322
     8  H    0.020518
     9  C   -0.142361
    10  H    0.032540
    11  H    0.086968
    12  H    0.070605
    13  H    0.041174
    14  H    0.028096
 Sum of Mulliken charges =   0.00000

 Dipole moment (field-independent basis, Debye):
    X=              0.3408    Y=              0.0829    Z=             -0.3317  Tot=              0.4827
 Quadrupole moment (field-independent basis, Debye-Ang):
   XX=            -30.1507   YY=            -29.0640   ZZ=            -27.8985
   XY=              0.0956   XZ=             -0.1195   YZ=              0.4237

 Normal termination of Gaussian 09 at Wed Aug 26 11:31:28 2020.
