 Gaussian 09, Revision D.01,
 Gaussian 09:  ES64L-G09RevD.01 24-Apr-2013

 --------------------
 #p B2PLYPD3/Def2QZVP
 --------------------

 ----------
 butane_opt
 ----------
 Symbolic Z-matrix:
 Charge =  0 Multiplicity = 1

                         Standard orientation:
 ---------------------------------------------------------------------
 Center     Atomic      Atomic             Coordinates (Angstroms)
 Number     Number       Type             X           Y           Z
 ---------------------------------------------------------------------
      1          6           0        1.986883    0.116761   -0.170841
      2          6           0        0.503643   -0.463803    0.231683
      3          1           0        2.783710   -0.680210   -0.497383
      4          1           0        2.303635    0.956045    0.830277
      5          1           0        1.662367    0.576411   -0.911508
      6          6           0       -0.631859    0.415557    0.098860
      7          1           0        0.394501   -1.204612    1.396419
      8          1           0        0.539882   -0.862012   -0.503553
      9          6           0       -1.894993   -0.119541   -0.078052
     10          1           0       -0.501565    1.092826   -0.941205
     11          1           0       -0.532344    1.254723    0.946628
     12          1           0       -1.834984   -1.178881   -1.073478
     13          1           0       -2.553941    0.643886   -0.261038
     14          1           0       -2.043312   -0.292017    0.524942
 ---------------------------------------------------------------------

 SCF Done:  E(RB2PLYPD3) =  -157.512224574     A.U. after   12 cycles
 E2(B2PLYPD3) =    -0.2524420133D+00 E(B2PLYPD3) =    -0.15776466658736D+03

 The electronic state is 1-A.
 Alpha  occ. eigenvalues --  -10.62749 -10.62217 -10.60680 -10.58229  -0.97141
 Alpha  occ. eigenvalues --   -0.88880  -0.75662  -0.66800  -0.57736  -0.51772
 Alpha  occ. eigenvalues --   -0.50581  -0.47438  -0.42932  -0.42123  -0.37873
 Alpha  occ. eigenvalues --   -0.35385  -0.34000
 Alpha virt. eigenvalues --    0.05053   0.05487   0.06767   0.07011   0.10272
 Alpha virt. eigenvalues --    0.11421   0.11971   0.12578   0.13582   0.15106
 Alpha virt. eigenvalues --    0.15939   0.16291   0.17549   0.19467   0.21145

 Mulliken charges:
               1
     1  C   -0.211635
     2  C   -0.252575
     3  H    0.060726
     4  H    0.020264
     5  H    0.125855
     6  C    0.033301
     7  H    0.004337
     8  H    0.248874
     9  C   -0.618103
    10  H   -0.015900
    11  H    0.019354
    12  H    0.019348
    13  H    0.083302
    14  H    0.482853
 Sum of Mulliken charges =   0.00000

 Dipole moment (field-independent basis, Debye):
    X=             -0.3174    Y=              0.0500    Z=             -0.2220  Tot=              0.3906
 Quadrupole moment (field-independent basis, Debye-Ang):
   XX=            -29.7953   YY=            -29.9826   ZZ=            -28.2997
   XY=             -1.7643   XZ=             -1.5670   YZ=              0.7806

 Normal termination of Gaussian 09 at Wed Aug 26 18:56:10 2020.
