 Gaussian 09, Revision D.01,
 Gaussian 09:  ES64L-G09RevD.01 24-Apr-2013

 --------------------
 #p B2PLYPD3/Def2QZVP
 --------------------

 ----------
 butane_opt
 ----------
 Symbolic Z-matrix:
 Charge =  0 Multiplicity = 1

                         Standard orientation:
 ---------------------------------------------------------------------
 Center     Atomic      Atomic             Coordinates (Angstroms)
 Number     Number       Type             X           Y           Z
 ---------------------------------------------------------------------
      1          6           0        2.034629   -0.133361    0.016457
      2          6           0        0.553367    0.581944   -0.074044
      3          1           0        2.677143    0.433889   -0.400914
      4          1           0        2.027364   -0.179857   -0.507272
      5          1           0        2.631986   -1.156570    1.139551
      6          6           0       -0.614728   -0.468896   -0.026587
      7          1           0        0.309871    1.189095   -0.798611
      8          1           0        0.202756    1.218656    0.749954
      9          6           0       -1.916289    0.076048    0.004914
     10          1           0       -0.600845   -1.135451    0.862782
     11          1           0       -0.581516   -1.281338   -0.957821
     12          1           0       -2.238500    1.176007    1.114133
     13          1           0       -2.640446   -0.787385   -0.215275
     14          1           0       -2.129690    0.188547   -0.510971
 ---------------------------------------------------------------------

 SCF Done:  E(RB2PLYPD3) =  -156.456332557     A.U. after   12 cycles
 E2(B2PLYPD3) =    -0.2569838929D+00 E(B2PLYPD3) =    -0.15671331644938D+03

 The electronic state is 1-A.
 Alpha  occ. eigenvalues --  -10.62944 -10.61900 -10.61363 -10.61239  -0.98529
 Alpha  occ. eigenvalues --   -0.95030  -0.82388  -0.70459  -0.53014  -0.51649
 Alpha  occ. eigenvalues --   -0.47760  -0.45516  -0.42559  -0.39894  -0.37638
 Alpha  occ. eigenvalues --   -0.35986  -0.35118
 Alpha virt. eigenvalues --    0.02118   0.03704   0.05637   0.07094   0.09570
 Alpha virt. eigenvalues --    0.10188   0.11671   0.13295   0.14105   0.15742
 Alpha virt. eigenvalues --    0.16431   0.17039   0.18473   0.18919   0.20404

 Mulliken charges:
               1
     1  C   -0.964734
     2  C   -0.064624
     3  H   -0.015276
     4  H    0.867893
     5  H    0.083358
     6  C    0.071061
     7  H    0.067111
     8  H    0.033433
     9  C   -0.781431
    10  H    0.045540
    11  H   -0.014974
    12  H    0.023191
    13  H    0.051762
    14  H    0.597689
 Sum of Mulliken charges =   0.00000

 Dipole moment (field-independent basis, Debye):
    X=              0.2586    Y=             -0.0810    Z=             -0.9434  Tot=              0.9815
 Quadrupole moment (field-independent basis, Debye-Ang):
   XX=            -28.6777   YY=            -28.9141   ZZ=            -27.5415
   XY=             -0.2907   XZ=              0.4755   YZ=             -0.8414

 Normal termination of Gaussian 09 at Wed Aug 26 23:43:56 2020.
