 Gaussian 09, Revision D.01,
 Gaussian 09:  ES64L-G09RevD.01 24-Apr-2013

 --------------------
 #p B2PLYPD3/Def2QZVP
 --------------------

 ----------
 butane_opt
 ----------
 Symbolic Z-matrix:
 Charge =  0 Multiplicity = 1

                         Standard orientation:
 ---------------------------------------------------------------------
 Center     Atomic      Atomic             Coordinates (Angstroms)
 Number     Number       Type             X           Y           Z
 ---------------------------------------------------------------------
      1          6           0       -1.937973   -0.076717    0.051123
      2          6           0       -0.618626    0.486985   -0.069386
      3          1           0       -2.749323    0.742789    0.045239
      4          1           0       -2.360096   -0.634047    0.837543
      5          1           0       -1.956399   -0.641389   -0.588122
      6          6           0        0.534892   -0.660919   -0.042608
      7          1           0       -0.538614    0.875247    0.533983
      8          1           0       -0.578861    1.402102   -1.122473
      9          6           0        1.990451    0.165942    0.053877
     10          1           0        0.674445   -1.295803   -0.768316
     11          1           0        0.406807   -1.281172    0.943231
     12          1           0        2.080505    0.481558   -0.641487
     13          1           0        2.728832   -0.435918   -0.412032
     14          1           0        2.480242    1.294887    1.214392
 ---------------------------------------------------------------------

 SCF Done:  E(RB2PLYPD3) =  -157.533894189     A.U. after   11 cycles
 E2(B2PLYPD3) =    -0.2516451444D+00 E(B2PLYPD3) =    -0.15778553933329D+03

 The electronic state is 1-A.
 Alpha  occ. eigenvalues --  -10.63206 -10.61235 -10.59960 -10.56467  -0.93823
 Alpha  occ. eigenvalues --   -0.88007  -0.77658  -0.73301  -0.55194  -0.51397
 Alpha  occ. eigenvalues --   -0.47441  -0.46130  -0.44174  -0.39919  -0.38809
 Alpha  occ. eigenvalues --   -0.36932  -0.34580
 Alpha virt. eigenvalues --    0.01910   0.05674   0.06805   0.07525   0.10526
 Alpha virt. eigenvalues --    0.11079   0.12197   0.13153   0.15092   0.15282
 Alpha virt. eigenvalues --    0.16280   0.16932   0.18268   0.19104   0.20357

 Mulliken charges:
               1
     1  C   -0.193847
     2  C   -0.459280
     3  H    0.031299
     4  H    0.023823
     5  H    0.139515
     6  C   -0.024421
     7  H    0.435984
     8  H    0.011476
     9  C   -0.446256
    10  H    0.066960
    11  H    0.039141
    12  H    0.319326
    13  H    0.031008
    14  H    0.025273
 Sum of Mulliken charges =   0.00000

 Dipole moment (field-independent basis, Debye):
    X=             -0.3133    Y=             -0.4342    Z=             -0.4922  Tot=              0.7273
 Quadrupole moment (field-independent basis, Debye-Ang):
   XX=            -29.8953   YY=            -28.3545   ZZ=            -28.2438
   XY=              0.0200   XZ=             -2.6335   YZ=              0.9812

 Normal termination of Gaussian 09 at Wed Aug 26 23:05:38 2020.
