 Gaussian 09, Revision D.01,
 Gaussian 09:  ES64L-G09RevD.01 24-Apr-2013

 --------------------
 #p B2PLYPD3/Def2QZVP
 --------------------

 ----------
 butane_opt
 ----------
 Symbolic Z-matrix:
 Charge =  0 Multiplicity = 1

                         Standard orientation:
 ---------------------------------------------------------------------
 Center     Atomic      Atomic             Coordinates (Angstroms)
 Number     Number       Type             X           Y           Z
 ---------------------------------------------------------------------
      1          6           0        2.035138    0.165736    0.100050
      2          6           0        0.540752   -0.661091   -0.002675
      3          1           0        2.640238   -0.722430   -0.687419
      4          1           0        2.651960    1.635435    1.208068
      5          1           0        1.814758    0.173426   -0.453556
      6          6           0       -0.570257    0.451271   -0.324377
      7          1           0        0.141402   -0.985265    0.796865
      8          1           0        0.362135   -1.368576   -0.695212
      9          6           0       -1.903296   -0.020625    0.204081
     10          1           0       -0.705830    0.977275   -1.287179
     11          1           0       -0.369464    1.090010    0.512893
     12          1           0       -2.330039   -0.405635   -0.482556
     13          1           0       -2.796856    0.703132   -0.279210
     14          1           0       -2.022326   -0.709116    1.504833
 ---------------------------------------------------------------------

 SCF Done:  E(RB2PLYPD3) =  -157.154827698     A.U. after   13 cycles
 E2(B2PLYPD3) =    -0.2655509684D+00 E(B2PLYPD3) =    -0.15742037866598D+03

 The electronic state is 1-A.
 Alpha  occ. eigenvalues --  -10.64770 -10.62601 -10.61205 -10.61176  -0.94874
 Alpha  occ. eigenvalues --   -0.88773  -0.78245  -0.69146  -0.55566  -0.48099
 Alpha  occ. eigenvalues --   -0.45567  -0.43931  -0.40517  -0.40028  -0.36259
 Alpha  occ. eigenvalues --   -0.35277  -0.32158
 Alpha virt. eigenvalues --   -0.05676   0.03691   0.05650   0.06886   0.09647
 Alpha virt. eigenvalues --    0.10027   0.11732   0.12351   0.13463   0.15371
 Alpha virt. eigenvalues --    0.15898   0.16520   0.17378   0.18283   0.19389

 Mulliken charges:
               1
     1  C   -0.963136
     2  C   -0.092865
     3  H    0.025414
     4  H    0.102936
     5  H    0.809486
     6  C   -0.078241
     7  H    0.088253
     8  H    0.055809
     9  C   -0.256760
    10  H    0.038152
    11  H    0.073541
    12  H    0.129490
    13  H    0.010219
    14  H    0.057702
 Sum of Mulliken charges =   0.00000

 Dipole moment (field-independent basis, Debye):
    X=             -0.7562    Y=              0.1790    Z=             -0.7531  Tot=              1.0822
 Quadrupole moment (field-independent basis, Debye-Ang):
   XX=            -32.2902   YY=            -29.1720   ZZ=            -27.2038
   XY=              2.7364   XZ=              1.3844   YZ=              1.1079

 Normal termination of Gaussian 09 at Wed Aug 26 14:50:34 2020.
