 Gaussian 09, Revision D.01,
 Gaussian 09:  ES64L-G09RevD.01 24-Apr-2013

 --------------------
 #p B2PLYPD3/Def2QZVP
 --------------------

 ----------
 butane_opt
 ----------
 Symbolic Z-matrix:
 Charge =  0 Multiplicity = 1

                         Standard orientation:
 ---------------------------------------------------------------------
 Center     Atomic      Atomic             Coordinates (Angstroms)
 Number     Number       Type             X           Y           Z
 ---------------------------------------------------------------------
      1          6           0       -1.821349    0.106333   -0.049498
      2          6           0       -0.618757   -0.408776    0.170854
      3          1           0       -2.836713   -0.786233   -0.157451
      4          1           0       -1.867308    0.587560   -1.068223
      5          1           0       -2.050289    0.565630    0.560574
      6          6           0        0.473660    0.517792   -0.125006
      7          1           0       -0.622961   -0.994206   -0.513079
      8          1           0       -0.387481   -1.220537    1.364174
      9          6           0        1.907364   -0.151193   -0.030720
     10          1           0        0.648356    1.629297    0.891225
     11          1           0        0.430718    0.975282   -0.826129
     12          1           0        1.880349   -0.295355    0.662864
     13          1           0        2.631464    0.545839    0.369921
     14          1           0        2.528355   -1.392211   -1.077651
 ---------------------------------------------------------------------

 SCF Done:  E(RB2PLYPD3) =  -157.416288594     A.U. after   12 cycles
 E2(B2PLYPD3) =    -0.2549009922D+00 E(B2PLYPD3) =    -0.15767118958614D+03

 The electronic state is 1-A.
 Alpha  occ. eigenvalues --  -10.63518 -10.61181 -10.60859 -10.59180  -0.98432
 Alpha  occ. eigenvalues --   -0.90612  -0.79295  -0.71836  -0.58529  -0.51919
 Alpha  occ. eigenvalues --   -0.51432  -0.44812  -0.42939  -0.41752  -0.38176
 Alpha  occ. eigenvalues --   -0.35960  -0.33239
 Alpha virt. eigenvalues --    0.00763   0.03766   0.05828   0.06168   0.10138
 Alpha virt. eigenvalues --    0.10300   0.11408   0.12176   0.14549   0.14999
 Alpha virt. eigenvalues --    0.15933   0.16532   0.18695   0.19126   0.19531

 Mulliken charges:
               1
     1  C   -0.308431
     2  C   -0.058657
     3  H    0.000330
     4  H    0.054669
     5  H    0.218165
     6  C   -0.126254
     7  H    0.144582
     8  H   -0.002900
     9  C   -0.593172
    10  H   -0.049730
    11  H    0.172955
    12  H    0.470098
    13  H    0.058759
    14  H    0.019587
 Sum of Mulliken charges =   0.00000

 Dipole moment (field-independent basis, Debye):
    X=             -0.3791    Y=              0.2757    Z=             -0.1618  Tot=              0.4959
 Quadrupole moment (field-independent basis, Debye-Ang):
   XX=            -30.9729   YY=            -30.1701   ZZ=            -28.3722
   XY=             -0.0258   XZ=              1.6948   YZ=              0.2854

 Normal termination of Gaussian 09 at Wed Aug 26 22:43:13 2020.
