 Gaussian 09, Revision D.01,
 Gaussian 09:  ES64L-G09RevD.01 24-Apr-2013

 --------------------
 #p B2PLYPD3/Def2QZVP
 --------------------

 ----------
 butane_opt
 ----------
 Symbolic Z-matrix:
 Charge =  0 Multiplicity = 1

                         Standard orientation:
 ---------------------------------------------------------------------
 Center     Atomic      Atomic             Coordinates (Angstroms)
 Number     Number       Type             X           Y           Z
 ---------------------------------------------------------------------
      1          6           0        1.862956    0.110987    0.125726
      2          6           0        0.554440   -0.524930   -0.011016
      3          1           0        2.638037   -0.821685   -0.557127
      4          1           0        2.326142    1.567524    1.286370
      5          1           0        1.819099    0.215765   -0.457880
      6          6           0       -0.517480    0.522977   -0.250684
      7          1           0        0.427085   -0.815378    0.844078
      8          1           0        0.575380   -1.417716   -0.838237
      9          6           0       -1.874912   -0.147426    0.192831
     10          1           0       -0.528826    1.234026   -1.403896
     11          1           0       -0.460504    0.834742    0.292246
     12          1           0       -1.970060   -0.637626   -0.505387
     13          1           0       -2.715794    0.649238   -0.238445
     14          1           0       -2.260580   -0.578536    1.237137
 ---------------------------------------------------------------------

 SCF Done:  E(RB2PLYPD3) =  -156.836878560     A.U. after   13 cycles
 E2(B2PLYPD3) =    -0.2606259325D+00 E(B2PLYPD3) =    -0.15709750449202D+03

 The electronic state is 1-A.
 Alpha  occ. eigenvalues --  -10.63497 -10.60655 -10.60005 -10.59971  -0.99294
 Alpha  occ. eigenvalues --   -0.90996  -0.77943  -0.72552  -0.56484  -0.49234
 Alpha  occ. eigenvalues --   -0.47971  -0.46646  -0.42633  -0.39782  -0.37601
 Alpha  occ. eigenvalues --   -0.36311  -0.33243
 Alpha virt. eigenvalues --   -0.03813   0.03936   0.06056   0.06785   0.10497
 Alpha virt. eigenvalues --    0.10672   0.11698   0.12300   0.13778   0.15435
 Alpha virt. eigenvalues --    0.16555   0.16658   0.17119   0.18504   0.20240

 Mulliken charges:
               1
     1  C   -0.979692
     2  C    0.027240
     3  H    0.014200
     4  H    0.044156
     5  H    0.805825
     6  C   -0.855215
     7  H    0.120366
     8  H    0.035200
     9  C   -0.259846
    10  H    0.057749
    11  H    0.731998
    12  H    0.163900
    13  H    0.016666
    14  H    0.077453
 Sum of Mulliken charges =   0.00000

 Dipole moment (field-independent basis, Debye):
    X=             -0.6409    Y=             -0.0399    Z=             -0.4245  Tot=              0.7697
 Quadrupole moment (field-independent basis, Debye-Ang):
   XX=            -33.1094   YY=            -28.7510   ZZ=            -26.9365
   XY=              1.0264   XZ=             -1.2004   YZ=              0.8479

 Normal termination of Gaussian 09 at Wed Aug 26 14:10:06 2020.
