 Gaussian 09, Revision D.01,
 Gaussian 09:  ES64L-G09RevD.01 24-Apr-2013

 --------------------
 #p B2PLYPD3/Def2QZVP
 --------------------

 ----------
 butane_opt
 ----------
 Symbolic Z-matrix:
 Charge =  0 Multiplicity = 1

                         Standard orientation:
 ---------------------------------------------------------------------
 Center     Atomic      Atomic             Coordinates (Angstroms)
 Number     Number       Type             X           Y           Z
 ---------------------------------------------------------------------
      1          6           0        1.933585   -0.204041   -0.133329
      2          6           0        0.522248    0.608887    0.121218
      3          1           0        2.517571    0.366650    0.088536
      4          1           0        2.343657   -1.108211   -1.028586
      5          1           0        2.204709   -0.383115    0.404597
      6          6           0       -0.602347   -0.452851    0.232048
      7          1           0        0.243316    0.978950   -0.771613
      8          1           0        0.546870    1.591205    1.107381
      9          6           0       -1.893454    0.101981   -0.211340
     10          1           0       -0.631268   -1.420944    1.510238
     11          1           0       -0.638343   -0.840837   -0.412788
     12          1           0       -2.327949    0.658002    0.647649
     13          1           0       -2.706396   -0.912790   -0.419120
     14          1           0       -1.312360    0.747236   -1.177873
 ---------------------------------------------------------------------

 SCF Done:  E(RB2PLYPD3) =  -157.233814327     A.U. after   12 cycles
 E2(B2PLYPD3) =    -0.2569521706D+00 E(B2PLYPD3) =    -0.15749076649769D+03

 The electronic state is 1-A.
 Alpha  occ. eigenvalues --  -10.65162 -10.64718 -10.60774 -10.56974  -0.97793
 Alpha  occ. eigenvalues --   -0.94282  -0.76561  -0.67742  -0.53797  -0.50132
 Alpha  occ. eigenvalues --   -0.48256  -0.44426  -0.41945  -0.41332  -0.37940
 Alpha  occ. eigenvalues --   -0.36528  -0.34272
 Alpha virt. eigenvalues --    0.03967   0.04689   0.05779   0.06800   0.10014
 Alpha virt. eigenvalues --    0.10955   0.11368   0.13354   0.14407   0.14936
 Alpha virt. eigenvalues --    0.15495   0.16170   0.17762   0.18845   0.20064

 Mulliken charges:
               1
     1  C   -0.753352
     2  C   -0.038194
     3  H    0.077855
     4  H    0.072269
     5  H    0.558948
     6  C   -0.470618
     7  H    0.102427
     8  H    0.024430
     9  C   -0.171852
    10  H   -0.025753
    11  H    0.478313
    12  H    0.063267
    13  H    0.039116
    14  H    0.043143
 Sum of Mulliken charges =   0.00000

 Dipole moment (field-independent basis, Debye):
    X=              0.5581    Y=              0.2913    Z=             -0.1116  Tot=              0.6393
 Quadrupole moment (field-independent basis, Debye-Ang):
   XX=            -28.8610   YY=            -29.6074   ZZ=            -29.0758
   XY=              0.2466   XZ=              0.5735   YZ=              1.5406

 Normal termination of Gaussian 09 at Wed Aug 26 22:01:59 2020.
