 Gaussian 09, Revision D.01,
 Gaussian 09:  ES64L-G09RevD.01 24-Apr-2013

 --------------------
 #p B2PLYPD3/Def2QZVP
 --------------------

 ----------
 butane_opt
 ----------
 Symbolic Z-matrix:
 Charge =  0 Multiplicity = 1

                         Standard orientation:
 ---------------------------------------------------------------------
 Center     Atomic      Atomic             Coordinates (Angstroms)
 Number     Number       Type             X           Y           Z
 ---------------------------------------------------------------------
      1          6           0       -1.831413    0.015917    0.011516
      2          6           0       -0.564795   -0.467986   -0.064259
      3          1           0       -2.681999   -0.765128   -0.062279
      4          1           0       -2.229702    0.505244   -0.766210
      5          1           0       -1.779228    0.915353    1.169624
      6          6           0        0.459263    0.582744    0.002124
      7          1           0       -0.356334   -1.067556   -0.906246
      8          1           0       -0.491967   -1.145287    0.837149
      9          6           0        1.919051   -0.198143   -0.007109
     10          1           0        0.419528    1.433800    1.028541
     11          1           0        0.082236    1.352223   -0.760878
     12          1           0        2.581370   -1.155039    1.056179
     13          1           0        2.745416    0.744764   -0.586989
     14          1           0        1.818049   -0.413570   -0.662524
 ---------------------------------------------------------------------

 SCF Done:  E(RB2PLYPD3) =  -157.624435678     A.U. after   11 cycles
 E2(B2PLYPD3) =    -0.2577360420D+00 E(B2PLYPD3) =    -0.15788217172013D+03

 The electronic state is 1-A.
 Alpha  occ. eigenvalues --  -10.64743 -10.63913 -10.61929 -10.59779  -0.94934
 Alpha  occ. eigenvalues --   -0.86786  -0.74528  -0.66483  -0.55364  -0.51955
 Alpha  occ. eigenvalues --   -0.48205  -0.45412  -0.39966  -0.38882  -0.37070
 Alpha  occ. eigenvalues --   -0.36037  -0.34114
 Alpha virt. eigenvalues --    0.01813   0.04554   0.06468   0.07008   0.09032
 Alpha virt. eigenvalues --    0.10328   0.10918   0.12565   0.13196   0.15089
 Alpha virt. eigenvalues --    0.15860   0.16253   0.17072   0.19098   0.20128

 Mulliken charges:
               1
     1  C   -0.167620
     2  C    0.011678
     3  H    0.038166
     4  H    0.045181
     5  H    0.017714
     6  C   -0.024889
     7  H    0.038302
     8  H    0.042700
     9  C   -0.720262
    10  H   -0.001456
    11  H    0.049285
    12  H    0.089773
    13  H    0.018723
    14  H    0.562705
 Sum of Mulliken charges =   0.00000

 Dipole moment (field-independent basis, Debye):
    X=             -0.2584    Y=             -0.6785    Z=             -0.8454  Tot=              1.1144
 Quadrupole moment (field-independent basis, Debye-Ang):
   XX=            -31.4615   YY=            -29.3793   ZZ=            -28.8790
   XY=             -0.8141   XZ=              1.7050   YZ=             -0.7259

 Normal termination of Gaussian 09 at Wed Aug 26 23:06:15 2020.
