 Gaussian 09, Revision D.01,
 Gaussian 09:  ES64L-G09RevD.01 24-Apr-2013

 --------------------
 #p B2PLYPD3/Def2QZVP
 --------------------

 ----------
 butane_opt
 ----------
 Symbolic Z-matrix:
 Charge =  0 Multiplicity = 1

                         Standard orientation:
 ---------------------------------------------------------------------
 Center     Atomic      Atomic             Coordinates (Angstroms)
 Number     Number       Type             X           Y           Z
 ---------------------------------------------------------------------
      1          6           0       -1.912448   -0.163808    0.097370
      2          6           0       -0.538794    0.553985   -0.134830
      3          1           0       -2.772962    0.623525   -0.165095
      4          1           0       -2.146209   -0.826774    1.050304
      5          1           0       -1.970628   -0.821434   -0.657261
      6          6           0        0.605815   -0.429455    0.033691
      7          1           0       -0.574083    0.895525    0.501143
      8          1           0       -0.243237    1.423200   -1.412418
      9          6           0        1.892006    0.058161    0.089237
     10          1           0        0.333545   -1.350639   -0.841979
     11          1           0        0.508782   -0.925966    0.900773
     12          1           0        1.841228    0.210500   -0.648024
     13          1           0        2.803913   -0.852012   -0.540799
     14          1           0        1.940172    1.510775    1.300544
 ---------------------------------------------------------------------

 SCF Done:  E(RB2PLYPD3) =  -157.412233597     A.U. after   13 cycles
 E2(B2PLYPD3) =    -0.2615632983D+00 E(B2PLYPD3) =    -0.15767379689493D+03

 The electronic state is 1-A.
 Alpha  occ. eigenvalues --  -10.63558 -10.62075 -10.61918 -10.61872  -0.97659
 Alpha  occ. eigenvalues --   -0.89266  -0.75169  -0.69924  -0.56420  -0.49274
 Alpha  occ. eigenvalues --   -0.48136  -0.45262  -0.41008  -0.39453  -0.39028
 Alpha  occ. eigenvalues --   -0.34905  -0.33073
 Alpha virt. eigenvalues --   -0.03725   0.02907   0.04722   0.06016   0.09622
 Alpha virt. eigenvalues --    0.10976   0.11005   0.12443   0.13216   0.14629
 Alpha virt. eigenvalues --    0.15787   0.16221   0.18028   0.18708   0.20296

 Mulliken charges:
               1
     1  C   -0.158546
     2  C   -0.547514
     3  H    0.047862
     4  H    0.056839
     5  H    0.070393
     6  C    0.001687
     7  H    0.499110
     8  H    0.009681
     9  C   -0.521401
    10  H    0.002544
    11  H    0.063573
    12  H    0.429972
    13  H    0.030924
    14  H    0.014874
 Sum of Mulliken charges =   0.00000

 Dipole moment (field-independent basis, Debye):
    X=             -0.7825    Y=             -0.3778    Z=             -0.2609  Tot=              0.9072
 Quadrupole moment (field-independent basis, Debye-Ang):
   XX=            -32.4564   YY=            -29.9015   ZZ=            -28.6448
   XY=             -0.0223   XZ=             -2.1314   YZ=              0.7404

 Normal termination of Gaussian 09 at Wed Aug 26 19:10:20 2020.
