 Gaussian 09, Revision D.01,
 Gaussian 09:  ES64L-G09RevD.01 24-Apr-2013

 --------------------
 #p B2PLYPD3/Def2QZVP
 --------------------

 ----------
 butane_opt
 ----------
 Symbolic Z-matrix:
 Charge =  0 Multiplicity = 1

                         Standard orientation:
 ---------------------------------------------------------------------
 Center     Atomic      Atomic             Coordinates (Angstroms)
 Number     Number       Type             X           Y           Z
 ---------------------------------------------------------------------
      1          6           0        1.912776   -0.192505    0.108921
      2          6           0        0.545180    0.597068   -0.125938
      3          1           0        2.762122    0.529320    0.266708
      4          1           0        2.132810   -0.390930   -0.602461
      5          1           0        1.855010   -0.988286    1.103829
      6          6           0       -0.572609   -0.426710   -0.353682
      7          1           0        0.198394    1.349061   -0.880926
      8          1           0        0.248098    0.845337    0.606527
      9          6           0       -1.864994    0.076222    0.223723
     10          1           0       -0.484599   -1.167006    0.449717
     11          1           0       -0.594629   -1.160032   -1.260237
     12          1           0       -1.310746    0.609117    1.234474
     13          1           0       -2.489281   -0.667045    0.509284
     14          1           0       -2.439298    0.716022   -0.545056
 ---------------------------------------------------------------------

 SCF Done:  E(RB2PLYPD3) =  -157.820787843     A.U. after   11 cycles
 E2(B2PLYPD3) =    -0.2503849749D+00 E(B2PLYPD3) =    -0.15807117281766D+03

 The electronic state is 1-A.
 Alpha  occ. eigenvalues --  -10.61433 -10.60306 -10.59562 -10.58282  -0.93690
 Alpha  occ. eigenvalues --   -0.84965  -0.76790  -0.66575  -0.55714  -0.51124
 Alpha  occ. eigenvalues --   -0.49059  -0.46689  -0.43671  -0.41058  -0.38724
 Alpha  occ. eigenvalues --   -0.36734  -0.35136
 Alpha virt. eigenvalues --    0.05437   0.06538   0.08290   0.08338   0.10802
 Alpha virt. eigenvalues --    0.11748   0.12131   0.14130   0.14211   0.15523
 Alpha virt. eigenvalues --    0.16188   0.17448   0.17999   0.19095   0.22016

 Mulliken charges:
               1
     1  C   -0.372425
     2  C   -0.263109
     3  H    0.032715
     4  H    0.271878
     5  H    0.066609
     6  C   -0.058294
     7  H    0.047310
     8  H    0.246151
     9  C   -0.147450
    10  H    0.021077
    11  H    0.024361
    12  H    0.035345
    13  H    0.063844
    14  H    0.031988
 Sum of Mulliken charges =   0.00000

 Dipole moment (field-independent basis, Debye):
    X=              0.0790    Y=             -0.3088    Z=              0.0123  Tot=              0.3190
 Quadrupole moment (field-independent basis, Debye-Ang):
   XX=            -29.2287   YY=            -29.3882   ZZ=            -28.1508
   XY=              0.6636   XZ=              0.2825   YZ=             -0.7211

 Normal termination of Gaussian 09 at Wed Aug 26 13:55:40 2020.
