 Gaussian 09, Revision D.01,
 Gaussian 09:  ES64L-G09RevD.01 24-Apr-2013

 --------------------
 #p B2PLYPD3/Def2QZVP
 --------------------

 ----------
 butane_opt
 ----------
 Symbolic Z-matrix:
 Charge =  0 Multiplicity = 1

                         Standard orientation:
 ---------------------------------------------------------------------
 Center     Atomic      Atomic             Coordinates (Angstroms)
 Number     Number       Type             X           Y           Z
 ---------------------------------------------------------------------
      1          6           0       -1.988586    0.180401   -0.101515
      2          6           0       -0.547195   -0.570166    0.104244
      3          1           0       -2.730952   -0.523128   -0.122566
      4          1           0       -1.864828    1.320376   -1.085124
      5          1           0       -2.142502    0.307054    0.588076
      6          6           0        0.662340    0.394617    0.320044
      7          1           0       -0.320017   -0.967353   -0.877678
      8          1           0       -0.476851   -1.159747    0.681029
      9          6           0        1.868804   -0.075638   -0.140734
     10          1           0        0.641001    1.047920    1.524434
     11          1           0        0.237825    0.879903   -0.421747
     12          1           0        2.470309   -0.793549    0.497096
     13          1           0        2.735091    0.800287   -0.754860
     14          1           0        1.478744   -0.487048   -1.120892
 ---------------------------------------------------------------------

 SCF Done:  E(RB2PLYPD3) =  -157.641929103     A.U. after   11 cycles
 E2(B2PLYPD3) =    -0.2533158120D+00 E(B2PLYPD3) =    -0.15789524491543D+03

 The electronic state is 1-A.
 Alpha  occ. eigenvalues --  -10.62750 -10.60891 -10.60295 -10.59144  -0.95084
 Alpha  occ. eigenvalues --   -0.88061  -0.77580  -0.67031  -0.57245  -0.50267
 Alpha  occ. eigenvalues --   -0.49777  -0.46406  -0.43457  -0.41492  -0.38033
 Alpha  occ. eigenvalues --   -0.37318  -0.32507
 Alpha virt. eigenvalues --    0.03901   0.05823   0.07083   0.07937   0.09758
 Alpha virt. eigenvalues --    0.10934   0.11284   0.13591   0.14274   0.15306
 Alpha virt. eigenvalues --    0.15478   0.16554   0.18501   0.19243   0.21844

 Mulliken charges:
               1
     1  C   -0.524318
     2  C   -0.174529
     3  H    0.061694
     4  H    0.048660
     5  H    0.399461
     6  C   -0.101921
     7  H    0.043413
     8  H    0.177153
     9  C   -0.142460
    10  H   -0.002498
    11  H    0.103727
    12  H    0.059212
    13  H    0.016211
    14  H    0.036196
 Sum of Mulliken charges =   0.00000

 Dipole moment (field-independent basis, Debye):
    X=             -0.6677    Y=             -0.6204    Z=              0.0629  Tot=              0.9136
 Quadrupole moment (field-independent basis, Debye-Ang):
   XX=            -30.0322   YY=            -29.7998   ZZ=            -28.3149
   XY=             -0.1309   XZ=             -0.7555   YZ=             -1.3395

 Normal termination of Gaussian 09 at Wed Aug 26 23:35:38 2020.
