 Gaussian 09, Revision D.01,
 Gaussian 09:  ES64L-G09RevD.01 24-Apr-2013

 --------------------
 #p B2PLYPD3/Def2QZVP
 --------------------

 ----------
 butane_opt
 ----------
 Symbolic Z-matrix:
 Charge =  0 Multiplicity = 1

                         Standard orientation:
 ---------------------------------------------------------------------
 Center     Atomic      Atomic             Coordinates (Angstroms)
 Number     Number       Type             X           Y           Z
 ---------------------------------------------------------------------
      1          6           0        2.013543   -0.137799   -0.068941
      2          6           0        0.451816    0.515452    0.003505
      3          1           0        2.801110    0.521410   -0.186339
      4          1           0        2.069868   -0.906108   -0.813139
      5          1           0        2.016609   -0.681290    0.910792
      6          6           0       -0.628660   -0.350142    0.226770
      7          1           0        0.219236    0.949493   -0.920423
      8          1           0        0.316482    1.406120    0.829583
      9          6           0       -1.832608   -0.014510   -0.184379
     10          1           0       -0.587151   -1.155596    1.280321
     11          1           0       -0.282770   -0.889011   -0.439572
     12          1           0       -2.333903    1.396278    0.798096
     13          1           0       -2.675134   -1.015394   -0.340360
     14          1           0       -1.568887    0.296093   -0.980685
 ---------------------------------------------------------------------

 SCF Done:  E(RB2PLYPD3) =  -157.816831610     A.U. after   12 cycles
 E2(B2PLYPD3) =    -0.2549592121D+00 E(B2PLYPD3) =    -0.15807179082236D+03

 The electronic state is 1-A.
 Alpha  occ. eigenvalues --  -10.64577 -10.63089 -10.61872 -10.60058  -1.00264
 Alpha  occ. eigenvalues --   -0.84553  -0.75821  -0.66862  -0.57731  -0.51661
 Alpha  occ. eigenvalues --   -0.50697  -0.48341  -0.44817  -0.39873  -0.38463
 Alpha  occ. eigenvalues --   -0.37311  -0.31160
 Alpha virt. eigenvalues --    0.01420   0.05667   0.06745   0.07449   0.09159
 Alpha virt. eigenvalues --    0.10311   0.12396   0.13001   0.13457   0.14805
 Alpha virt. eigenvalues --    0.15511   0.15953   0.18852   0.19196   0.20898

 Mulliken charges:
               1
     1  C   -0.154519
     2  C   -0.079231
     3  H    0.073318
     4  H    0.041306
     5  H    0.059655
     6  C   -0.057647
     7  H    0.052827
     8  H    0.016444
     9  C   -0.190108
    10  H   -0.002867
    11  H    0.123290
    12  H   -0.073711
    13  H    0.062221
    14  H    0.129023
 Sum of Mulliken charges =   0.00000

 Dipole moment (field-independent basis, Debye):
    X=              1.1488    Y=             -1.0783    Z=             -1.2329  Tot=              2.0006
 Quadrupole moment (field-independent basis, Debye-Ang):
   XX=            -31.7572   YY=            -30.3781   ZZ=            -29.2494
   XY=              2.4985   XZ=              0.9515   YZ=              0.0371

 Normal termination of Gaussian 09 at Wed Aug 26 16:20:39 2020.
