 Gaussian 09, Revision D.01,
 Gaussian 09:  ES64L-G09RevD.01 24-Apr-2013

 --------------------
 #p B2PLYPD3/Def2QZVP
 --------------------

 ----------
 butane_opt
 ----------
 Symbolic Z-matrix:
 Charge =  0 Multiplicity = 1

                         Standard orientation:
 ---------------------------------------------------------------------
 Center     Atomic      Atomic             Coordinates (Angstroms)
 Number     Number       Type             X           Y           Z
 ---------------------------------------------------------------------
      1          6           0        1.879740   -0.173517   -0.232218
      2          6           0        0.476831    0.592700    0.182636
      3          1           0        2.763459    0.550296   -0.634467
      4          1           0        1.732644   -0.459283   -0.765351
      5          1           0        2.647638   -1.159111    0.954152
      6          6           0       -0.524083   -0.493189    0.183870
      7          1           0        0.365461    0.856637   -0.451227
      8          1           0        0.576496    1.896982    1.262990
      9          6           0       -1.916480    0.069965   -0.172934
     10          1           0       -0.565627   -1.069318    1.102650
     11          1           0       -0.208507   -1.114496   -0.615316
     12          1           0       -2.045875    0.462735    0.649023
     13          1           0       -2.822439   -0.767412   -0.039973
     14          1           0       -1.939301    0.827216   -1.230604
 ---------------------------------------------------------------------

 SCF Done:  E(RB2PLYPD3) =  -157.210997330     A.U. after   12 cycles
 E2(B2PLYPD3) =    -0.2566186825D+00 E(B2PLYPD3) =    -0.15746761601255D+03

 The electronic state is 1-A.
 Alpha  occ. eigenvalues --  -10.64178 -10.63202 -10.62036 -10.61540  -0.97347
 Alpha  occ. eigenvalues --   -0.87351  -0.79485  -0.70337  -0.55131  -0.50617
 Alpha  occ. eigenvalues --   -0.48867  -0.47713  -0.42944  -0.39557  -0.38134
 Alpha  occ. eigenvalues --   -0.35557  -0.35146
 Alpha virt. eigenvalues --    0.01183   0.03236   0.05396   0.07942   0.08523
 Alpha virt. eigenvalues --    0.10424   0.11708   0.12498   0.13975   0.15085
 Alpha virt. eigenvalues --    0.15158   0.16257   0.17999   0.19075   0.20052

 Mulliken charges:
               1
     1  C   -0.776280
     2  C   -0.608817
     3  H    0.080039
     4  H    0.632848
     5  H   -0.002507
     6  C    0.013927
     7  H    0.585216
     8  H    0.003254
     9  C   -0.220543
    10  H    0.051530
    11  H    0.048964
    12  H    0.121980
    13  H    0.026518
    14  H    0.043870
 Sum of Mulliken charges =   0.00000

 Dipole moment (field-independent basis, Debye):
    X=             -0.4944    Y=             -0.0775    Z=             -0.7588  Tot=              0.9090
 Quadrupole moment (field-independent basis, Debye-Ang):
   XX=            -31.4837   YY=            -30.0816   ZZ=            -28.2044
   XY=              0.8080   XZ=             -2.0012   YZ=             -0.8591

 Normal termination of Gaussian 09 at Wed Aug 26 18:49:25 2020.
