 Gaussian 09, Revision D.01,
 Gaussian 09:  ES64L-G09RevD.01 24-Apr-2013

 --------------------
 #p B2PLYPD3/Def2QZVP
 --------------------

 ----------
 butane_opt
 ----------
 Symbolic Z-matrix:
 Charge =  0 Multiplicity = 1

                         Standard orientation:
 ---------------------------------------------------------------------
 Center     Atomic      Atomic             Coordinates (Angstroms)
 Number     Number       Type             X           Y           Z
 ---------------------------------------------------------------------
      1          6           0        2.033434    0.149033    0.026897
      2          6           0        0.527166   -0.572856   -0.033995
      3          1           0        2.803994   -0.614337   -0.378470
      4          1           0        2.454089    1.049744    1.086372
      5          1           0        1.849019    0.566672   -0.669838
      6          6           0       -0.598522    0.466732   -0.087596
      7          1           0        0.421513   -1.144348    0.840027
      8          1           0        0.494713   -1.111537   -0.723029
      9          6           0       -1.951250   -0.109971    0.049297
     10          1           0       -0.555468    1.086941   -0.928254
     11          1           0       -0.536597    1.181794    0.792008
     12          1           0       -2.121855   -0.519160   -0.755054
     13          1           0       -2.801105    0.747645   -0.106710
     14          1           0       -2.073269   -0.841045    1.115331
 ---------------------------------------------------------------------

 SCF Done:  E(RB2PLYPD3) =  -157.872485585     A.U. after   11 cycles
 E2(B2PLYPD3) =    -0.2491671139D+00 E(B2PLYPD3) =    -0.15812165269901D+03

 The electronic state is 1-A.
 Alpha  occ. eigenvalues --  -10.61312 -10.60898 -10.60142 -10.58964  -0.92413
 Alpha  occ. eigenvalues --   -0.84738  -0.74951  -0.68636  -0.55561  -0.49566
 Alpha  occ. eigenvalues --   -0.48792  -0.46927  -0.41934  -0.40201  -0.39098
 Alpha  occ. eigenvalues --   -0.37401  -0.36366
 Alpha virt. eigenvalues --    0.04945   0.05573   0.08275   0.08617   0.10278
 Alpha virt. eigenvalues --    0.11419   0.11809   0.12851   0.14484   0.15361
 Alpha virt. eigenvalues --    0.16108   0.16266   0.18746   0.19523   0.21266

 Mulliken charges:
               1
     1  C   -0.361125
     2  C   -0.116971
     3  H    0.043061
     4  H    0.042896
     5  H    0.234323
     6  C   -0.005712
     7  H    0.036622
     8  H    0.109519
     9  C   -0.185657
    10  H    0.027522
    11  H    0.031538
    12  H    0.080024
    13  H    0.022832
    14  H    0.041129
 Sum of Mulliken charges =   0.00000

 Dipole moment (field-independent basis, Debye):
    X=             -0.1905    Y=             -0.1247    Z=             -0.7402  Tot=              0.7745
 Quadrupole moment (field-independent basis, Debye-Ang):
   XX=            -31.0238   YY=            -28.8232   ZZ=            -27.7500
   XY=             -0.4014   XZ=              0.0891   YZ=              0.2126

 Normal termination of Gaussian 09 at Wed Aug 26 21:09:47 2020.
