 Gaussian 09, Revision D.01,
 Gaussian 09:  ES64L-G09RevD.01 24-Apr-2013

 --------------------
 #p B2PLYPD3/Def2QZVP
 --------------------

 ----------
 butane_opt
 ----------
 Symbolic Z-matrix:
 Charge =  0 Multiplicity = 1

                         Standard orientation:
 ---------------------------------------------------------------------
 Center     Atomic      Atomic             Coordinates (Angstroms)
 Number     Number       Type             X           Y           Z
 ---------------------------------------------------------------------
      1          6           0       -1.947041    0.103350   -0.185697
      2          6           0       -0.654201   -0.484802    0.111322
      3          1           0       -2.845520   -0.640965   -0.021402
      4          1           0       -2.384593    0.775551   -1.059027
      5          1           0       -1.977159    0.461559    0.491647
      6          6           0        0.584082    0.583067    0.291235
      7          1           0       -0.374565   -0.909472   -0.650364
      8          1           0       -0.589758   -1.388010    1.180082
      9          6           0        2.038350   -0.177511   -0.235473
     10          1           0        0.562036    1.478708    1.331242
     11          1           0        0.321991    1.138602   -0.345914
     12          1           0        2.490617   -1.021104    0.890841
     13          1           0        2.885565    0.569120   -0.769682
     14          1           0        1.784242   -0.608607   -0.935743
 ---------------------------------------------------------------------

 SCF Done:  E(RB2PLYPD3) =  -157.667934928     A.U. after   11 cycles
 E2(B2PLYPD3) =    -0.2535207134D+00 E(B2PLYPD3) =    -0.15792145564108D+03

 The electronic state is 1-A.
 Alpha  occ. eigenvalues --  -10.64500 -10.63157 -10.62645 -10.57965  -0.93508
 Alpha  occ. eigenvalues --   -0.84732  -0.75730  -0.69768  -0.54099  -0.49704
 Alpha  occ. eigenvalues --   -0.47641  -0.45048  -0.42437  -0.41179  -0.37955
 Alpha  occ. eigenvalues --   -0.37111  -0.34516
 Alpha virt. eigenvalues --    0.03826   0.05685   0.06865   0.07645   0.09531
 Alpha virt. eigenvalues --    0.10976   0.12416   0.12975   0.14372   0.14706
 Alpha virt. eigenvalues --    0.15566   0.16390   0.17936   0.18732   0.19952

 Mulliken charges:
               1
     1  C   -0.466245
     2  C   -0.088690
     3  H    0.042472
     4  H    0.058578
     5  H    0.340174
     6  C   -0.183594
     7  H    0.115847
     8  H    0.012121
     9  C   -0.296488
    10  H    0.016097
    11  H    0.171565
    12  H    0.038502
    13  H    0.045616
    14  H    0.194045
 Sum of Mulliken charges =   0.00000

 Dipole moment (field-independent basis, Debye):
    X=             -0.4728    Y=              0.2609    Z=             -0.7852  Tot=              0.9530
 Quadrupole moment (field-independent basis, Debye-Ang):
   XX=            -29.8866   YY=            -29.6157   ZZ=            -28.3402
   XY=             -0.4726   XZ=             -0.8317   YZ=             -0.5644

 Normal termination of Gaussian 09 at Wed Aug 26 14:48:43 2020.
