 Gaussian 09, Revision D.01,
 Gaussian 09:  ES64L-G09RevD.01 24-Apr-2013

 --------------------
 #p B2PLYPD3/Def2QZVP
 --------------------

 ----------
 butane_opt
 ----------
 Symbolic Z-matrix:
 Charge =  0 Multiplicity = 1

                         Standard orientation:
 ---------------------------------------------------------------------
 Center     Atomic      Atomic             Coordinates (Angstroms)
 Number     Number       Type             X           Y           Z
 ---------------------------------------------------------------------
      1          6           0       -1.894370    0.043428   -0.173211
      2          6           0       -0.558720   -0.388019    0.105702
      3          1           0       -2.749840   -0.882141   -0.022644
      4          1           0       -2.254717    1.141776   -1.209248
      5          1           0       -1.921061    0.433824    0.491934
      6          6           0        0.510688    0.529175    0.258021
      7          1           0       -0.517081   -0.860186   -0.514054
      8          1           0       -0.810346   -1.367405    1.228829
      9          6           0        2.029653   -0.188052   -0.195615
     10          1           0        0.538416    1.510470    1.393338
     11          1           0        0.115410    0.948666   -0.392615
     12          1           0        2.476933   -0.753674    0.694779
     13          1           0        2.744468    0.577227   -0.586287
     14          1           0        1.854318   -0.727749   -1.053415
 ---------------------------------------------------------------------

 SCF Done:  E(RB2PLYPD3) =  -157.557117495     A.U. after   12 cycles
 E2(B2PLYPD3) =    -0.2550805280D+00 E(B2PLYPD3) =    -0.15781219802278D+03

 The electronic state is 1-A.
 Alpha  occ. eigenvalues --  -10.63451 -10.62862 -10.61475 -10.61142  -0.99270
 Alpha  occ. eigenvalues --   -0.85200  -0.77200  -0.72374  -0.54053  -0.50157
 Alpha  occ. eigenvalues --   -0.48553  -0.46205  -0.43166  -0.41794  -0.39805
 Alpha  occ. eigenvalues --   -0.36276  -0.32165
 Alpha virt. eigenvalues --    0.02621   0.03959   0.06288   0.06866   0.10621
 Alpha virt. eigenvalues --    0.11132   0.12253   0.12883   0.13457   0.14687
 Alpha virt. eigenvalues --    0.15259   0.15759   0.17722   0.18737   0.20689

 Mulliken charges:
               1
     1  C   -0.481758
     2  C   -0.326587
     3  H    0.077641
     4  H    0.000311
     5  H    0.373386
     6  C   -0.201134
     7  H    0.339485
     8  H   -0.046734
     9  C   -0.147703
    10  H    0.013411
    11  H    0.211820
    12  H    0.073225
    13  H    0.047631
    14  H    0.067005
 Sum of Mulliken charges =   0.00000

 Dipole moment (field-independent basis, Debye):
    X=              0.4085    Y=             -0.0648    Z=             -0.4574  Tot=              0.6167
 Quadrupole moment (field-independent basis, Debye-Ang):
   XX=            -29.3326   YY=            -30.0160   ZZ=            -29.4907
   XY=              0.2591   XZ=             -1.0176   YZ=              0.3981

 Normal termination of Gaussian 09 at Wed Aug 26 19:43:52 2020.
