 Gaussian 09, Revision D.01,
 Gaussian 09:  ES64L-G09RevD.01 24-Apr-2013

 --------------------
 #p B2PLYPD3/Def2QZVP
 --------------------

 ----------
 butane_opt
 ----------
 Symbolic Z-matrix:
 Charge =  0 Multiplicity = 1

                         Standard orientation:
 ---------------------------------------------------------------------
 Center     Atomic      Atomic             Coordinates (Angstroms)
 Number     Number       Type             X           Y           Z
 ---------------------------------------------------------------------
      1          6           0        1.824914    0.045232    0.113767
      2          6           0        0.567772   -0.453345   -0.183723
      3          1           0        2.759815   -0.889996    0.136696
      4          1           0        2.085792    0.982205    1.276290
      5          1           0        2.164904    0.425360   -0.570886
      6          6           0       -0.477518    0.600452   -0.229969
      7          1           0        0.230127   -1.103100    0.779554
      8          1           0        0.483402   -0.955925   -0.934199
      9          6           0       -1.956955   -0.182273    0.147932
     10          1           0       -0.296503    1.272512   -1.165565
     11          1           0       -0.279524    1.096406    0.660171
     12          1           0       -2.434844   -0.873431   -0.754980
     13          1           0       -2.700408    0.678210    0.485787
     14          1           0       -1.762039   -0.692639    0.999093
 ---------------------------------------------------------------------

 SCF Done:  E(RB2PLYPD3) =  -157.884123653     A.U. after   11 cycles
 E2(B2PLYPD3) =    -0.2518904983D+00 E(B2PLYPD3) =    -0.15813601415170D+03

 The electronic state is 1-A.
 Alpha  occ. eigenvalues --  -10.62983 -10.62296 -10.61748 -10.58814  -0.94634
 Alpha  occ. eigenvalues --   -0.82577  -0.73747  -0.68026  -0.57539  -0.49845
 Alpha  occ. eigenvalues --   -0.47410  -0.46429  -0.43506  -0.40388  -0.38576
 Alpha  occ. eigenvalues --   -0.35967  -0.34711
 Alpha virt. eigenvalues --    0.04037   0.06068   0.07352   0.08077   0.10283
 Alpha virt. eigenvalues --    0.10438   0.12247   0.13138   0.14067   0.15314
 Alpha virt. eigenvalues --    0.15652   0.16299   0.18505   0.19309   0.20752

 Mulliken charges:
               1
     1  C   -0.235816
     2  C   -0.035039
     3  H    0.015348
     4  H    0.009267
     5  H    0.147049
     6  C   -0.090971
     7  H    0.009063
     8  H    0.085498
     9  C   -0.182173
    10  H    0.036418
    11  H    0.070279
    12  H    0.042624
    13  H    0.038325
    14  H    0.090126
 Sum of Mulliken charges =   0.00000

 Dipole moment (field-independent basis, Debye):
    X=             -0.0452    Y=             -0.0347    Z=             -0.4770  Tot=              0.4804
 Quadrupole moment (field-independent basis, Debye-Ang):
   XX=            -31.2300   YY=            -29.7425   ZZ=            -28.1044
   XY=              0.4603   XZ=             -1.5385   YZ=              0.5001

 Normal termination of Gaussian 09 at Wed Aug 26 23:21:08 2020.
