 Gaussian 09, Revision D.01,
 Gaussian 09:  ES64L-G09RevD.01 24-Apr-2013

 --------------------
 #p B2PLYPD3/Def2QZVP
 --------------------

 ----------
 butane_opt
 ----------
 Symbolic Z-matrix:
 Charge =  0 Multiplicity = 1

                         Standard orientation:
 ---------------------------------------------------------------------
 Center     Atomic      Atomic             Coordinates (Angstroms)
 Number     Number       Type             X           Y           Z
 ---------------------------------------------------------------------
      1          6           0        1.938617   -0.172262   -0.132891
      2          6           0        0.517721    0.576912    0.088333
      3          1           0        2.596230    0.504690   -0.767095
      4          1           0        1.833291   -0.475638   -0.751435
      5          1           0        2.655055   -0.938684    0.919949
      6          6           0       -0.604906   -0.425784    0.190409
      7          1           0        0.265504    0.770544   -0.492567
      8          1           0        0.430191    1.426733    1.080897
      9          6           0       -1.835623    0.080578   -0.089041
     10          1           0       -0.551362   -1.088442    1.170060
     11          1           0       -0.797539   -1.189275   -0.687419
     12          1           0       -2.073019    0.813201    0.635484
     13          1           0       -2.635214   -0.733735   -0.433958
     14          1           0       -1.817988    0.553944   -1.014781
 ---------------------------------------------------------------------

 SCF Done:  E(RB2PLYPD3) =  -157.415103979     A.U. after   12 cycles
 E2(B2PLYPD3) =    -0.2520890192D+00 E(B2PLYPD3) =    -0.15766719299783D+03

 The electronic state is 1-A.
 Alpha  occ. eigenvalues --  -10.60877 -10.60819 -10.60257 -10.59230  -0.97559
 Alpha  occ. eigenvalues --   -0.88703  -0.80327  -0.66679  -0.57013  -0.52701
 Alpha  occ. eigenvalues --   -0.48551  -0.46884  -0.42529  -0.41005  -0.39965
 Alpha  occ. eigenvalues --   -0.35733  -0.34233
 Alpha virt. eigenvalues --    0.04536   0.05621   0.07257   0.08357   0.09514
 Alpha virt. eigenvalues --    0.11200   0.11953   0.12949   0.14192   0.16051
 Alpha virt. eigenvalues --    0.16614   0.17251   0.18257   0.19173   0.19970

 Mulliken charges:
               1
     1  C   -0.599235
     2  C   -0.717959
     3  H    0.041516
     4  H    0.488881
     5  H    0.063379
     6  C    0.001975
     7  H    0.661795
     8  H    0.045573
     9  C   -0.137058
    10  H    0.029884
    11  H   -0.001267
    12  H    0.035968
    13  H    0.041665
    14  H    0.044884
 Sum of Mulliken charges =   0.00000

 Dipole moment (field-independent basis, Debye):
    X=             -0.2459    Y=              0.0049    Z=             -0.7152  Tot=              0.7563
 Quadrupole moment (field-independent basis, Debye-Ang):
   XX=            -30.1648   YY=            -29.6879   ZZ=            -27.1884
   XY=             -0.1690   XZ=              0.3358   YZ=              0.0483

 Normal termination of Gaussian 09 at Wed Aug 26 11:14:17 2020.
