 Gaussian 09, Revision D.01,
 Gaussian 09:  ES64L-G09RevD.01 24-Apr-2013

 --------------------
 #p B2PLYPD3/Def2QZVP
 --------------------

 ----------
 butane_opt
 ----------
 Symbolic Z-matrix:
 Charge =  0 Multiplicity = 1

                         Standard orientation:
 ---------------------------------------------------------------------
 Center     Atomic      Atomic             Coordinates (Angstroms)
 Number     Number       Type             X           Y           Z
 ---------------------------------------------------------------------
      1          6           0        1.922487   -0.173630   -0.130307
      2          6           0        0.482224    0.628141    0.205056
      3          1           0        2.666293    0.452420   -0.718984
      4          1           0        1.678078   -0.722719   -0.943790
      5          1           0        2.491365   -0.866015    0.835518
      6          6           0       -0.607049   -0.465644    0.145080
      7          1           0        0.307176    0.866927   -0.511665
      8          1           0        0.714172    1.321007    1.042825
      9          6           0       -1.847342    0.113010   -0.234083
     10          1           0       -0.726368   -1.277660    1.248882
     11          1           0       -0.173630   -0.903572   -0.518573
     12          1           0       -2.169999    0.867863    0.726426
     13          1           0       -2.694825   -0.963218   -0.155156
     14          1           0       -1.794179    0.613697   -0.919954
 ---------------------------------------------------------------------

 SCF Done:  E(RB2PLYPD3) =  -157.758120456     A.U. after   11 cycles
 E2(B2PLYPD3) =    -0.2514910828D+00 E(B2PLYPD3) =    -0.15800961153903D+03

 The electronic state is 1-A.
 Alpha  occ. eigenvalues --  -10.62236 -10.61579 -10.60849 -10.59081  -0.96121
 Alpha  occ. eigenvalues --   -0.84257  -0.74072  -0.69981  -0.57789  -0.53030
 Alpha  occ. eigenvalues --   -0.47597  -0.45795  -0.42856  -0.41188  -0.37820
 Alpha  occ. eigenvalues --   -0.36963  -0.34575
 Alpha virt. eigenvalues --    0.04470   0.06030   0.07917   0.08636   0.10010
 Alpha virt. eigenvalues --    0.11366   0.11763   0.12402   0.13648   0.15441
 Alpha virt. eigenvalues --    0.16363   0.16621   0.18609   0.18931   0.21741

 Mulliken charges:
               1
     1  C   -0.178803
     2  C   -0.453262
     3  H    0.035233
     4  H    0.058271
     5  H    0.046261
     6  C   -0.049136
     7  H    0.390127
     8  H    0.077791
     9  C   -0.264918
    10  H   -0.003776
    11  H    0.120075
    12  H    0.039297
    13  H    0.044038
    14  H    0.138803
 Sum of Mulliken charges =   0.00000

 Dipole moment (field-independent basis, Debye):
    X=              0.1181    Y=              0.3277    Z=             -0.6618  Tot=              0.7479
 Quadrupole moment (field-independent basis, Debye-Ang):
   XX=            -31.7729   YY=            -29.3658   ZZ=            -27.8578
   XY=              0.0627   XZ=             -0.2236   YZ=             -0.1573

 Normal termination of Gaussian 09 at Wed Aug 26 23:42:24 2020.
