 Gaussian 09, Revision D.01,
 Gaussian 09:  ES64L-G09RevD.01 24-Apr-2013

 --------------------
 #p B2PLYPD3/Def2QZVP
 --------------------

 ----------
 butane_opt
 ----------
 Symbolic Z-matrix:
 Charge =  0 Multiplicity = 1

                         Standard orientation:
 ---------------------------------------------------------------------
 Center     Atomic      Atomic             Coordinates (Angstroms)
 Number     Number       Type             X           Y           Z
 ---------------------------------------------------------------------
      1          6           0       -1.962904   -0.093400    0.141854
      2          6           0       -0.569958    0.540127   -0.128865
      3          1           0       -2.726610    0.647972    0.015472
      4          1           0       -2.098413   -0.884229    1.117712
      5          1           0       -2.080864   -0.805853   -0.832303
      6          6           0        0.593563   -0.576758   -0.040882
      7          1           0       -0.463294    0.803720    0.578054
      8          1           0       -0.965876    1.553519   -1.252421
      9          6           0        2.004747    0.167831    0.079695
     10          1           0        0.548396   -1.317872   -0.952323
     11          1           0        0.350220   -1.188200    0.887815
     12          1           0        1.975920    0.352588   -0.430899
     13          1           0        2.648015   -0.648657   -0.687596
     14          1           0        2.419822    1.260211    1.245673
 ---------------------------------------------------------------------

 SCF Done:  E(RB2PLYPD3) =  -157.015745183     A.U. after   12 cycles
 E2(B2PLYPD3) =    -0.2596302645D+00 E(B2PLYPD3) =    -0.15727537544751D+03

 The electronic state is 1-A.
 Alpha  occ. eigenvalues --  -10.64822 -10.64780 -10.62856 -10.61951  -0.94608
 Alpha  occ. eigenvalues --   -0.88834  -0.74504  -0.68724  -0.52046  -0.48752
 Alpha  occ. eigenvalues --   -0.46599  -0.45168  -0.42047  -0.39084  -0.37654
 Alpha  occ. eigenvalues --   -0.35973  -0.34985
 Alpha virt. eigenvalues --    0.00440   0.03228   0.05429   0.06447   0.10289
 Alpha virt. eigenvalues --    0.10862   0.11389   0.12057   0.12893   0.14726
 Alpha virt. eigenvalues --    0.15514   0.16137   0.17059   0.18360   0.20099

 Mulliken charges:
               1
     1  C   -0.158759
     2  C   -0.502231
     3  H    0.067883
     4  H    0.033937
     5  H    0.030165
     6  C    0.034209
     7  H    0.446009
     8  H    0.020305
     9  C   -1.011000
    10  H    0.033243
    11  H    0.054564
    12  H    0.835904
    13  H    0.037203
    14  H    0.078568
 Sum of Mulliken charges =   0.00000

 Dipole moment (field-independent basis, Debye):
    X=             -0.2492    Y=              0.1945    Z=              0.0220  Tot=              0.3169
 Quadrupole moment (field-independent basis, Debye-Ang):
   XX=            -32.1609   YY=            -29.1383   ZZ=            -27.9967
   XY=              0.2252   XZ=             -0.5715   YZ=              0.9299

 Normal termination of Gaussian 09 at Wed Aug 26 14:45:30 2020.
