 Gaussian 09, Revision D.01,
 Gaussian 09:  ES64L-G09RevD.01 24-Apr-2013

 --------------------
 #p B2PLYPD3/Def2QZVP
 --------------------

 ----------
 butane_opt
 ----------
 Symbolic Z-matrix:
 Charge =  0 Multiplicity = 1

                         Standard orientation:
 ---------------------------------------------------------------------
 Center     Atomic      Atomic             Coordinates (Angstroms)
 Number     Number       Type             X           Y           Z
 ---------------------------------------------------------------------
      1          6           0        1.923799    0.086775   -0.055797
      2          6           0        0.622025   -0.478359    0.085114
      3          1           0        2.735412   -0.664234   -0.373243
      4          1           0        2.266891    0.748093    0.848507
      5          1           0        1.874017    0.648582   -0.959743
      6          6           0       -0.559108    0.601483    0.024834
      7          1           0        0.596031   -1.312532    1.070878
      8          1           0        0.382121   -1.054417   -0.684924
      9          6           0       -1.982433   -0.184055   -0.042130
     10          1           0       -0.378907    1.065027   -0.718472
     11          1           0       -0.480355    1.342353    0.949497
     12          1           0       -2.244959   -0.733364   -0.926729
     13          1           0       -2.674995    0.529109   -0.084675
     14          1           0       -2.100957   -0.723675    0.806780
 ---------------------------------------------------------------------

 SCF Done:  E(RB2PLYPD3) =  -158.025871374     A.U. after   11 cycles
 E2(B2PLYPD3) =    -0.2468563416D+00 E(B2PLYPD3) =    -0.15827272771588D+03

 The electronic state is 1-A.
 Alpha  occ. eigenvalues --  -10.60682 -10.60505 -10.60346 -10.58264  -0.91555
 Alpha  occ. eigenvalues --   -0.84012  -0.74415  -0.67165  -0.54115  -0.50476
 Alpha  occ. eigenvalues --   -0.48594  -0.47179  -0.44365  -0.42340  -0.39657
 Alpha  occ. eigenvalues --   -0.36631  -0.35518
 Alpha virt. eigenvalues --    0.05700   0.06916   0.08186   0.08756   0.10958
 Alpha virt. eigenvalues --    0.11835   0.12883   0.13685   0.14886   0.15299
 Alpha virt. eigenvalues --    0.15937   0.16671   0.18985   0.20331   0.21974

 Mulliken charges:
               1
     1  C   -0.147409
     2  C   -0.050078
     3  H    0.039232
     4  H    0.047610
     5  H    0.039026
     6  C   -0.127732
     7  H   -0.007614
     8  H    0.067327
     9  C   -0.134135
    10  H    0.117299
    11  H    0.019406
    12  H    0.026696
    13  H    0.044135
    14  H    0.066235
 Sum of Mulliken charges =   0.00000

 Dipole moment (field-independent basis, Debye):
    X=             -0.1945    Y=              0.1615    Z=             -0.5247  Tot=              0.5824
 Quadrupole moment (field-independent basis, Debye-Ang):
   XX=            -29.1298   YY=            -29.0769   ZZ=            -27.9559
   XY=             -0.0624   XZ=              0.0406   YZ=              0.3178

 Normal termination of Gaussian 09 at Wed Aug 26 11:04:12 2020.
