 Gaussian 09, Revision D.01,
 Gaussian 09:  ES64L-G09RevD.01 24-Apr-2013

 --------------------
 #p B2PLYPD3/Def2QZVP
 --------------------

 ----------
 butane_opt
 ----------
 Symbolic Z-matrix:
 Charge =  0 Multiplicity = 1

                         Standard orientation:
 ---------------------------------------------------------------------
 Center     Atomic      Atomic             Coordinates (Angstroms)
 Number     Number       Type             X           Y           Z
 ---------------------------------------------------------------------
      1          6           0        1.931153    0.074361    0.134880
      2          6           0        0.591640   -0.419942   -0.121353
      3          1           0        2.809244   -0.870511   -0.019340
      4          1           0        1.748993    1.494529    1.339090
      5          1           0        1.929232    0.371290   -0.582431
      6          6           0       -0.473976    0.459301   -0.233287
      7          1           0        0.368849   -0.898527    0.702378
      8          1           0        0.677085   -1.335199   -1.124394
      9          6           0       -1.965266   -0.122069    0.141053
     10          1           0       -0.485085    1.083560   -1.162281
     11          1           0       -0.455951    1.253188    0.653731
     12          1           0       -2.274539   -0.240599   -0.347687
     13          1           0       -2.735711    0.438900   -0.398919
     14          1           0       -2.083428   -1.246544    1.412091
 ---------------------------------------------------------------------

 SCF Done:  E(RB2PLYPD3) =  -157.036539576     A.U. after   13 cycles
 E2(B2PLYPD3) =    -0.2637479450D+00 E(B2PLYPD3) =    -0.15730028752071D+03

 The electronic state is 1-A.
 Alpha  occ. eigenvalues --  -10.63312 -10.63291 -10.63085 -10.61429  -0.99194
 Alpha  occ. eigenvalues --   -0.95092  -0.81431  -0.67533  -0.54851  -0.50369
 Alpha  occ. eigenvalues --   -0.49842  -0.43976  -0.39579  -0.39101  -0.36216
 Alpha  occ. eigenvalues --   -0.33192  -0.32983
 Alpha virt. eigenvalues --   -0.01410   0.00217   0.04668   0.05567   0.09107
 Alpha virt. eigenvalues --    0.10173   0.10961   0.12611   0.12645   0.14904
 Alpha virt. eigenvalues --    0.15696   0.15927   0.17393   0.19353   0.21598

 Mulliken charges:
               1
     1  C   -0.413465
     2  C   -0.037348
     3  H    0.059230
     4  H   -0.022047
     5  H    0.338370
     6  C   -0.049140
     7  H    0.080297
     8  H   -0.003777
     9  C   -0.821772
    10  H    0.021557
    11  H    0.050073
    12  H    0.705439
    13  H    0.033581
    14  H    0.059002
 Sum of Mulliken charges =   0.00000

 Dipole moment (field-independent basis, Debye):
    X=             -0.6786    Y=             -0.6182    Z=             -1.4466  Tot=              1.7132
 Quadrupole moment (field-independent basis, Debye-Ang):
   XX=            -30.3813   YY=            -30.2676   ZZ=            -28.9771
   XY=             -1.1589   XZ=              0.5156   YZ=             -1.2423

 Normal termination of Gaussian 09 at Wed Aug 26 20:31:26 2020.
