 Gaussian 09, Revision D.01,
 Gaussian 09:  ES64L-G09RevD.01 24-Apr-2013

 --------------------
 #p B2PLYPD3/Def2QZVP
 --------------------

 ----------
 butane_opt
 ----------
 Symbolic Z-matrix:
 Charge =  0 Multiplicity = 1

                         Standard orientation:
 ---------------------------------------------------------------------
 Center     Atomic      Atomic             Coordinates (Angstroms)
 Number     Number       Type             X           Y           Z
 ---------------------------------------------------------------------
      1          6           0        2.015306    0.132692   -0.004914
      2          6           0        0.538002   -0.523812    0.007688
      3          1           0        2.726597   -0.563692   -0.381246
      4          1           0        2.282573    1.229533    1.148574
      5          1           0        1.968100    0.367698   -0.566740
      6          6           0       -0.625889    0.445225   -0.116883
      7          1           0        0.406519   -1.148555    0.943298
      8          1           0        0.399180   -1.327212   -0.911600
      9          6           0       -1.940461   -0.080769    0.058953
     10          1           0       -0.497258    1.127524   -0.973091
     11          1           0       -0.407571    1.154952    0.725803
     12          1           0       -2.130878   -0.465814   -0.693662
     13          1           0       -2.731746    0.698785   -0.180586
     14          1           0       -1.937266   -0.913237    1.220180
 ---------------------------------------------------------------------

 SCF Done:  E(RB2PLYPD3) =  -157.463567505     A.U. after   11 cycles
 E2(B2PLYPD3) =    -0.2528709876D+00 E(B2PLYPD3) =    -0.15771643849211D+03

 The electronic state is 1-A.
 Alpha  occ. eigenvalues --  -10.63377 -10.61145 -10.60579 -10.60476  -0.93819
 Alpha  occ. eigenvalues --   -0.89570  -0.77128  -0.66493  -0.53759  -0.50937
 Alpha  occ. eigenvalues --   -0.49165  -0.45767  -0.41847  -0.40455  -0.38076
 Alpha  occ. eigenvalues --   -0.37687  -0.35018
 Alpha virt. eigenvalues --    0.03115   0.04939   0.06937   0.07511   0.10051
 Alpha virt. eigenvalues --    0.10442   0.11926   0.12817   0.13391   0.15424
 Alpha virt. eigenvalues --    0.15985   0.16339   0.18265   0.19424   0.20879

 Mulliken charges:
               1
     1  C   -0.806209
     2  C    0.006625
     3  H    0.086374
     4  H    0.035083
     5  H    0.629900
     6  C    0.008227
     7  H    0.034475
     8  H   -0.005934
     9  C   -0.230850
    10  H    0.013975
    11  H    0.023217
    12  H    0.130344
    13  H    0.037172
    14  H    0.037601
 Sum of Mulliken charges =   0.00000

 Dipole moment (field-independent basis, Debye):
    X=             -0.1674    Y=              0.1003    Z=             -0.8720  Tot=              0.8936
 Quadrupole moment (field-independent basis, Debye-Ang):
   XX=            -30.2364   YY=            -29.5185   ZZ=            -28.0081
   XY=             -0.4860   XZ=              0.1118   YZ=             -0.0846

 Normal termination of Gaussian 09 at Wed Aug 26 14:24:36 2020.
