 Gaussian 09, Revision D.01,
 Gaussian 09:  ES64L-G09RevD.01 24-Apr-2013

 --------------------
 #p B2PLYPD3/Def2QZVP
 --------------------

 ----------
 butane_opt
 ----------
 Symbolic Z-matrix:
 Charge =  0 Multiplicity = 1

                         Standard orientation:
 ---------------------------------------------------------------------
 Center     Atomic      Atomic             Coordinates (Angstroms)
 Number     Number       Type             X           Y           Z
 ---------------------------------------------------------------------
      1          6           0        1.932819   -0.192301    0.083119
      2          6           0        0.491646    0.577762   -0.049449
      3          1           0        2.727837    0.514783   -0.259787
      4          1           0        2.077102   -0.163460   -0.401207
      5          1           0        2.023688   -1.173776    1.235480
      6          6           0       -0.564965   -0.467136   -0.200696
      7          1           0        0.304745    1.455248   -0.871384
      8          1           0        0.282598    0.989319    0.655316
      9          6           0       -1.897710    0.022633    0.161649
     10          1           0       -0.139859   -0.815259    0.347064
     11          1           0       -0.602623   -1.205559   -1.332053
     12          1           0       -1.933759    0.780359    1.307273
     13          1           0       -2.543788   -0.696877    0.064412
     14          1           0       -1.966685    0.669468   -0.712851
 ---------------------------------------------------------------------

 SCF Done:  E(RB2PLYPD3) =  -156.788863219     A.U. after   12 cycles
 E2(B2PLYPD3) =    -0.2553438722D+00 E(B2PLYPD3) =    -0.15704420709098D+03

 The electronic state is 1-A.
 Alpha  occ. eigenvalues --  -10.65131 -10.60877 -10.60063 -10.58259  -0.98085
 Alpha  occ. eigenvalues --   -0.92718  -0.79873  -0.70668  -0.55240  -0.51261
 Alpha  occ. eigenvalues --   -0.48901  -0.46877  -0.41202  -0.38926  -0.38427
 Alpha  occ. eigenvalues --   -0.36895  -0.34502
 Alpha virt. eigenvalues --    0.03420   0.05638   0.05859   0.07053   0.09500
 Alpha virt. eigenvalues --    0.11910   0.12689   0.13159   0.14266   0.15028
 Alpha virt. eigenvalues --    0.16104   0.16643   0.18606   0.19124   0.21550

 Mulliken charges:
               1
     1  C   -1.088664
     2  C   -0.169627
     3  H    0.022109
     4  H    0.921239
     5  H    0.100147
     6  C   -0.330839
     7  H   -0.003114
     8  H    0.195689
     9  C   -0.136757
    10  H    0.332299
    11  H    0.008178
    12  H    0.019327
    13  H    0.076865
    14  H    0.053148
 Sum of Mulliken charges =   0.00000

 Dipole moment (field-independent basis, Debye):
    X=              0.2398    Y=             -0.2000    Z=              0.0240  Tot=              0.3132
 Quadrupole moment (field-independent basis, Debye-Ang):
   XX=            -29.2745   YY=            -29.2963   ZZ=            -27.5929
   XY=              0.0594   XZ=             -0.4053   YZ=             -0.9930

 Normal termination of Gaussian 09 at Wed Aug 26 09:58:47 2020.
