 Gaussian 09, Revision D.01,
 Gaussian 09:  ES64L-G09RevD.01 24-Apr-2013

 --------------------
 #p B2PLYPD3/Def2QZVP
 --------------------

 ----------
 butane_opt
 ----------
 Symbolic Z-matrix:
 Charge =  0 Multiplicity = 1

                         Standard orientation:
 ---------------------------------------------------------------------
 Center     Atomic      Atomic             Coordinates (Angstroms)
 Number     Number       Type             X           Y           Z
 ---------------------------------------------------------------------
      1          6           0       -1.869892    0.083958   -0.145693
      2          6           0       -0.599225   -0.367126    0.206942
      3          1           0       -2.768608   -0.945753   -0.296948
      4          1           0       -1.533940    0.547914   -1.003574
      5          1           0       -2.194563    0.803921    0.577286
      6          6           0        0.499517    0.543137    0.032262
      7          1           0       -0.438237   -1.064426   -0.619717
      8          1           0       -0.671408   -1.123712    1.281352
      9          6           0        1.938094   -0.117541   -0.075896
     10          1           0        0.548579    1.738706    1.139079
     11          1           0        0.375107    0.691175   -0.682429
     12          1           0        2.356100   -0.966713    1.084553
     13          1           0        2.613965    0.294747   -0.729774
     14          1           0        1.902036   -0.830425   -0.855518
 ---------------------------------------------------------------------

 SCF Done:  E(RB2PLYPD3) =  -157.696465871     A.U. after   11 cycles
 E2(B2PLYPD3) =    -0.2554903817D+00 E(B2PLYPD3) =    -0.15795195625228D+03

 The electronic state is 1-A.
 Alpha  occ. eigenvalues --  -10.63732 -10.63070 -10.62178 -10.61593  -0.98348
 Alpha  occ. eigenvalues --   -0.86514  -0.76300  -0.66403  -0.56716  -0.50973
 Alpha  occ. eigenvalues --   -0.50513  -0.46516  -0.41599  -0.39466  -0.37833
 Alpha  occ. eigenvalues --   -0.36520  -0.33606
 Alpha virt. eigenvalues --    0.03343   0.04633   0.05041   0.07758   0.09397
 Alpha virt. eigenvalues --    0.10387   0.11026   0.11794   0.14160   0.15232
 Alpha virt. eigenvalues --    0.15600   0.16422   0.17376   0.19186   0.20365

 Mulliken charges:
               1
     1  C   -0.149732
     2  C   -0.018646
     3  H    0.035628
     4  H    0.052965
     5  H    0.064912
     6  C   -0.515905
     7  H    0.057178
     8  H   -0.003072
     9  C   -0.140659
    10  H   -0.021028
    11  H    0.499946
    12  H    0.037103
    13  H    0.065084
    14  H    0.036223
 Sum of Mulliken charges =   0.00000

 Dipole moment (field-independent basis, Debye):
    X=             -0.0050    Y=             -0.4085    Z=             -1.2277  Tot=              1.2939
 Quadrupole moment (field-independent basis, Debye-Ang):
   XX=            -30.9017   YY=            -30.9103   ZZ=            -28.5337
   XY=             -0.1627   XZ=             -2.1074   YZ=             -0.1258

 Normal termination of Gaussian 09 at Wed Aug 26 09:38:33 2020.
