 Gaussian 09, Revision D.01,
 Gaussian 09:  ES64L-G09RevD.01 24-Apr-2013

 --------------------
 #p B2PLYPD3/Def2QZVP
 --------------------

 ----------
 butane_opt
 ----------
 Symbolic Z-matrix:
 Charge =  0 Multiplicity = 1

                         Standard orientation:
 ---------------------------------------------------------------------
 Center     Atomic      Atomic             Coordinates (Angstroms)
 Number     Number       Type             X           Y           Z
 ---------------------------------------------------------------------
      1          6           0        1.962471   -0.098656    0.177586
      2          6           0        0.570121    0.541406   -0.261633
      3          1           0        2.695807    0.424196    0.661835
      4          1           0        2.526671   -0.732251   -0.681093
      5          1           0        1.737916   -0.715315    1.167646
      6          6           0       -0.567633   -0.513013   -0.208148
      7          1           0        0.474252    1.525746   -1.266897
      8          1           0        0.459148    1.086805    0.592094
      9          6           0       -1.983081    0.079979    0.191614
     10          1           0       -0.105673   -1.187229    0.507793
     11          1           0       -0.525810   -1.170428   -1.144319
     12          1           0       -2.389418    0.807641    1.264808
     13          1           0       -2.598656   -0.505827   -0.014366
     14          1           0       -2.165502    0.408366   -0.484016
 ---------------------------------------------------------------------

 SCF Done:  E(RB2PLYPD3) =  -157.805737308     A.U. after   11 cycles
 E2(B2PLYPD3) =    -0.2512507611D+00 E(B2PLYPD3) =    -0.15805698806933D+03

 The electronic state is 1-A.
 Alpha  occ. eigenvalues --  -10.63438 -10.62298 -10.62224 -10.57113  -0.92489
 Alpha  occ. eigenvalues --   -0.86352  -0.75829  -0.66337  -0.51713  -0.50764
 Alpha  occ. eigenvalues --   -0.47489  -0.46539  -0.42206  -0.40498  -0.38912
 Alpha  occ. eigenvalues --   -0.37100  -0.36021
 Alpha virt. eigenvalues --    0.05698   0.06002   0.06757   0.08000   0.10710
 Alpha virt. eigenvalues --    0.11571   0.12270   0.13752   0.14542   0.15345
 Alpha virt. eigenvalues --    0.15971   0.16701   0.18750   0.19374   0.20681

 Mulliken charges:
               1
     1  C   -0.142150
     2  C   -0.085297
     3  H    0.051864
     4  H    0.037779
     5  H    0.024928
     6  C   -0.004349
     7  H    0.001473
     8  H    0.081134
     9  C   -0.430878
    10  H    0.035870
    11  H    0.021689
    12  H    0.051716
    13  H    0.087000
    14  H    0.269222
 Sum of Mulliken charges =   0.00000

 Dipole moment (field-independent basis, Debye):
    X=             -0.2917    Y=             -0.1053    Z=              0.2007  Tot=              0.3694
 Quadrupole moment (field-independent basis, Debye-Ang):
   XX=            -27.7764   YY=            -29.9279   ZZ=            -28.1999
   XY=             -0.2033   XZ=              1.5177   YZ=              1.0151

 Normal termination of Gaussian 09 at Wed Aug 26 22:21:16 2020.
