 Gaussian 09, Revision D.01,
 Gaussian 09:  ES64L-G09RevD.01 24-Apr-2013

 --------------------
 #p B2PLYPD3/Def2QZVP
 --------------------

 ----------
 butane_opt
 ----------
 Symbolic Z-matrix:
 Charge =  0 Multiplicity = 1

                         Standard orientation:
 ---------------------------------------------------------------------
 Center     Atomic      Atomic             Coordinates (Angstroms)
 Number     Number       Type             X           Y           Z
 ---------------------------------------------------------------------
      1          6           0        1.936418   -0.168286   -0.089869
      2          6           0        0.564962    0.675560    0.045829
      3          1           0        2.751467    0.410548   -0.205877
      4          1           0        2.427812   -1.151507   -0.944373
      5          1           0        2.384025   -0.518680    0.841267
      6          6           0       -0.644901   -0.438815    0.299690
      7          1           0        0.462909    1.173361   -0.828833
      8          1           0        0.480198    1.104388    0.735495
      9          6           0       -1.955783    0.012998   -0.172443
     10          1           0       -0.570779   -1.019088    1.374472
     11          1           0       -0.438044   -1.038306   -0.429178
     12          1           0       -2.765813    1.024904    0.751399
     13          1           0       -2.698748   -0.844480   -0.797374
     14          1           0       -1.437206    0.370117   -0.996237
 ---------------------------------------------------------------------

 SCF Done:  E(RB2PLYPD3) =  -157.803222270     A.U. after   11 cycles
 E2(B2PLYPD3) =    -0.2543275535D+00 E(B2PLYPD3) =    -0.15805754982339D+03

 The electronic state is 1-A.
 Alpha  occ. eigenvalues --  -10.65273 -10.62422 -10.61704 -10.60074  -0.93171
 Alpha  occ. eigenvalues --   -0.84744  -0.75114  -0.66329  -0.57472  -0.49227
 Alpha  occ. eigenvalues --   -0.48313  -0.46060  -0.41375  -0.40449  -0.39059
 Alpha  occ. eigenvalues --   -0.36494  -0.33492
 Alpha virt. eigenvalues --    0.03414   0.04886   0.07581   0.08465   0.08681
 Alpha virt. eigenvalues --    0.10474   0.11929   0.13109   0.13343   0.15178
 Alpha virt. eigenvalues --    0.15508   0.17069   0.18204   0.18659   0.20512

 Mulliken charges:
               1
     1  C   -0.142928
     2  C   -0.234179
     3  H    0.043592
     4  H    0.023340
     5  H    0.030847
     6  C   -0.120518
     7  H    0.067531
     8  H    0.231312
     9  C   -0.180516
    10  H    0.025115
    11  H    0.128539
    12  H    0.005066
    13  H    0.043336
    14  H    0.079463
 Sum of Mulliken charges =   0.00000

 Dipole moment (field-independent basis, Debye):
    X=              0.8721    Y=              0.1558    Z=             -0.2545  Tot=              0.9217
 Quadrupole moment (field-independent basis, Debye-Ang):
   XX=            -30.8552   YY=            -29.8164   ZZ=            -28.5612
   XY=              0.9731   XZ=              0.7210   YZ=              0.7629

 Normal termination of Gaussian 09 at Wed Aug 26 11:53:01 2020.
