 Gaussian 09, Revision D.01,
 Gaussian 09:  ES64L-G09RevD.01 24-Apr-2013

 --------------------
 #p B2PLYPD3/Def2QZVP
 --------------------

 ----------
 butane_opt
 ----------
 Symbolic Z-matrix:
 Charge =  0 Multiplicity = 1

                         Standard orientation:
 ---------------------------------------------------------------------
 Center     Atomic      Atomic             Coordinates (Angstroms)
 Number     Number       Type             X           Y           Z
 ---------------------------------------------------------------------
      1          6           0        1.978886   -0.182200    0.161090
      2          6           0        0.504085    0.613893   -0.305034
      3          1           0        2.845488    0.728711    0.404775
      4          1           0        2.672203   -0.763037   -0.539915
      5          1           0        1.892881   -0.773380    1.133974
      6          6           0       -0.656485   -0.508344   -0.128194
      7          1           0        0.437012    1.098241   -1.154920
      8          1           0        0.353428    1.091978    0.494069
      9          6           0       -1.905370    0.106123    0.129147
     10          1           0       -0.521829   -1.054976    0.722512
     11          1           0       -0.581542   -1.306905   -0.972242
     12          1           0       -2.102272    1.182143    1.238931
     13          1           0       -2.594753   -0.785078    0.048203
     14          1           0       -1.927305    0.405468   -0.517439
 ---------------------------------------------------------------------

 SCF Done:  E(RB2PLYPD3) =  -157.730837011     A.U. after   11 cycles
 E2(B2PLYPD3) =    -0.2517531846D+00 E(B2PLYPD3) =    -0.15798259019600D+03

 The electronic state is 1-A.
 Alpha  occ. eigenvalues --  -10.63895 -10.60436 -10.60368 -10.59406  -0.95060
 Alpha  occ. eigenvalues --   -0.83563  -0.72703  -0.69663  -0.55709  -0.52407
 Alpha  occ. eigenvalues --   -0.47788  -0.44108  -0.43013  -0.40372  -0.38874
 Alpha  occ. eigenvalues --   -0.37977  -0.33477
 Alpha virt. eigenvalues --    0.03863   0.05731   0.06946   0.08571   0.10782
 Alpha virt. eigenvalues --    0.11167   0.11905   0.13995   0.14063   0.14776
 Alpha virt. eigenvalues --    0.15510   0.15653   0.18221   0.20051   0.21350

 Mulliken charges:
               1
     1  C   -0.187791
     2  C   -0.136683
     3  H    0.008880
     4  H    0.054548
     5  H    0.062893
     6  C   -0.017602
     7  H    0.066783
     8  H    0.112252
     9  C   -0.589832
    10  H    0.053865
    11  H    0.028261
    12  H    0.019201
    13  H    0.072315
    14  H    0.452910
 Sum of Mulliken charges =   0.00000

 Dipole moment (field-independent basis, Debye):
    X=             -0.1813    Y=             -0.1939    Z=             -0.3882  Tot=              0.4703
 Quadrupole moment (field-independent basis, Debye-Ang):
   XX=            -31.2815   YY=            -28.4928   ZZ=            -28.2458
   XY=              0.1696   XZ=              0.4561   YZ=             -0.1045

 Normal termination of Gaussian 09 at Wed Aug 26 23:54:04 2020.
