 Gaussian 09, Revision D.01,
 Gaussian 09:  ES64L-G09RevD.01 24-Apr-2013

 --------------------
 #p B2PLYPD3/Def2QZVP
 --------------------

 ----------
 butane_opt
 ----------
 Symbolic Z-matrix:
 Charge =  0 Multiplicity = 1

                         Standard orientation:
 ---------------------------------------------------------------------
 Center     Atomic      Atomic             Coordinates (Angstroms)
 Number     Number       Type             X           Y           Z
 ---------------------------------------------------------------------
      1          6           0        1.904057    0.161076   -0.149402
      2          6           0        0.483652   -0.578140    0.177504
      3          1           0        2.842144   -0.723504   -0.495136
      4          1           0        2.548349    1.282843    0.982797
      5          1           0        1.682329    0.538989   -0.806981
      6          6           0       -0.579148    0.417137    0.090442
      7          1           0        0.568535   -1.245778    1.165559
      8          1           0        0.271694   -0.976586   -0.486688
      9          6           0       -1.851202   -0.044492   -0.060791
     10          1           0       -0.328723    1.160838   -0.842952
     11          1           0       -0.922933    0.961690    0.744921
     12          1           0       -1.748690   -0.846746   -1.161279
     13          1           0       -2.605532    0.594092   -0.135793
     14          1           0       -2.051330   -0.479327    0.689029
 ---------------------------------------------------------------------

 SCF Done:  E(RB2PLYPD3) =  -157.627313875     A.U. after   12 cycles
 E2(B2PLYPD3) =    -0.2525047523D+00 E(B2PLYPD3) =    -0.15787981862761D+03

 The electronic state is 1-A.
 Alpha  occ. eigenvalues --  -10.64748 -10.60190 -10.58909 -10.58746  -0.98452
 Alpha  occ. eigenvalues --   -0.88467  -0.76887  -0.70056  -0.57605  -0.54084
 Alpha  occ. eigenvalues --   -0.50906  -0.48993  -0.43990  -0.39742  -0.37613
 Alpha  occ. eigenvalues --   -0.35137  -0.34705
 Alpha virt. eigenvalues --    0.01863   0.05464   0.07414   0.07954   0.09420
 Alpha virt. eigenvalues --    0.10297   0.12141   0.12836   0.13899   0.15205
 Alpha virt. eigenvalues --    0.15890   0.17123   0.18722   0.18813   0.20895

 Mulliken charges:
               1
     1  C   -0.395826
     2  C   -0.278772
     3  H    0.039806
     4  H   -0.002664
     5  H    0.310917
     6  C   -0.022362
     7  H    0.039366
     8  H    0.301332
     9  C   -0.154006
    10  H   -0.007392
    11  H    0.063528
    12  H   -0.034914
    13  H    0.049031
    14  H    0.091955
 Sum of Mulliken charges =   0.00000

 Dipole moment (field-independent basis, Debye):
    X=             -0.8498    Y=             -0.0010    Z=              0.1125  Tot=              0.8573
 Quadrupole moment (field-independent basis, Debye-Ang):
   XX=            -30.7032   YY=            -29.7534   ZZ=            -28.6138
   XY=             -2.3691   XZ=             -2.5215   YZ=             -0.2866

 Normal termination of Gaussian 09 at Wed Aug 26 15:39:13 2020.
