 Gaussian 09, Revision D.01,
 Gaussian 09:  ES64L-G09RevD.01 24-Apr-2013

 --------------------
 #p B2PLYPD3/Def2QZVP
 --------------------

 ----------
 butane_opt
 ----------
 Symbolic Z-matrix:
 Charge =  0 Multiplicity = 1

                         Standard orientation:
 ---------------------------------------------------------------------
 Center     Atomic      Atomic             Coordinates (Angstroms)
 Number     Number       Type             X           Y           Z
 ---------------------------------------------------------------------
      1          6           0        1.854092   -0.031088    0.149967
      2          6           0        0.590816    0.419854   -0.219925
      3          1           0        2.741892    0.962652    0.283039
      4          1           0        2.373399   -0.868182   -0.738079
      5          1           0        1.411597   -0.583354    1.203754
      6          6           0       -0.456637   -0.600820   -0.008252
      7          1           0        0.665184    0.897163   -1.328535
      8          1           0        0.288263    0.919428    0.414874
      9          6           0       -1.940993    0.159630    0.061319
     10          1           0       -0.337907   -1.110861    0.923309
     11          1           0       -0.715261   -1.188490   -0.710385
     12          1           0       -2.326263    1.337212    1.015998
     13          1           0       -2.514189   -0.377345   -0.326640
     14          1           0       -1.870382    0.326326   -0.635986
 ---------------------------------------------------------------------

 SCF Done:  E(RB2PLYPD3) =  -157.577967073     A.U. after   11 cycles
 E2(B2PLYPD3) =    -0.2541679202D+00 E(B2PLYPD3) =    -0.15783213499334D+03

 The electronic state is 1-A.
 Alpha  occ. eigenvalues --  -10.65411 -10.60489 -10.58383 -10.57989  -0.97311
 Alpha  occ. eigenvalues --   -0.91240  -0.76081  -0.67515  -0.57404  -0.49891
 Alpha  occ. eigenvalues --   -0.48860  -0.47141  -0.42104  -0.40835  -0.37090
 Alpha  occ. eigenvalues --   -0.36227  -0.35726
 Alpha virt. eigenvalues --    0.04083   0.04748   0.07271   0.07559   0.09755
 Alpha virt. eigenvalues --    0.10817   0.11264   0.13063   0.14083   0.15008
 Alpha virt. eigenvalues --    0.15604   0.16590   0.18889   0.19026   0.20985

 Mulliken charges:
               1
     1  C   -0.162371
     2  C   -0.152856
     3  H    0.036670
     4  H    0.031535
     5  H    0.039646
     6  C   -0.064192
     7  H    0.016177
     8  H    0.202119
     9  C   -0.662385
    10  H    0.045120
    11  H    0.066179
    12  H    0.044928
    13  H    0.089409
    14  H    0.470021
 Sum of Mulliken charges =   0.00000

 Dipole moment (field-independent basis, Debye):
    X=             -0.3773    Y=             -0.0349    Z=             -0.6872  Tot=              0.7848
 Quadrupole moment (field-independent basis, Debye-Ang):
   XX=            -31.7074   YY=            -29.2072   ZZ=            -28.0744
   XY=              0.9751   XZ=              0.5600   YZ=              1.0981

 Normal termination of Gaussian 09 at Wed Aug 26 22:44:57 2020.
