 Gaussian 09, Revision D.01,
 Gaussian 09:  ES64L-G09RevD.01 24-Apr-2013

 --------------------
 #p B2PLYPD3/Def2QZVP
 --------------------

 ----------
 butane_opt
 ----------
 Symbolic Z-matrix:
 Charge =  0 Multiplicity = 1

                         Standard orientation:
 ---------------------------------------------------------------------
 Center     Atomic      Atomic             Coordinates (Angstroms)
 Number     Number       Type             X           Y           Z
 ---------------------------------------------------------------------
      1          6           0       -2.038944   -0.129116   -0.111113
      2          6           0       -0.494824    0.641241    0.042091
      3          1           0       -2.658817    0.323654   -0.211894
      4          1           0       -2.454124   -0.467746    0.834869
      5          1           0       -2.098333   -1.344710   -1.004465
      6          6           0        0.602046   -0.405043    0.372897
      7          1           0       -0.575626    1.163962    0.534883
      8          1           0       -0.143560    1.078980   -1.097349
      9          6           0        1.908696    0.028119   -0.190975
     10          1           0        0.543776   -1.027620   -0.292903
     11          1           0        0.704834   -0.823126    1.436414
     12          1           0        1.785281    0.072692   -0.937042
     13          1           0        2.679114   -0.960149   -0.580987
     14          1           0        2.355605    1.172849    0.641072
 ---------------------------------------------------------------------

 SCF Done:  E(RB2PLYPD3) =  -157.438704764     A.U. after   11 cycles
 E2(B2PLYPD3) =    -0.2524289622D+00 E(B2PLYPD3) =    -0.15769113372595D+03

 The electronic state is 1-A.
 Alpha  occ. eigenvalues --  -10.61999 -10.61673 -10.61529 -10.59486  -0.94749
 Alpha  occ. eigenvalues --   -0.86941  -0.79884  -0.71935  -0.56289  -0.50798
 Alpha  occ. eigenvalues --   -0.49348  -0.45462  -0.44371  -0.38978  -0.38311
 Alpha  occ. eigenvalues --   -0.36788  -0.34984
 Alpha virt. eigenvalues --    0.03727   0.04661   0.07492   0.08021   0.09669
 Alpha virt. eigenvalues --    0.10313   0.11292   0.12725   0.14108   0.14831
 Alpha virt. eigenvalues --    0.16648   0.17254   0.18691   0.19069   0.20155

 Mulliken charges:
               1
     1  C   -0.365978
     2  C   -0.408480
     3  H    0.270651
     4  H    0.038871
     5  H    0.008466
     6  C   -0.078871
     7  H    0.385329
     8  H    0.033652
     9  C   -0.476822
    10  H    0.146551
    11  H    0.048229
    12  H    0.361720
    13  H    0.013337
    14  H    0.023345
 Sum of Mulliken charges =   0.00000

 Dipole moment (field-independent basis, Debye):
    X=             -0.5865    Y=              0.2426    Z=              0.0591  Tot=              0.6374
 Quadrupole moment (field-independent basis, Debye-Ang):
   XX=            -31.2274   YY=            -29.2387   ZZ=            -27.8648
   XY=             -1.5163   XZ=             -1.9232   YZ=              1.2113

 Normal termination of Gaussian 09 at Wed Aug 26 21:43:49 2020.
