 Gaussian 09, Revision D.01,
 Gaussian 09:  ES64L-G09RevD.01 24-Apr-2013

 --------------------
 #p B2PLYPD3/Def2QZVP
 --------------------

 ----------
 butane_opt
 ----------
 Symbolic Z-matrix:
 Charge =  0 Multiplicity = 1

                         Standard orientation:
 ---------------------------------------------------------------------
 Center     Atomic      Atomic             Coordinates (Angstroms)
 Number     Number       Type             X           Y           Z
 ---------------------------------------------------------------------
      1          6           0       -1.965299   -0.160613   -0.180097
      2          6           0       -0.586977    0.568162    0.009227
      3          1           0       -2.730488    0.656137    0.338787
      4          1           0       -1.982844   -0.582635    0.612788
      5          1           0       -2.334067   -1.175619   -1.013525
      6          6           0        0.550109   -0.458917    0.296239
      7          1           0       -0.534135    1.501215    0.846045
      8          1           0       -0.071551    0.856778   -0.963451
      9          6           0        2.021983    0.039135   -0.158626
     10          1           0        0.488657   -0.761850   -0.166488
     11          1           0        0.289279   -1.060357    1.329184
     12          1           0        1.589782    0.522169   -1.070582
     13          1           0        2.889112   -0.844033   -0.394516
     14          1           0        2.277358    0.961593    0.681301
 ---------------------------------------------------------------------

 SCF Done:  E(RB2PLYPD3) =  -157.290409156     A.U. after   12 cycles
 E2(B2PLYPD3) =    -0.2558139761D+00 E(B2PLYPD3) =    -0.15754622313247D+03

 The electronic state is 1-A.
 Alpha  occ. eigenvalues --  -10.64878 -10.64094 -10.62524 -10.59840  -0.95502
 Alpha  occ. eigenvalues --   -0.84365  -0.72529  -0.68823  -0.54718  -0.48637
 Alpha  occ. eigenvalues --   -0.46821  -0.44726  -0.42293  -0.40881  -0.38894
 Alpha  occ. eigenvalues --   -0.36818  -0.34956
 Alpha virt. eigenvalues --    0.04346   0.05034   0.07184   0.08370   0.10389
 Alpha virt. eigenvalues --    0.11285   0.11922   0.13020   0.13769   0.15164
 Alpha virt. eigenvalues --    0.15302   0.16002   0.17611   0.19291   0.19584

 Mulliken charges:
               1
     1  C   -0.278560
     2  C    0.028219
     3  H    0.031702
     4  H    0.155603
     5  H    0.061872
     6  C   -0.948314
     7  H    0.033747
     8  H    0.023661
     9  C   -0.158391
    10  H    0.820849
    11  H    0.060646
    12  H    0.062032
    13  H    0.065621
    14  H    0.041314
 Sum of Mulliken charges =   0.00000

 Dipole moment (field-independent basis, Debye):
    X=             -0.1614    Y=             -0.5428    Z=              0.1789  Tot=              0.5939
 Quadrupole moment (field-independent basis, Debye-Ang):
   XX=            -30.7588   YY=            -29.0098   ZZ=            -28.7798
   XY=              0.2758   XZ=             -1.6301   YZ=              1.6723

 Normal termination of Gaussian 09 at Wed Aug 26 19:51:35 2020.
