 Gaussian 09, Revision D.01,
 Gaussian 09:  ES64L-G09RevD.01 24-Apr-2013

 --------------------
 #p B2PLYPD3/Def2QZVP
 --------------------

 ----------
 butane_opt
 ----------
 Symbolic Z-matrix:
 Charge =  0 Multiplicity = 1

                         Standard orientation:
 ---------------------------------------------------------------------
 Center     Atomic      Atomic             Coordinates (Angstroms)
 Number     Number       Type             X           Y           Z
 ---------------------------------------------------------------------
      1          6           0       -1.938965    0.131075    0.111252
      2          6           0       -0.575501   -0.498923   -0.084563
      3          1           0       -2.852702   -0.927978   -0.266196
      4          1           0       -1.968040    0.173438   -0.580611
      5          1           0       -2.129980    1.329347    1.275660
      6          6           0        0.521967    0.545577   -0.234350
      7          1           0       -0.769001   -1.109881   -0.839260
      8          1           0       -0.447114   -1.154758    0.874375
      9          6           0        2.058923   -0.141818    0.176006
     10          1           0        0.312426    1.170076    0.527006
     11          1           0        0.301039    1.235861   -1.072377
     12          1           0        2.071774   -0.720281    1.105723
     13          1           0        2.807209    0.445444   -0.209137
     14          1           0        2.275842   -0.656727   -0.625253
 ---------------------------------------------------------------------

 SCF Done:  E(RB2PLYPD3) =  -157.612064888     A.U. after   12 cycles
 E2(B2PLYPD3) =    -0.2557197182D+00 E(B2PLYPD3) =    -0.15786778460645D+03

 The electronic state is 1-A.
 Alpha  occ. eigenvalues --  -10.63189 -10.61393 -10.60840 -10.59862  -0.94735
 Alpha  occ. eigenvalues --   -0.85418  -0.77405  -0.68287  -0.54761  -0.51529
 Alpha  occ. eigenvalues --   -0.46947  -0.45190  -0.43475  -0.39168  -0.38231
 Alpha  occ. eigenvalues --   -0.36021  -0.33955
 Alpha virt. eigenvalues --    0.00648   0.05152   0.06102   0.08092   0.09899
 Alpha virt. eigenvalues --    0.11043   0.12217   0.13119   0.14032   0.15159
 Alpha virt. eigenvalues --    0.15717   0.16566   0.17564   0.19297   0.20293

 Mulliken charges:
               1
     1  C   -0.723544
     2  C    0.005769
     3  H   -0.013227
     4  H    0.586792
     5  H    0.058320
     6  C   -0.097227
     7  H    0.047213
     8  H    0.023882
     9  C   -0.166023
    10  H    0.058332
    11  H    0.034211
    12  H    0.084610
    13  H    0.044184
    14  H    0.056709
 Sum of Mulliken charges =   0.00000

 Dipole moment (field-independent basis, Debye):
    X=              0.7970    Y=              0.1138    Z=             -0.6103  Tot=              1.0103
 Quadrupole moment (field-independent basis, Debye-Ang):
   XX=            -31.5842   YY=            -29.1807   ZZ=            -27.7020
   XY=             -0.7631   XZ=              0.4372   YZ=              0.5474

 Normal termination of Gaussian 09 at Wed Aug 26 14:23:57 2020.
