 Gaussian 09, Revision D.01,
 Gaussian 09:  ES64L-G09RevD.01 24-Apr-2013

 --------------------
 #p B2PLYPD3/Def2QZVP
 --------------------

 ----------
 butane_opt
 ----------
 Symbolic Z-matrix:
 Charge =  0 Multiplicity = 1

                         Standard orientation:
 ---------------------------------------------------------------------
 Center     Atomic      Atomic             Coordinates (Angstroms)
 Number     Number       Type             X           Y           Z
 ---------------------------------------------------------------------
      1          6           0        1.897099   -0.121876    0.010135
      2          6           0        0.567329    0.519791   -0.025624
      3          1           0        2.672244    0.627078   -0.644679
      4          1           0        1.922813   -0.209868   -0.512634
      5          1           0        2.522624   -1.016805    1.128095
      6          6           0       -0.534132   -0.550760   -0.015781
      7          1           0        0.618632    0.984904   -0.762366
      8          1           0        0.508662    1.465659    1.023669
      9          6           0       -1.975767    0.075628    0.002869
     10          1           0       -0.356755   -1.034320    0.953908
     11          1           0       -0.305525   -1.372779   -0.953415
     12          1           0       -2.483756    0.866023    1.018513
     13          1           0       -2.785839   -0.486854   -0.191468
     14          1           0       -2.040270    0.640267   -0.889222
 ---------------------------------------------------------------------

 SCF Done:  E(RB2PLYPD3) =  -157.082819519     A.U. after   12 cycles
 E2(B2PLYPD3) =    -0.2560657940D+00 E(B2PLYPD3) =    -0.15733888531314D+03

 The electronic state is 1-A.
 Alpha  occ. eigenvalues --  -10.64110 -10.63974 -10.61897 -10.61873  -0.98018
 Alpha  occ. eigenvalues --   -0.86651  -0.76998  -0.68521  -0.54719  -0.49287
 Alpha  occ. eigenvalues --   -0.48595  -0.45655  -0.40467  -0.39538  -0.39055
 Alpha  occ. eigenvalues --   -0.37277  -0.33671
 Alpha virt. eigenvalues --    0.03198   0.05288   0.05499   0.06627   0.09099
 Alpha virt. eigenvalues --    0.10374   0.12018   0.12379   0.14197   0.15147
 Alpha virt. eigenvalues --    0.16354   0.16936   0.18384   0.19226   0.19930

 Mulliken charges:
               1
     1  C   -1.004098
     2  C   -0.064551
     3  H    0.011782
     4  H    0.834548
     5  H    0.076161
     6  C   -0.044781
     7  H    0.140459
     8  H    0.001505
     9  C   -0.139070
    10  H    0.054613
    11  H    0.025496
    12  H    0.024639
    13  H    0.047963
    14  H    0.035334
 Sum of Mulliken charges =   0.00000

 Dipole moment (field-independent basis, Debye):
    X=             -0.1476    Y=             -0.4819    Z=             -0.8889  Tot=              1.0218
 Quadrupole moment (field-independent basis, Debye-Ang):
   XX=            -29.7497   YY=            -30.3405   ZZ=            -27.6056
   XY=             -0.6834   XZ=             -0.3291   YZ=             -0.9023

 Normal termination of Gaussian 09 at Wed Aug 26 12:14:51 2020.
