 Gaussian 09, Revision D.01,
 Gaussian 09:  ES64L-G09RevD.01 24-Apr-2013

 --------------------
 #p B2PLYPD3/Def2QZVP
 --------------------

 ----------
 butane_opt
 ----------
 Symbolic Z-matrix:
 Charge =  0 Multiplicity = 1

                         Standard orientation:
 ---------------------------------------------------------------------
 Center     Atomic      Atomic             Coordinates (Angstroms)
 Number     Number       Type             X           Y           Z
 ---------------------------------------------------------------------
      1          6           0       -1.894379    0.117778   -0.193662
      2          6           0       -0.581214   -0.474262    0.106894
      3          1           0       -2.847197   -0.756120   -0.043834
      4          1           0       -2.130040    1.061996   -1.264112
      5          1           0       -2.242218    0.500268    0.576836
      6          6           0        0.578818    0.537207    0.270015
      7          1           0       -0.569816   -0.821585   -0.394459
      8          1           0       -0.828986   -1.365732    1.066856
      9          6           0        2.007913   -0.157527   -0.214958
     10          1           0        0.397177    1.409672    1.446002
     11          1           0        0.490084    0.737894   -0.298925
     12          1           0        2.615330   -0.840891    0.704922
     13          1           0        2.856074    0.576507   -0.600836
     14          1           0        1.592764   -0.641190   -1.002186
 ---------------------------------------------------------------------

 SCF Done:  E(RB2PLYPD3) =  -157.011707513     A.U. after   12 cycles
 E2(B2PLYPD3) =    -0.2546306044D+00 E(B2PLYPD3) =    -0.15726633811768D+03

 The electronic state is 1-A.
 Alpha  occ. eigenvalues --  -10.64041 -10.63064 -10.62379 -10.60200  -0.98373
 Alpha  occ. eigenvalues --   -0.87623  -0.74763  -0.73889  -0.55130  -0.49744
 Alpha  occ. eigenvalues --   -0.47944  -0.45875  -0.42338  -0.40669  -0.38458
 Alpha  occ. eigenvalues --   -0.37026  -0.35313
 Alpha virt. eigenvalues --    0.04131   0.05111   0.06307   0.07028   0.10585
 Alpha virt. eigenvalues --    0.10918   0.11796   0.12071   0.13763   0.15186
 Alpha virt. eigenvalues --    0.15780   0.16431   0.17698   0.18824   0.20266

 Mulliken charges:
               1
     1  C   -0.158581
     2  C   -0.756816
     3  H    0.019758
     4  H    0.027573
     5  H    0.104534
     6  C   -0.878125
     7  H    0.704121
     8  H    0.036573
     9  C   -0.144763
    10  H    0.048516
    11  H    0.824315
    12  H    0.042219
    13  H    0.045082
    14  H    0.085597
 Sum of Mulliken charges =   0.00000

 Dipole moment (field-independent basis, Debye):
    X=              0.0634    Y=              0.0669    Z=             -0.1652  Tot=              0.1892
 Quadrupole moment (field-independent basis, Debye-Ang):
   XX=            -29.3866   YY=            -29.7541   ZZ=            -28.3663
   XY=              0.2501   XZ=             -1.4840   YZ=             -0.2402

 Normal termination of Gaussian 09 at Wed Aug 26 18:23:01 2020.
