 Gaussian 09, Revision D.01,
 Gaussian 09:  ES64L-G09RevD.01 24-Apr-2013

 --------------------
 #p B2PLYPD3/Def2QZVP
 --------------------

 ----------
 butane_opt
 ----------
 Symbolic Z-matrix:
 Charge =  0 Multiplicity = 1

                         Standard orientation:
 ---------------------------------------------------------------------
 Center     Atomic      Atomic             Coordinates (Angstroms)
 Number     Number       Type             X           Y           Z
 ---------------------------------------------------------------------
      1          6           0       -1.967036   -0.168788    0.044148
      2          6           0       -0.509384    0.616718   -0.020907
      3          1           0       -2.649252    0.477065   -0.841635
      4          1           0       -2.633931   -1.295336    1.231930
      5          1           0       -2.154476   -0.243886   -0.473705
      6          6           0        0.619613   -0.465337   -0.089717
      7          1           0       -0.583276    1.320828    0.873868
      8          1           0       -0.337951    1.234684   -0.849020
      9          6           0        1.956835    0.031765    0.013127
     10          1           0        0.393159   -1.164779   -0.824186
     11          1           0        0.448927   -0.975523    0.715624
     12          1           0        2.133972    0.305036   -0.531940
     13          1           0        2.699285   -0.850467   -0.213532
     14          1           0        2.083378    1.106228    1.232694
 ---------------------------------------------------------------------

 SCF Done:  E(RB2PLYPD3) =  -156.740825105     A.U. after   14 cycles
 E2(B2PLYPD3) =    -0.2608680225D+00 E(B2PLYPD3) =    -0.15700169312774D+03

 The electronic state is 1-A.
 Alpha  occ. eigenvalues --  -10.65302 -10.62991 -10.60981 -10.58429  -0.95832
 Alpha  occ. eigenvalues --   -0.93127  -0.81610  -0.71579  -0.54480  -0.53070
 Alpha  occ. eigenvalues --   -0.48772  -0.44031  -0.42358  -0.37898  -0.37587
 Alpha  occ. eigenvalues --   -0.36649  -0.30509
 Alpha virt. eigenvalues --   -0.01737   0.02785   0.03879   0.07091   0.09275
 Alpha virt. eigenvalues --    0.10013   0.11854   0.12365   0.13250   0.15191
 Alpha virt. eigenvalues --    0.16210   0.16890   0.18330   0.18736   0.19854

 Mulliken charges:
               1
     1  C   -0.940065
     2  C   -0.052877
     3  H    0.036567
     4  H    0.072000
     5  H    0.768314
     6  C    0.026385
     7  H    0.049066
     8  H    0.043475
     9  C   -0.692358
    10  H    0.027861
    11  H    0.072868
    12  H    0.511321
    13  H    0.063223
    14  H    0.014219
 Sum of Mulliken charges =   0.00000

 Dipole moment (field-independent basis, Debye):
    X=              0.1435    Y=             -0.5548    Z=             -1.2162  Tot=              1.3444
 Quadrupole moment (field-independent basis, Debye-Ang):
   XX=            -32.1352   YY=            -28.8583   ZZ=            -27.4587
   XY=              1.3161   XZ=             -0.3805   YZ=             -0.5739

 Normal termination of Gaussian 09 at Wed Aug 26 20:37:41 2020.
