 Gaussian 09, Revision D.01,
 Gaussian 09:  ES64L-G09RevD.01 24-Apr-2013

 --------------------
 #p B2PLYPD3/Def2QZVP
 --------------------

 ----------
 butane_opt
 ----------
 Symbolic Z-matrix:
 Charge =  0 Multiplicity = 1

                         Standard orientation:
 ---------------------------------------------------------------------
 Center     Atomic      Atomic             Coordinates (Angstroms)
 Number     Number       Type             X           Y           Z
 ---------------------------------------------------------------------
      1          6           0       -2.043657   -0.152884   -0.102348
      2          6           0       -0.520506    0.611654    0.124115
      3          1           0       -2.714333    0.433388   -0.283361
      4          1           0       -2.388820   -0.423349    0.685546
      5          1           0       -1.998805   -1.091817   -1.129582
      6          6           0        0.590376   -0.426021    0.343080
      7          1           0       -0.529334    1.249212    0.781955
      8          1           0       -0.335150    0.964466   -0.903754
      9          6           0        1.943667    0.028468   -0.277095
     10          1           0        0.334609   -1.013119   -0.345565
     11          1           0        0.813857   -1.079434    1.418081
     12          1           0        1.765525    0.216154   -0.909785
     13          1           0        2.597682   -0.572485   -0.443335
     14          1           0        2.635484    0.949681    0.603287
 ---------------------------------------------------------------------

 SCF Done:  E(RB2PLYPD3) =  -157.602531723     A.U. after   11 cycles
 E2(B2PLYPD3) =    -0.2483321877D+00 E(B2PLYPD3) =    -0.15785086391071D+03

 The electronic state is 1-A.
 Alpha  occ. eigenvalues --  -10.60875 -10.60785 -10.59679 -10.57190  -0.93612
 Alpha  occ. eigenvalues --   -0.86429  -0.79351  -0.69795  -0.56606  -0.52589
 Alpha  occ. eigenvalues --   -0.49983  -0.46708  -0.43761  -0.40810  -0.39909
 Alpha  occ. eigenvalues --   -0.37362  -0.34682
 Alpha virt. eigenvalues --    0.05085   0.05972   0.08126   0.08905   0.10270
 Alpha virt. eigenvalues --    0.11050   0.12380   0.13617   0.13998   0.15380
 Alpha virt. eigenvalues --    0.16660   0.17043   0.19111   0.19355   0.21309

 Mulliken charges:
               1
     1  C   -0.184178
     2  C   -0.083041
     3  H    0.071636
     4  H    0.076510
     5  H    0.014129
     6  C   -0.094138
     7  H    0.086059
     8  H    0.047142
     9  C   -0.544229
    10  H    0.111181
    11  H    0.024834
    12  H    0.425884
    13  H    0.053501
    14  H   -0.005289
 Sum of Mulliken charges =   0.00000

 Dipole moment (field-independent basis, Debye):
    X=             -0.4582    Y=             -0.0707    Z=             -0.3099  Tot=              0.5577
 Quadrupole moment (field-independent basis, Debye-Ang):
   XX=            -28.7983   YY=            -29.4299   ZZ=            -27.4051
   XY=             -1.9547   XZ=             -1.3112   YZ=              0.7695

 Normal termination of Gaussian 09 at Wed Aug 26 20:26:23 2020.
