 Gaussian 09, Revision D.01,
 Gaussian 09:  ES64L-G09RevD.01 24-Apr-2013

 --------------------
 #p B2PLYPD3/Def2QZVP
 --------------------

 ----------
 butane_opt
 ----------
 Symbolic Z-matrix:
 Charge =  0 Multiplicity = 1

                         Standard orientation:
 ---------------------------------------------------------------------
 Center     Atomic      Atomic             Coordinates (Angstroms)
 Number     Number       Type             X           Y           Z
 ---------------------------------------------------------------------
      1          6           0       -2.015116    0.071151    0.125420
      2          6           0       -0.578881   -0.498291   -0.206309
      3          1           0       -2.707141   -0.512947    0.010049
      4          1           0       -2.054900    0.289094   -0.420261
      5          1           0       -2.242116    0.995917    1.365861
      6          6           0        0.569238    0.545596   -0.228966
      7          1           0       -0.345772   -1.033165   -1.132478
      8          1           0       -0.174167   -1.260962    0.645564
      9          6           0        1.939194   -0.083610    0.145096
     10          1           0        0.638871    1.028745    0.659993
     11          1           0        0.403309    1.417841   -1.263160
     12          1           0        1.708971   -0.860931    1.195591
     13          1           0        2.702487    0.398127    0.612721
     14          1           0        2.583847   -0.670790   -0.685328
 ---------------------------------------------------------------------

 SCF Done:  E(RB2PLYPD3) =  -157.390945777     A.U. after   11 cycles
 E2(B2PLYPD3) =    -0.2543017000D+00 E(B2PLYPD3) =    -0.15764524747682D+03

 The electronic state is 1-A.
 Alpha  occ. eigenvalues --  -10.63383 -10.63331 -10.63030 -10.59627  -0.94737
 Alpha  occ. eigenvalues --   -0.87808  -0.75582  -0.66019  -0.54297  -0.52002
 Alpha  occ. eigenvalues --   -0.48164  -0.46473  -0.42422  -0.38703  -0.37199
 Alpha  occ. eigenvalues --   -0.36512  -0.35716
 Alpha virt. eigenvalues --    0.04050   0.05382   0.06231   0.07866   0.10255
 Alpha virt. eigenvalues --    0.10438   0.11929   0.13457   0.14242   0.14948
 Alpha virt. eigenvalues --    0.15749   0.16654   0.18056   0.19676   0.21617

 Mulliken charges:
               1
     1  C   -0.769987
     2  C   -0.018789
     3  H    0.063862
     4  H    0.633871
     5  H    0.035570
     6  C   -0.079116
     7  H    0.053634
     8  H    0.022509
     9  C   -0.139583
    10  H    0.088371
    11  H    0.013091
    12  H    0.010520
    13  H    0.058259
    14  H    0.027787
 Sum of Mulliken charges =   0.00000

 Dipole moment (field-independent basis, Debye):
    X=             -0.0749    Y=              0.0951    Z=             -0.1576  Tot=              0.1987
 Quadrupole moment (field-independent basis, Debye-Ang):
   XX=            -28.1025   YY=            -30.4822   ZZ=            -28.0565
   XY=              0.5544   XZ=              1.4456   YZ=              0.6852

 Normal termination of Gaussian 09 at Wed Aug 26 22:09:38 2020.
