 Gaussian 09, Revision D.01,
 Gaussian 09:  ES64L-G09RevD.01 24-Apr-2013

 --------------------
 #p B2PLYPD3/Def2QZVP
 --------------------

 ----------
 butane_opt
 ----------
 Symbolic Z-matrix:
 Charge =  0 Multiplicity = 1

                         Standard orientation:
 ---------------------------------------------------------------------
 Center     Atomic      Atomic             Coordinates (Angstroms)
 Number     Number       Type             X           Y           Z
 ---------------------------------------------------------------------
      1          6           0       -1.988151    0.044323   -0.162567
      2          6           0       -0.615659   -0.460350    0.178134
      3          1           0       -2.601120   -0.711546   -0.439020
      4          1           0       -1.692175    0.489100   -1.006362
      5          1           0       -2.186193    0.919513    0.748906
      6          6           0        0.582098    0.644031    0.035615
      7          1           0       -0.443470   -0.901390   -0.506699
      8          1           0       -0.695037   -1.548135    1.387157
      9          6           0        1.996525   -0.175902   -0.015555
     10          1           0        0.214015    1.565911    0.954788
     11          1           0        0.415781    1.113627   -0.654626
     12          1           0        2.291861   -0.430625    0.653064
     13          1           0        2.650811    0.359694   -0.327555
     14          1           0        2.196654   -1.168761   -1.023417
 ---------------------------------------------------------------------

 SCF Done:  E(RB2PLYPD3) =  -157.628279642     A.U. after   11 cycles
 E2(B2PLYPD3) =    -0.2520696579D+00 E(B2PLYPD3) =    -0.15788034929962D+03

 The electronic state is 1-A.
 Alpha  occ. eigenvalues --  -10.63466 -10.62225 -10.60434 -10.59355  -0.93231
 Alpha  occ. eigenvalues --   -0.87334  -0.78228  -0.69646  -0.55041  -0.52003
 Alpha  occ. eigenvalues --   -0.50874  -0.48506  -0.43272  -0.40320  -0.38852
 Alpha  occ. eigenvalues --   -0.35755  -0.33784
 Alpha virt. eigenvalues --    0.03611   0.04732   0.06130   0.08085   0.10819
 Alpha virt. eigenvalues --    0.11142   0.12191   0.13304   0.13599   0.14876
 Alpha virt. eigenvalues --    0.15767   0.17049   0.17767   0.18996   0.19694

 Mulliken charges:
               1
     1  C   -0.156044
     2  C   -0.256400
     3  H    0.068712
     4  H    0.063153
     5  H    0.044634
     6  C   -0.176153
     7  H    0.259675
     8  H   -0.041055
     9  C   -0.335113
    10  H    0.009958
    11  H    0.184710
    12  H    0.247369
    13  H    0.082327
    14  H    0.004226
 Sum of Mulliken charges =   0.00000

 Dipole moment (field-independent basis, Debye):
    X=              0.4050    Y=              0.4716    Z=             -1.0914  Tot=              1.2560
 Quadrupole moment (field-independent basis, Debye-Ang):
   XX=            -28.3669   YY=            -29.8927   ZZ=            -29.0815
   XY=              0.7008   XZ=              0.7695   YZ=              0.7425

 Normal termination of Gaussian 09 at Wed Aug 26 12:32:06 2020.
