 Gaussian 09, Revision D.01,
 Gaussian 09:  ES64L-G09RevD.01 24-Apr-2013

 --------------------
 #p B2PLYPD3/Def2QZVP
 --------------------

 ----------
 butane_opt
 ----------
 Symbolic Z-matrix:
 Charge =  0 Multiplicity = 1

                         Standard orientation:
 ---------------------------------------------------------------------
 Center     Atomic      Atomic             Coordinates (Angstroms)
 Number     Number       Type             X           Y           Z
 ---------------------------------------------------------------------
      1          6           0       -1.903659    0.087562    0.053020
      2          6           0       -0.588748   -0.490706   -0.079086
      3          1           0       -2.760316   -0.745549   -0.117892
      4          1           0       -2.165555    0.610296   -0.660907
      5          1           0       -2.055102    0.957354    1.084495
      6          6           0        0.569271    0.553748   -0.028185
      7          1           0       -0.581977   -1.165640   -0.988684
      8          1           0       -0.338365   -1.065672    0.704989
      9          6           0        1.962247   -0.151541    0.034210
     10          1           0        0.320389    1.172934    0.856669
     11          1           0        0.509538    1.165401   -0.829551
     12          1           0        2.327667   -1.109500    1.139798
     13          1           0        2.750045    0.643198   -0.474333
     14          1           0        1.759011   -0.457200   -0.594336
 ---------------------------------------------------------------------

 SCF Done:  E(RB2PLYPD3) =  -157.766683590     A.U. after   11 cycles
 E2(B2PLYPD3) =    -0.2509012134D+00 E(B2PLYPD3) =    -0.15801758480349D+03

 The electronic state is 1-A.
 Alpha  occ. eigenvalues --  -10.61287 -10.61222 -10.60711 -10.59860  -0.93818
 Alpha  occ. eigenvalues --   -0.86985  -0.74540  -0.68506  -0.54301  -0.49948
 Alpha  occ. eigenvalues --   -0.48704  -0.46598  -0.42784  -0.39622  -0.38901
 Alpha  occ. eigenvalues --   -0.37748  -0.35938
 Alpha virt. eigenvalues --    0.04141   0.05502   0.07545   0.07847   0.10561
 Alpha virt. eigenvalues --    0.11258   0.11942   0.12768   0.14002   0.15504
 Alpha virt. eigenvalues --    0.15727   0.16160   0.18529   0.19455   0.20510

 Mulliken charges:
               1
     1  C   -0.169293
     2  C   -0.024764
     3  H    0.029078
     4  H    0.077167
     5  H    0.011847
     6  C   -0.033236
     7  H    0.007793
     8  H    0.066891
     9  C   -0.629957
    10  H    0.027487
    11  H    0.051512
    12  H    0.050109
    13  H    0.052069
    14  H    0.483296
 Sum of Mulliken charges =   0.00000

 Dipole moment (field-independent basis, Debye):
    X=             -0.2035    Y=             -0.0274    Z=             -0.7615  Tot=              0.7888
 Quadrupole moment (field-independent basis, Debye-Ang):
   XX=            -31.3251   YY=            -28.8000   ZZ=            -28.2102
   XY=             -0.0831   XZ=              0.5864   YZ=             -0.6354

 Normal termination of Gaussian 09 at Wed Aug 26 14:21:25 2020.
