 Gaussian 09, Revision D.01,
 Gaussian 09:  ES64L-G09RevD.01 24-Apr-2013

 --------------------
 #p B2PLYPD3/Def2QZVP
 --------------------

 ----------
 butane_opt
 ----------
 Symbolic Z-matrix:
 Charge =  0 Multiplicity = 1

                         Standard orientation:
 ---------------------------------------------------------------------
 Center     Atomic      Atomic             Coordinates (Angstroms)
 Number     Number       Type             X           Y           Z
 ---------------------------------------------------------------------
      1          6           0       -1.999674   -0.147132   -0.109314
      2          6           0       -0.498017    0.529749    0.117030
      3          1           0       -2.663180    0.548129   -0.940764
      4          1           0       -2.605581   -1.017849    1.039981
      5          1           0       -1.495899   -0.618465   -0.879808
      6          6           0        0.578296   -0.366039    0.104505
      7          1           0       -0.338395    1.592069    1.237768
      8          1           0       -0.083970    0.895978   -0.503240
      9          6           0        1.832396    0.008182   -0.076278
     10          1           0        0.471701   -0.926077   -0.582481
     11          1           0        0.536452   -1.256604    1.113012
     12          1           0        1.969715    0.698045   -1.116509
     13          1           0        2.697025   -0.965448   -0.288286
     14          1           0        2.034123    0.901661    0.704672
 ---------------------------------------------------------------------

 SCF Done:  E(RB2PLYPD3) =  -157.677082652     A.U. after   11 cycles
 E2(B2PLYPD3) =    -0.2597730734D+00 E(B2PLYPD3) =    -0.15793685572553D+03

 The electronic state is 1-A.
 Alpha  occ. eigenvalues --  -10.67529 -10.64553 -10.63128 -10.59931  -1.00254
 Alpha  occ. eigenvalues --   -0.84798  -0.74658  -0.67782  -0.55866  -0.50893
 Alpha  occ. eigenvalues --   -0.48203  -0.44552  -0.41958  -0.40343  -0.38563
 Alpha  occ. eigenvalues --   -0.34656  -0.32418
 Alpha virt. eigenvalues --    0.01651   0.04307   0.05975   0.06588   0.08480
 Alpha virt. eigenvalues --    0.10112   0.11187   0.12667   0.12915   0.14849
 Alpha virt. eigenvalues --    0.15676   0.16475   0.16790   0.18971   0.19215

 Mulliken charges:
               1
     1  C   -0.206887
     2  C   -0.250044
     3  H    0.056116
     4  H    0.086976
     5  H    0.094107
     6  C   -0.052472
     7  H   -0.041109
     8  H    0.268913
     9  C   -0.175380
    10  H    0.118537
    11  H   -0.021044
    12  H    0.002913
    13  H    0.063448
    14  H    0.055926
 Sum of Mulliken charges =   0.00000

 Dipole moment (field-independent basis, Debye):
    X=              0.0278    Y=             -0.6799    Z=             -1.2135  Tot=              1.3913
 Quadrupole moment (field-independent basis, Debye-Ang):
   XX=            -30.6176   YY=            -30.9579   ZZ=            -29.4728
   XY=              0.2553   XZ=             -0.4516   YZ=             -0.7507

 Normal termination of Gaussian 09 at Wed Aug 26 23:59:16 2020.
