 Gaussian 09, Revision D.01,
 Gaussian 09:  ES64L-G09RevD.01 24-Apr-2013

 --------------------
 #p B2PLYPD3/Def2QZVP
 --------------------

 ----------
 butane_opt
 ----------
 Symbolic Z-matrix:
 Charge =  0 Multiplicity = 1

                         Standard orientation:
 ---------------------------------------------------------------------
 Center     Atomic      Atomic             Coordinates (Angstroms)
 Number     Number       Type             X           Y           Z
 ---------------------------------------------------------------------
      1          6           0        1.913896    0.163617    0.076031
      2          6           0        0.426627   -0.615797   -0.001709
      3          1           0        2.572729   -0.617825   -0.585243
      4          1           0        2.468585    1.367484    1.167007
      5          1           0        2.076059    0.393886   -0.685699
      6          6           0       -0.582755    0.472781   -0.101058
      7          1           0        0.255516   -1.231591    0.902005
      8          1           0        0.610657   -1.294406   -0.686160
      9          6           0       -1.850647   -0.089144    0.108522
     10          1           0       -0.497903    1.344705   -1.230570
     11          1           0       -0.275750    0.751053    0.476364
     12          1           0       -1.933224   -0.686377   -0.792820
     13          1           0       -2.844567    0.895025    0.024362
     14          1           0       -1.874828   -0.510703    0.920032
 ---------------------------------------------------------------------

 SCF Done:  E(RB2PLYPD3) =  -157.502260298     A.U. after   12 cycles
 E2(B2PLYPD3) =    -0.2562699794D+00 E(B2PLYPD3) =    -0.15775853027776D+03

 The electronic state is 1-A.
 Alpha  occ. eigenvalues --  -10.63408 -10.62307 -10.60357 -10.58929  -0.97685
 Alpha  occ. eigenvalues --   -0.86788  -0.77612  -0.72410  -0.58271  -0.49523
 Alpha  occ. eigenvalues --   -0.48336  -0.47846  -0.42021  -0.38912  -0.37549
 Alpha  occ. eigenvalues --   -0.36986  -0.33224
 Alpha virt. eigenvalues --    0.00013   0.04634   0.06404   0.06961   0.10176
 Alpha virt. eigenvalues --    0.10905   0.11713   0.12291   0.14159   0.15356
 Alpha virt. eigenvalues --    0.15847   0.16890   0.17640   0.18967   0.20431

 Mulliken charges:
               1
     1  C   -0.420146
     2  C   -0.022550
     3  H   -0.001539
     4  H    0.047053
     5  H    0.305636
     6  C   -0.534170
     7  H    0.034747
     8  H    0.050785
     9  C   -0.126444
    10  H    0.010848
    11  H    0.503271
    12  H    0.065651
    13  H   -0.003278
    14  H    0.090136
 Sum of Mulliken charges =   0.00000

 Dipole moment (field-independent basis, Debye):
    X=              0.0362    Y=             -0.4717    Z=             -0.3963  Tot=              0.6171
 Quadrupole moment (field-independent basis, Debye-Ang):
   XX=            -33.2459   YY=            -29.0129   ZZ=            -27.8349
   XY=              1.0393   XZ=             -2.0917   YZ=              0.9136

 Normal termination of Gaussian 09 at Wed Aug 26 15:23:23 2020.
