 Gaussian 09, Revision D.01,
 Gaussian 09:  ES64L-G09RevD.01 24-Apr-2013

 --------------------
 #p B2PLYPD3/Def2QZVP
 --------------------

 ----------
 butane_opt
 ----------
 Symbolic Z-matrix:
 Charge =  0 Multiplicity = 1

                         Standard orientation:
 ---------------------------------------------------------------------
 Center     Atomic      Atomic             Coordinates (Angstroms)
 Number     Number       Type             X           Y           Z
 ---------------------------------------------------------------------
      1          6           0        1.953135   -0.169917   -0.051738
      2          6           0        0.548432    0.601507    0.009338
      3          1           0        2.612628    0.419042    0.069507
      4          1           0        2.073113   -1.029274   -0.978415
      5          1           0        1.973932   -0.684146    0.702584
      6          6           0       -0.576572   -0.452321    0.101313
      7          1           0        0.200915    1.148644   -0.782424
      8          1           0        0.355278    1.443803    1.007089
      9          6           0       -1.848573    0.073362   -0.131847
     10          1           0       -0.536986   -1.143537    1.004789
     11          1           0       -0.594683   -0.892239   -0.530241
     12          1           0       -1.908325    0.736135    0.703062
     13          1           0       -2.670012   -0.778656    0.284538
     14          1           0       -1.964397    0.464444   -1.042882
 ---------------------------------------------------------------------

 SCF Done:  E(RB2PLYPD3) =  -157.830522448     A.U. after   11 cycles
 E2(B2PLYPD3) =    -0.2479196492D+00 E(B2PLYPD3) =    -0.15807844209734D+03

 The electronic state is 1-A.
 Alpha  occ. eigenvalues --  -10.62527 -10.58942 -10.58382 -10.55577  -0.95460
 Alpha  occ. eigenvalues --   -0.85965  -0.74037  -0.69536  -0.57635  -0.52641
 Alpha  occ. eigenvalues --   -0.48001  -0.47226  -0.44670  -0.41499  -0.39232
 Alpha  occ. eigenvalues --   -0.36863  -0.35473
 Alpha virt. eigenvalues --    0.05433   0.06530   0.07993   0.08538   0.10885
 Alpha virt. eigenvalues --    0.12157   0.13027   0.13629   0.14981   0.15488
 Alpha virt. eigenvalues --    0.16007   0.16554   0.19184   0.19394   0.21582

 Mulliken charges:
               1
     1  C   -0.192263
     2  C   -0.041303
     3  H    0.082899
     4  H    0.030192
     5  H    0.084924
     6  C   -0.336345
     7  H    0.058174
     8  H   -0.008935
     9  C   -0.167259
    10  H    0.032105
    11  H    0.326575
    12  H    0.042897
    13  H    0.024983
    14  H    0.063355
 Sum of Mulliken charges =   0.00000

 Dipole moment (field-independent basis, Debye):
    X=              0.2711    Y=             -0.2516    Z=             -0.1317  Tot=              0.3926
 Quadrupole moment (field-independent basis, Debye-Ang):
   XX=            -29.9874   YY=            -28.8133   ZZ=            -27.7209
   XY=              0.0408   XZ=              0.7391   YZ=             -0.2732

 Normal termination of Gaussian 09 at Wed Aug 26 12:37:42 2020.
