 Gaussian 09, Revision D.01,
 Gaussian 09:  ES64L-G09RevD.01 24-Apr-2013

 --------------------
 #p B2PLYPD3/Def2QZVP
 --------------------

 ----------
 butane_opt
 ----------
 Symbolic Z-matrix:
 Charge =  0 Multiplicity = 1

                         Standard orientation:
 ---------------------------------------------------------------------
 Center     Atomic      Atomic             Coordinates (Angstroms)
 Number     Number       Type             X           Y           Z
 ---------------------------------------------------------------------
      1          6           0       -1.922302    0.109613   -0.093136
      2          6           0       -0.595947   -0.493204    0.172058
      3          1           0       -2.726215   -0.749845   -0.419258
      4          1           0       -1.692511    0.717011   -1.009128
      5          1           0       -2.229099    0.840627    0.852086
      6          6           0        0.536211    0.500969    0.037251
      7          1           0       -0.339893   -1.155293   -0.642063
      8          1           0       -0.594087   -1.072407    1.070566
      9          6           0        1.969697   -0.134685   -0.047312
     10          1           0        0.475928    1.359242    0.906527
     11          1           0        0.306113    1.121462   -0.891040
     12          1           0        2.036438   -0.676952    0.812398
     13          1           0        2.755899    0.689888   -0.134899
     14          1           0        2.081466   -0.969896   -0.958358
 ---------------------------------------------------------------------

 SCF Done:  E(RB2PLYPD3) =  -158.068604756     A.U. after   11 cycles
 E2(B2PLYPD3) =    -0.2494723397D+00 E(B2PLYPD3) =    -0.15831807709562D+03

 The electronic state is 1-A.
 Alpha  occ. eigenvalues --  -10.62745 -10.62629 -10.61835 -10.59832  -0.91613
 Alpha  occ. eigenvalues --   -0.82411  -0.70996  -0.65553  -0.53953  -0.49798
 Alpha  occ. eigenvalues --   -0.48019  -0.45731  -0.42287  -0.40027  -0.38661
 Alpha  occ. eigenvalues --   -0.38428  -0.36135
 Alpha virt. eigenvalues --    0.05467   0.06444   0.07711   0.08386   0.10813
 Alpha virt. eigenvalues --    0.11245   0.12556   0.13504   0.14655   0.14764
 Alpha virt. eigenvalues --    0.15376   0.15890   0.19349   0.20075   0.20989

 Mulliken charges:
               1
     1  C   -0.174803
     2  C   -0.023416
     3  H    0.044899
     4  H    0.050445
     5  H    0.043332
     6  C   -0.027612
     7  H    0.040053
     8  H    0.035848
     9  C   -0.164908
    10  H    0.002367
    11  H    0.020890
    12  H    0.074600
    13  H    0.057757
    14  H    0.020547
 Sum of Mulliken charges =   0.00000

 Dipole moment (field-independent basis, Debye):
    X=              0.1715    Y=             -0.1872    Z=              0.0104  Tot=              0.2541
 Quadrupole moment (field-independent basis, Debye-Ang):
   XX=            -30.9292   YY=            -29.2003   ZZ=            -28.6999
   XY=              0.6715   XZ=              0.0375   YZ=              0.1224

 Normal termination of Gaussian 09 at Wed Aug 26 12:00:49 2020.
