 Gaussian 09, Revision D.01,
 Gaussian 09:  ES64L-G09RevD.01 24-Apr-2013

 --------------------
 #p B2PLYPD3/Def2QZVP
 --------------------

 ----------
 butane_opt
 ----------
 Symbolic Z-matrix:
 Charge =  0 Multiplicity = 1

                         Standard orientation:
 ---------------------------------------------------------------------
 Center     Atomic      Atomic             Coordinates (Angstroms)
 Number     Number       Type             X           Y           Z
 ---------------------------------------------------------------------
      1          6           0       -1.977156   -0.114086    0.044176
      2          6           0       -0.559656    0.475069   -0.036024
      3          1           0       -2.892084    0.855428   -0.300855
      4          1           0       -2.359642   -1.024563    1.098827
      5          1           0       -1.825921   -0.368149   -0.541543
      6          6           0        0.555329   -0.590448   -0.107212
      7          1           0       -0.517979    1.098594    0.791051
      8          1           0       -0.547024    1.151004   -0.955141
      9          6           0        2.001433    0.134841    0.069920
     10          1           0        0.472974   -1.140762   -0.965834
     11          1           0        0.422288   -1.114548    0.736318
     12          1           0        2.130502    0.614416   -0.605205
     13          1           0        2.741796   -0.504559   -0.188225
     14          1           0        2.255394    1.000884    1.105443
 ---------------------------------------------------------------------

 SCF Done:  E(RB2PLYPD3) =  -157.576664448     A.U. after   11 cycles
 E2(B2PLYPD3) =    -0.2504431453D+00 E(B2PLYPD3) =    -0.15782710759372D+03

 The electronic state is 1-A.
 Alpha  occ. eigenvalues --  -10.61259 -10.60841 -10.60451 -10.59391  -0.94046
 Alpha  occ. eigenvalues --   -0.86956  -0.77232  -0.68689  -0.55178  -0.49780
 Alpha  occ. eigenvalues --   -0.47891  -0.46440  -0.41832  -0.41007  -0.40490
 Alpha  occ. eigenvalues --   -0.36824  -0.35875
 Alpha virt. eigenvalues --    0.04755   0.05524   0.07403   0.08193   0.10316
 Alpha virt. eigenvalues --    0.11192   0.11834   0.12873   0.14397   0.15606
 Alpha virt. eigenvalues --    0.15679   0.16253   0.18587   0.19517   0.21140

 Mulliken charges:
               1
     1  C   -0.789125
     2  C    0.000829
     3  H    0.040665
     4  H    0.046802
     5  H    0.613538
     6  C   -0.056216
     7  H    0.052778
     8  H    0.019085
     9  C   -0.266293
    10  H    0.045750
    11  H    0.065409
    12  H    0.154793
    13  H    0.037998
    14  H    0.033987
 Sum of Mulliken charges =   0.00000

 Dipole moment (field-independent basis, Debye):
    X=              0.5461    Y=             -0.1220    Z=             -0.6356  Tot=              0.8468
 Quadrupole moment (field-independent basis, Debye-Ang):
   XX=            -30.9375   YY=            -28.6310   ZZ=            -27.7913
   XY=              0.0072   XZ=             -0.8776   YZ=             -0.0557

 Normal termination of Gaussian 09 at Wed Aug 26 10:38:04 2020.
