 Gaussian 09, Revision D.01,
 Gaussian 09:  ES64L-G09RevD.01 24-Apr-2013

 --------------------
 #p B2PLYPD3/Def2QZVP
 --------------------

 ----------
 butane_opt
 ----------
 Symbolic Z-matrix:
 Charge =  0 Multiplicity = 1

                         Standard orientation:
 ---------------------------------------------------------------------
 Center     Atomic      Atomic             Coordinates (Angstroms)
 Number     Number       Type             X           Y           Z
 ---------------------------------------------------------------------
      1          6           0       -1.941350    0.037582   -0.264016
      2          6           0       -0.651635   -0.410128    0.371005
      3          1           0       -2.788760   -0.829868   -0.705749
      4          1           0       -1.481050    0.300456   -0.997222
      5          1           0       -2.712713    1.200673    0.799394
      6          6           0        0.610333    0.567344    0.069133
      7          1           0       -0.277082   -0.931574   -0.213647
      8          1           0       -1.072218   -1.056081    1.329686
      9          6           0        2.080880   -0.127479   -0.085189
     10          1           0        0.458861    1.181960    0.695602
     11          1           0        0.162090    1.060355   -0.959462
     12          1           0        2.337717   -0.455579    0.684194
     13          1           0        2.849289    0.423653   -0.227223
     14          1           0        1.934497   -1.297902   -0.951168
 ---------------------------------------------------------------------

 SCF Done:  E(RB2PLYPD3) =  -157.684241593     A.U. after   12 cycles
 E2(B2PLYPD3) =    -0.2556486535D+00 E(B2PLYPD3) =    -0.15793989024611D+03

 The electronic state is 1-A.
 Alpha  occ. eigenvalues --  -10.64785 -10.63064 -10.62023 -10.60241  -0.93914
 Alpha  occ. eigenvalues --   -0.86156  -0.76866  -0.69050  -0.56246  -0.51141
 Alpha  occ. eigenvalues --   -0.49778  -0.46394  -0.41609  -0.40254  -0.38551
 Alpha  occ. eigenvalues --   -0.37305  -0.32091
 Alpha virt. eigenvalues --    0.01552   0.04244   0.07360   0.07966   0.09306
 Alpha virt. eigenvalues --    0.10085   0.11097   0.12925   0.13996   0.14656
 Alpha virt. eigenvalues --    0.15665   0.16397   0.17821   0.18705   0.20340

 Mulliken charges:
               1
     1  C   -0.206814
     2  C   -0.211872
     3  H    0.051121
     4  H    0.131583
     5  H   -0.031817
     6  C   -0.130221
     7  H    0.184935
     8  H    0.039292
     9  C   -0.187415
    10  H    0.140049
    11  H    0.027450
    12  H    0.121320
    13  H    0.063775
    14  H    0.008611
 Sum of Mulliken charges =   0.00000

 Dipole moment (field-independent basis, Debye):
    X=              1.2839    Y=             -0.3864    Z=             -0.1680  Tot=              1.3513
 Quadrupole moment (field-independent basis, Debye-Ang):
   XX=            -30.2618   YY=            -30.1314   ZZ=            -29.3379
   XY=              2.4158   XZ=              1.6612   YZ=              0.6923

 Normal termination of Gaussian 09 at Wed Aug 26 19:30:31 2020.
