 Gaussian 09, Revision D.01,
 Gaussian 09:  ES64L-G09RevD.01 24-Apr-2013

 --------------------
 #p B2PLYPD3/Def2QZVP
 --------------------

 ----------
 butane_opt
 ----------
 Symbolic Z-matrix:
 Charge =  0 Multiplicity = 1

                         Standard orientation:
 ---------------------------------------------------------------------
 Center     Atomic      Atomic             Coordinates (Angstroms)
 Number     Number       Type             X           Y           Z
 ---------------------------------------------------------------------
      1          6           0        1.961065   -0.130751   -0.093390
      2          6           0        0.559226    0.451040    0.004573
      3          1           0        2.793708    0.674454   -0.013526
      4          1           0        1.935280   -0.962485   -0.956362
      5          1           0        2.233561   -0.476793    0.653070
      6          6           0       -0.548423   -0.485406    0.250388
      7          1           0        0.496304    1.056993   -1.038043
      8          1           0        0.721326    1.422721    1.020756
      9          6           0       -2.068275    0.115646   -0.087781
     10          1           0       -0.196789   -1.044490    1.101585
     11          1           0       -0.547405   -1.246221   -0.623464
     12          1           0       -2.423422    0.760880    0.748933
     13          1           0       -2.645276   -0.597417   -0.383054
     14          1           0       -1.788853    0.709186   -0.952634
 ---------------------------------------------------------------------

 SCF Done:  E(RB2PLYPD3) =  -157.971245842     A.U. after   11 cycles
 E2(B2PLYPD3) =    -0.2503240387D+00 E(B2PLYPD3) =    -0.15822156988071D+03

 The electronic state is 1-A.
 Alpha  occ. eigenvalues --  -10.64458 -10.62168 -10.60430 -10.59291  -0.91162
 Alpha  occ. eigenvalues --   -0.83844  -0.75556  -0.64680  -0.53252  -0.51385
 Alpha  occ. eigenvalues --   -0.49208  -0.47194  -0.43076  -0.41374  -0.38554
 Alpha  occ. eigenvalues --   -0.37487  -0.33494
 Alpha virt. eigenvalues --    0.05285   0.06319   0.07109   0.08458   0.10317
 Alpha virt. eigenvalues --    0.11948   0.12586   0.13527   0.14463   0.15127
 Alpha virt. eigenvalues --    0.15646   0.15811   0.18481   0.19312   0.20926

 Mulliken charges:
               1
     1  C   -0.202154
     2  C   -0.035166
     3  H    0.037793
     4  H    0.038678
     5  H    0.115567
     6  C   -0.064595
     7  H    0.028382
     8  H   -0.024942
     9  C   -0.152843
    10  H    0.055367
    11  H    0.010499
    12  H    0.056334
    13  H    0.072171
    14  H    0.064909
 Sum of Mulliken charges =   0.00000

 Dipole moment (field-independent basis, Debye):
    X=             -0.1039    Y=             -0.4958    Z=             -0.0283  Tot=              0.5073
 Quadrupole moment (field-independent basis, Debye-Ang):
   XX=            -28.8200   YY=            -29.9721   ZZ=            -28.7012
   XY=              0.3856   XZ=              1.3940   YZ=              0.1817

 Normal termination of Gaussian 09 at Wed Aug 26 16:19:45 2020.
