 Gaussian 09, Revision D.01,
 Gaussian 09:  ES64L-G09RevD.01 24-Apr-2013

 --------------------
 #p B2PLYPD3/Def2QZVP
 --------------------

 ----------
 butane_opt
 ----------
 Symbolic Z-matrix:
 Charge =  0 Multiplicity = 1

                         Standard orientation:
 ---------------------------------------------------------------------
 Center     Atomic      Atomic             Coordinates (Angstroms)
 Number     Number       Type             X           Y           Z
 ---------------------------------------------------------------------
      1          6           0       -1.942278    0.052444    0.182542
      2          6           0       -0.682635   -0.458703   -0.183763
      3          1           0       -2.821255   -0.827090   -0.183587
      4          1           0       -1.919348    0.374866   -0.532364
      5          1           0       -1.947904    1.248236    1.390076
      6          6           0        0.510253    0.581048   -0.146819
      7          1           0       -0.773808   -1.185909   -1.114781
      8          1           0       -0.478078   -1.067770    0.585104
      9          6           0        2.038628   -0.206302    0.128561
     10          1           0        0.407947    1.179661    0.770105
     11          1           0        0.486642    1.418706   -1.041104
     12          1           0        2.783738   -1.248748    1.216843
     13          1           0        2.932269    0.558511   -0.540617
     14          1           0        1.785990   -0.261383   -0.432797
 ---------------------------------------------------------------------

 SCF Done:  E(RB2PLYPD3) =  -157.160697230     A.U. after   13 cycles
 E2(B2PLYPD3) =    -0.2650802455D+00 E(B2PLYPD3) =    -0.15742577747529D+03

 The electronic state is 1-A.
 Alpha  occ. eigenvalues --  -10.65866 -10.63587 -10.62419 -10.61968  -0.96475
 Alpha  occ. eigenvalues --   -0.90895  -0.75383  -0.67459  -0.53755  -0.49094
 Alpha  occ. eigenvalues --   -0.46395  -0.45516  -0.41752  -0.37196  -0.36915
 Alpha  occ. eigenvalues --   -0.35403  -0.32161
 Alpha virt. eigenvalues --   -0.00641   0.00728   0.05143   0.06126   0.08341
 Alpha virt. eigenvalues --    0.09999   0.10973   0.11987   0.13109   0.15145
 Alpha virt. eigenvalues --    0.15728   0.16258   0.17389   0.17793   0.19591

 Mulliken charges:
               1
     1  C   -0.438942
     2  C   -0.049549
     3  H    0.044897
     4  H    0.339003
     5  H    0.027990
     6  C   -0.069369
     7  H    0.024028
     8  H    0.075578
     9  C   -0.916650
    10  H    0.059429
    11  H    0.042616
    12  H    0.102930
    13  H    0.032397
    14  H    0.725643
 Sum of Mulliken charges =   0.00000

 Dipole moment (field-independent basis, Debye):
    X=             -0.2790    Y=             -0.3648    Z=             -0.7681  Tot=              0.8949
 Quadrupole moment (field-independent basis, Debye-Ang):
   XX=            -32.5670   YY=            -28.9919   ZZ=            -28.3900
   XY=             -0.3355   XZ=              1.8976   YZ=             -0.5485

 Normal termination of Gaussian 09 at Wed Aug 26 11:51:46 2020.
