 Gaussian 09, Revision D.01,
 Gaussian 09:  ES64L-G09RevD.01 24-Apr-2013

 --------------------
 #p B2PLYPD3/Def2QZVP
 --------------------

 ----------
 butane_opt
 ----------
 Symbolic Z-matrix:
 Charge =  0 Multiplicity = 1

                         Standard orientation:
 ---------------------------------------------------------------------
 Center     Atomic      Atomic             Coordinates (Angstroms)
 Number     Number       Type             X           Y           Z
 ---------------------------------------------------------------------
      1          6           0       -1.937210    0.049290    0.121595
      2          6           0       -0.574445   -0.501480   -0.097112
      3          1           0       -2.724670   -0.583501   -0.034260
      4          1           0       -2.444724    0.389986   -0.569052
      5          1           0       -2.036150    0.817272    1.154576
      6          6           0        0.514979    0.597259   -0.260538
      7          1           0       -0.611890   -1.019815   -0.923388
      8          1           0       -0.358675   -1.000600    0.666015
      9          6           0        1.998558   -0.186192    0.092496
     10          1           0        0.388392    1.253166    0.557652
     11          1           0        0.622663    1.328996   -1.088837
     12          1           0        1.598840   -0.561466    0.969048
     13          1           0        2.699481    0.402054    0.918558
     14          1           0        2.855446   -0.779361   -0.788968
 ---------------------------------------------------------------------

 SCF Done:  E(RB2PLYPD3) =  -157.901386918     A.U. after   11 cycles
 E2(B2PLYPD3) =    -0.2515255707D+00 E(B2PLYPD3) =    -0.15815291248838D+03

 The electronic state is 1-A.
 Alpha  occ. eigenvalues --  -10.63670 -10.62127 -10.58915 -10.58327  -0.92482
 Alpha  occ. eigenvalues --   -0.83566  -0.75452  -0.69188  -0.56286  -0.50684
 Alpha  occ. eigenvalues --   -0.48059  -0.46253  -0.41744  -0.39406  -0.38989
 Alpha  occ. eigenvalues --   -0.35672  -0.34619
 Alpha virt. eigenvalues --    0.05230   0.05889   0.08402   0.08790   0.09703
 Alpha virt. eigenvalues --    0.10744   0.12031   0.13847   0.14628   0.15378
 Alpha virt. eigenvalues --    0.16670   0.17179   0.18261   0.19044   0.21388

 Mulliken charges:
               1
     1  C   -0.166297
     2  C   -0.046604
     3  H    0.033296
     4  H    0.060356
     5  H    0.020946
     6  C   -0.054614
     7  H    0.035587
     8  H    0.096686
     9  C   -0.240024
    10  H    0.048495
    11  H    0.047473
    12  H    0.074987
    13  H    0.017714
    14  H    0.072001
 Sum of Mulliken charges =   0.00000

 Dipole moment (field-independent basis, Debye):
    X=             -0.6702    Y=             -0.1396    Z=             -0.1802  Tot=              0.7079
 Quadrupole moment (field-independent basis, Debye-Ang):
   XX=            -29.1001   YY=            -29.9390   ZZ=            -27.7776
   XY=              0.0050   XZ=              1.3374   YZ=              0.7366

 Normal termination of Gaussian 09 at Wed Aug 26 12:13:14 2020.
