 Gaussian 09, Revision D.01,
 Gaussian 09:  ES64L-G09RevD.01 24-Apr-2013

 --------------------
 #p B2PLYPD3/Def2QZVP
 --------------------

 ----------
 butane_opt
 ----------
 Symbolic Z-matrix:
 Charge =  0 Multiplicity = 1

                         Standard orientation:
 ---------------------------------------------------------------------
 Center     Atomic      Atomic             Coordinates (Angstroms)
 Number     Number       Type             X           Y           Z
 ---------------------------------------------------------------------
      1          6           0       -1.931631    0.032931   -0.031361
      2          6           0       -0.634146   -0.549130    0.096735
      3          1           0       -2.720154   -0.705857   -0.688949
      4          1           0       -1.790180    0.270820   -0.605880
      5          1           0       -2.398265    1.359824    1.313461
      6          6           0        0.492162    0.628038   -0.074312
      7          1           0       -0.232812   -1.235825   -0.821598
      8          1           0       -0.772711   -1.025195    0.905193
      9          6           0        2.032962   -0.142270    0.083584
     10          1           0        0.389344    1.003108    0.517110
     11          1           0        0.301737    1.397940   -1.119358
     12          1           0        2.391519   -0.740315    0.973468
     13          1           0        2.719078    0.583610   -0.321618
     14          1           0        2.356354   -0.725520   -0.599707
 ---------------------------------------------------------------------

 SCF Done:  E(RB2PLYPD3) =  -157.239366677     A.U. after   13 cycles
 E2(B2PLYPD3) =    -0.2573334660D+00 E(B2PLYPD3) =    -0.15749670014327D+03

 The electronic state is 1-A.
 Alpha  occ. eigenvalues --  -10.62416 -10.62086 -10.61077 -10.60120  -0.96599
 Alpha  occ. eigenvalues --   -0.86775  -0.78727  -0.72652  -0.55892  -0.49403
 Alpha  occ. eigenvalues --   -0.48321  -0.43704  -0.43184  -0.42157  -0.39598
 Alpha  occ. eigenvalues --   -0.36033  -0.32415
 Alpha virt. eigenvalues --   -0.02728   0.05007   0.06421   0.07515   0.10132
 Alpha virt. eigenvalues --    0.11185   0.11991   0.12576   0.13965   0.15080
 Alpha virt. eigenvalues --    0.15952   0.16366   0.18074   0.19206   0.20335

 Mulliken charges:
               1
     1  C   -0.806309
     2  C   -0.000569
     3  H    0.060749
     4  H    0.657208
     5  H   -0.012433
     6  C   -0.504766
     7  H    0.040039
     8  H    0.082909
     9  C   -0.152647
    10  H    0.450009
    11  H    0.047538
    12  H    0.056955
    13  H    0.034132
    14  H    0.047185
 Sum of Mulliken charges =   0.00000

 Dipole moment (field-independent basis, Debye):
    X=              0.8215    Y=             -0.3105    Z=             -0.7768  Tot=              1.1725
 Quadrupole moment (field-independent basis, Debye-Ang):
   XX=            -31.5642   YY=            -29.0409   ZZ=            -27.8677
   XY=             -0.2482   XZ=              0.6521   YZ=             -0.1601

 Normal termination of Gaussian 09 at Wed Aug 26 22:38:37 2020.
