 Gaussian 09, Revision D.01,
 Gaussian 09:  ES64L-G09RevD.01 24-Apr-2013

 --------------------
 #p B2PLYPD3/Def2QZVP
 --------------------

 ----------
 butane_opt
 ----------
 Symbolic Z-matrix:
 Charge =  0 Multiplicity = 1

                         Standard orientation:
 ---------------------------------------------------------------------
 Center     Atomic      Atomic             Coordinates (Angstroms)
 Number     Number       Type             X           Y           Z
 ---------------------------------------------------------------------
      1          6           0       -1.873734   -0.014087   -0.206489
      2          6           0       -0.520212   -0.361222    0.400868
      3          1           0       -2.822510   -0.973225   -0.590654
      4          1           0       -1.485182    0.318163   -1.099422
      5          1           0       -2.462395    0.958373    0.464930
      6          6           0        0.500994    0.595657    0.070281
      7          1           0       -0.318066   -0.846708   -0.173181
      8          1           0       -0.707523   -0.896246    1.403640
      9          6           0        1.867790   -0.204307   -0.125411
     10          1           0        0.703448    1.572081    0.772742
     11          1           0       -0.025812    0.993386   -0.986988
     12          1           0        2.260852   -0.446204    0.754438
     13          1           0        2.666968    0.430739   -0.413374
     14          1           0        2.341193   -1.206605   -0.967623
 ---------------------------------------------------------------------

 SCF Done:  E(RB2PLYPD3) =  -157.811133363     A.U. after   11 cycles
 E2(B2PLYPD3) =    -0.2545125266D+00 E(B2PLYPD3) =    -0.15806564589004D+03

 The electronic state is 1-A.
 Alpha  occ. eigenvalues --  -10.65334 -10.64201 -10.62063 -10.57714  -0.96537
 Alpha  occ. eigenvalues --   -0.82890  -0.72767  -0.67418  -0.56464  -0.49141
 Alpha  occ. eigenvalues --   -0.48368  -0.45350  -0.40789  -0.39686  -0.39228
 Alpha  occ. eigenvalues --   -0.36733  -0.36205
 Alpha virt. eigenvalues --    0.04886   0.05139   0.07280   0.07806   0.09721
 Alpha virt. eigenvalues --    0.10879   0.12569   0.13066   0.13137   0.14761
 Alpha virt. eigenvalues --    0.16084   0.16584   0.18664   0.19528   0.20449

 Mulliken charges:
               1
     1  C   -0.158988
     2  C   -0.431329
     3  H    0.027384
     4  H    0.069639
     5  H    0.025272
     6  C   -0.033380
     7  H    0.414938
     8  H    0.052926
     9  C   -0.144474
    10  H    0.041161
    11  H    0.027474
    12  H    0.061050
    13  H    0.029137
    14  H    0.019191
 Sum of Mulliken charges =   0.00000

 Dipole moment (field-independent basis, Debye):
    X=              0.6333    Y=              0.0692    Z=              0.0896  Tot=              0.6433
 Quadrupole moment (field-independent basis, Debye-Ang):
   XX=            -29.9954   YY=            -29.8575   ZZ=            -29.0234
   XY=              0.3826   XZ=              0.3969   YZ=              0.6173

 Normal termination of Gaussian 09 at Wed Aug 26 12:04:14 2020.
