 Gaussian 09, Revision D.01,
 Gaussian 09:  ES64L-G09RevD.01 24-Apr-2013

 --------------------
 #p B2PLYPD3/Def2QZVP
 --------------------

 ----------
 butane_opt
 ----------
 Symbolic Z-matrix:
 Charge =  0 Multiplicity = 1

                         Standard orientation:
 ---------------------------------------------------------------------
 Center     Atomic      Atomic             Coordinates (Angstroms)
 Number     Number       Type             X           Y           Z
 ---------------------------------------------------------------------
      1          6           0       -1.934050    0.079451   -0.160658
      2          6           0       -0.722748   -0.469604    0.023745
      3          1           0       -2.767599   -0.765265    0.077338
      4          1           0       -1.975651    0.850108   -1.077586
      5          1           0       -2.093733    0.645607    0.738054
      6          6           0        0.546627    0.558239    0.203327
      7          1           0       -0.342618   -0.660461   -0.650598
      8          1           0       -0.871694   -1.293556    1.005707
      9          6           0        2.026908   -0.180756   -0.136280
     10          1           0        0.461106    1.289241    1.263216
     11          1           0        0.316988    1.012633   -0.478349
     12          1           0        2.624361   -0.944204    0.858247
     13          1           0        3.003660    0.581417   -0.402395
     14          1           0        2.144758   -0.639503   -0.914433
 ---------------------------------------------------------------------

 SCF Done:  E(RB2PLYPD3) =  -157.756122088     A.U. after   11 cycles
 E2(B2PLYPD3) =    -0.2525284380D+00 E(B2PLYPD3) =    -0.15800865052564D+03

 The electronic state is 1-A.
 Alpha  occ. eigenvalues --  -10.64084 -10.62601 -10.61222 -10.58958  -0.95464
 Alpha  occ. eigenvalues --   -0.83742  -0.75528  -0.69201  -0.55632  -0.49936
 Alpha  occ. eigenvalues --   -0.48416  -0.47415  -0.42058  -0.40783  -0.38688
 Alpha  occ. eigenvalues --   -0.38197  -0.32371
 Alpha virt. eigenvalues --    0.04717   0.05532   0.07558   0.08627   0.10394
 Alpha virt. eigenvalues --    0.10757   0.11542   0.12573   0.14031   0.14873
 Alpha virt. eigenvalues --    0.15410   0.16180   0.18786   0.19465   0.20381

 Mulliken charges:
               1
     1  C   -0.123334
     2  C   -0.295443
     3  H    0.054654
     4  H    0.029420
     5  H    0.059068
     6  C   -0.238672
     7  H    0.283510
     8  H    0.025120
     9  C   -0.201866
    10  H    0.027083
    11  H    0.222740
    12  H    0.025048
    13  H    0.019351
    14  H    0.113322
 Sum of Mulliken charges =   0.00000

 Dipole moment (field-independent basis, Debye):
    X=             -0.2848    Y=              0.0717    Z=             -0.5127  Tot=              0.5909
 Quadrupole moment (field-independent basis, Debye-Ang):
   XX=            -30.1245   YY=            -30.0319   ZZ=            -28.2561
   XY=             -0.1046   XZ=             -1.8667   YZ=             -0.5039

 Normal termination of Gaussian 09 at Wed Aug 26 23:06:49 2020.
