 Gaussian 09, Revision D.01,
 Gaussian 09:  ES64L-G09RevD.01 24-Apr-2013

 --------------------
 #p B2PLYPD3/Def2QZVP
 --------------------

 ----------
 butane_opt
 ----------
 Symbolic Z-matrix:
 Charge =  0 Multiplicity = 1

                         Standard orientation:
 ---------------------------------------------------------------------
 Center     Atomic      Atomic             Coordinates (Angstroms)
 Number     Number       Type             X           Y           Z
 ---------------------------------------------------------------------
      1          6           0       -1.932185    0.094220    0.178431
      2          6           0       -0.623157   -0.470590   -0.301152
      3          1           0       -2.772832   -0.736297    0.613432
      4          1           0       -2.556663    0.730104   -0.626797
      5          1           0       -1.757605    0.500044    1.022597
      6          6           0        0.550084    0.510179   -0.141344
      7          1           0       -0.559431   -1.181569   -1.280825
      8          1           0       -0.396301   -0.774162    0.368974
      9          6           0        2.051372   -0.166914    0.144071
     10          1           0        0.389090    1.363621    0.898851
     11          1           0        0.235344    1.165157   -0.830586
     12          1           0        1.995409   -1.242837    1.189830
     13          1           0        2.767578    0.575083   -0.142619
     14          1           0        2.378732   -0.200515   -0.492895
 ---------------------------------------------------------------------

 SCF Done:  E(RB2PLYPD3) =  -157.515255495     A.U. after   11 cycles
 E2(B2PLYPD3) =    -0.2547934381D+00 E(B2PLYPD3) =    -0.15777004893285D+03

 The electronic state is 1-A.
 Alpha  occ. eigenvalues --  -10.63225 -10.61844 -10.61035 -10.57824  -0.94925
 Alpha  occ. eigenvalues --   -0.91226  -0.76854  -0.68663  -0.55999  -0.51187
 Alpha  occ. eigenvalues --   -0.45736  -0.44462  -0.42949  -0.40439  -0.38275
 Alpha  occ. eigenvalues --   -0.34315  -0.33501
 Alpha virt. eigenvalues --    0.03062   0.06123   0.06653   0.07479   0.10125
 Alpha virt. eigenvalues --    0.11307   0.11712   0.13600   0.14315   0.14539
 Alpha virt. eigenvalues --    0.15872   0.16445   0.18492   0.18900   0.21611

 Mulliken charges:
               1
     1  C   -0.133588
     2  C   -0.471438
     3  H    0.010829
     4  H    0.035474
     5  H    0.090829
     6  C   -0.107997
     7  H    0.053203
     8  H    0.428606
     9  C   -0.579794
    10  H   -0.005510
    11  H    0.073057
    12  H    0.089106
    13  H    0.054962
    14  H    0.462263
 Sum of Mulliken charges =   0.00000

 Dipole moment (field-independent basis, Debye):
    X=              0.6838    Y=             -0.2436    Z=             -0.3761  Tot=              0.8175
 Quadrupole moment (field-independent basis, Debye-Ang):
   XX=            -28.6422   YY=            -29.8014   ZZ=            -28.0699
   XY=             -0.4433   XZ=             -1.6592   YZ=             -1.4784

 Normal termination of Gaussian 09 at Wed Aug 26 23:33:43 2020.
