 Gaussian 09, Revision D.01,
 Gaussian 09:  ES64L-G09RevD.01 24-Apr-2013

 --------------------
 #p B2PLYPD3/Def2QZVP
 --------------------

 ----------
 butane_opt
 ----------
 Symbolic Z-matrix:
 Charge =  0 Multiplicity = 1

                         Standard orientation:
 ---------------------------------------------------------------------
 Center     Atomic      Atomic             Coordinates (Angstroms)
 Number     Number       Type             X           Y           Z
 ---------------------------------------------------------------------
      1          6           0        1.909328    0.115372   -0.177642
      2          6           0        0.541700   -0.494339    0.234141
      3          1           0        2.762280   -0.660451   -0.797415
      4          1           0        2.432969    0.876605    0.664074
      5          1           0        1.495007    0.304602   -0.758078
      6          6           0       -0.547511    0.576620    0.085253
      7          1           0        0.742017   -1.407468    1.377901
      8          1           0        0.300576   -0.691880   -0.302134
      9          6           0       -1.889793   -0.175832   -0.104674
     10          1           0       -0.476983    1.072154   -0.567773
     11          1           0       -0.452485    1.429367    0.983672
     12          1           0       -1.751569   -0.945973   -1.036588
     13          1           0       -2.647357    0.579174   -0.289386
     14          1           0       -2.486796   -0.687056    0.503263
 ---------------------------------------------------------------------

 SCF Done:  E(RB2PLYPD3) =  -157.289681408     A.U. after   12 cycles
 E2(B2PLYPD3) =    -0.2522263587D+00 E(B2PLYPD3) =    -0.15754190776713D+03

 The electronic state is 1-A.
 Alpha  occ. eigenvalues --  -10.61271 -10.61105 -10.61078 -10.60024  -0.99753
 Alpha  occ. eigenvalues --   -0.86762  -0.77433  -0.73637  -0.55543  -0.50672
 Alpha  occ. eigenvalues --   -0.49730  -0.46943  -0.44889  -0.42799  -0.38169
 Alpha  occ. eigenvalues --   -0.35817  -0.34317
 Alpha virt. eigenvalues --    0.04768   0.06269   0.06950   0.08170   0.10816
 Alpha virt. eigenvalues --    0.10952   0.12066   0.13294   0.14557   0.15329
 Alpha virt. eigenvalues --    0.16208   0.16458   0.17953   0.19882   0.21092

 Mulliken charges:
               1
     1  C   -0.529310
     2  C   -0.857362
     3  H    0.036500
     4  H    0.075578
     5  H    0.427563
     6  C   -0.176295
     7  H    0.034930
     8  H    0.790735
     9  C   -0.128949
    10  H    0.217495
    11  H    0.016076
    12  H    0.014157
    13  H    0.030500
    14  H    0.048381
 Sum of Mulliken charges =   0.00000

 Dipole moment (field-independent basis, Debye):
    X=             -0.6143    Y=              0.3521    Z=             -0.4731  Tot=              0.8516
 Quadrupole moment (field-independent basis, Debye-Ang):
   XX=            -29.0250   YY=            -29.1493   ZZ=            -28.6699
   XY=              0.2491   XZ=              0.1385   YZ=              0.4422

 Normal termination of Gaussian 09 at Wed Aug 26 19:43:00 2020.
