 Gaussian 09, Revision D.01,
 Gaussian 09:  ES64L-G09RevD.01 24-Apr-2013

 --------------------
 #p B2PLYPD3/Def2QZVP
 --------------------

 ----------
 butane_opt
 ----------
 Symbolic Z-matrix:
 Charge =  0 Multiplicity = 1

                         Standard orientation:
 ---------------------------------------------------------------------
 Center     Atomic      Atomic             Coordinates (Angstroms)
 Number     Number       Type             X           Y           Z
 ---------------------------------------------------------------------
      1          6           0       -1.921483    0.061257    0.136984
      2          6           0       -0.660453   -0.416509   -0.310154
      3          1           0       -2.797786   -1.036030    0.559626
      4          1           0       -2.427628    0.549285   -0.427362
      5          1           0       -1.698133    0.804860    1.249167
      6          6           0        0.498276    0.609659   -0.132781
      7          1           0       -0.651625   -0.942156   -1.298454
      8          1           0       -0.269997   -1.036040    0.416383
      9          6           0        2.076791   -0.214548    0.130295
     10          1           0        0.148800    0.959452    0.841871
     11          1           0        0.411538    1.560257   -0.955139
     12          1           0        2.013105   -1.112813    1.063934
     13          1           0        2.844658    0.624803    0.380171
     14          1           0        2.468281   -0.610778   -0.776261
 ---------------------------------------------------------------------

 SCF Done:  E(RB2PLYPD3) =  -157.930220354     A.U. after   11 cycles
 E2(B2PLYPD3) =    -0.2537883098D+00 E(B2PLYPD3) =    -0.15818400866373D+03

 The electronic state is 1-A.
 Alpha  occ. eigenvalues --  -10.64872 -10.64593 -10.63495 -10.60142  -0.92029
 Alpha  occ. eigenvalues --   -0.80191  -0.73282  -0.66217  -0.54844  -0.49769
 Alpha  occ. eigenvalues --   -0.46260  -0.44914  -0.42215  -0.40219  -0.39032
 Alpha  occ. eigenvalues --   -0.36759  -0.33961
 Alpha virt. eigenvalues --    0.04301   0.05474   0.07565   0.07801   0.09883
 Alpha virt. eigenvalues --    0.10521   0.11727   0.12958   0.14351   0.14820
 Alpha virt. eigenvalues --    0.15164   0.15994   0.18177   0.19274   0.20548

 Mulliken charges:
               1
     1  C   -0.198664
     2  C   -0.025267
     3  H    0.006012
     4  H    0.111050
     5  H    0.011213
     6  C   -0.097525
     7  H    0.036343
     8  H    0.073947
     9  C   -0.175150
    10  H    0.065577
    11  H    0.023465
    12  H    0.042441
    13  H    0.055848
    14  H    0.070708
 Sum of Mulliken charges =   0.00000

 Dipole moment (field-independent basis, Debye):
    X=              0.3552    Y=              0.0438    Z=             -0.3420  Tot=              0.4950
 Quadrupole moment (field-independent basis, Debye-Ang):
   XX=            -30.6456   YY=            -29.8232   ZZ=            -29.0714
   XY=             -0.8522   XZ=              0.7748   YZ=             -0.3448

 Normal termination of Gaussian 09 at Wed Aug 26 21:49:01 2020.
