 Gaussian 09, Revision D.01,
 Gaussian 09:  ES64L-G09RevD.01 24-Apr-2013

 --------------------
 #p B2PLYPD3/Def2QZVP
 --------------------

 ----------
 butane_opt
 ----------
 Symbolic Z-matrix:
 Charge =  0 Multiplicity = 1

                         Standard orientation:
 ---------------------------------------------------------------------
 Center     Atomic      Atomic             Coordinates (Angstroms)
 Number     Number       Type             X           Y           Z
 ---------------------------------------------------------------------
      1          6           0       -1.888885   -0.089632   -0.093233
      2          6           0       -0.534782    0.386107    0.201936
      3          1           0       -2.897953    0.971849   -0.478287
      4          1           0       -2.347942   -0.870368    0.622293
      5          1           0       -1.439066   -0.665279   -1.038680
      6          6           0        0.491180   -0.525457    0.065319
      7          1           0       -0.502463    1.165072    1.200698
      8          1           0       -0.497907    1.125524   -0.734514
      9          6           0        1.928509    0.108397   -0.064424
     10          1           0        0.446297   -0.913174   -0.795707
     11          1           0        0.250957   -1.211038    0.914619
     12          1           0        2.167842    0.935185   -1.021613
     13          1           0        2.673531   -0.478045   -0.317401
     14          1           0        2.170578    0.663787    0.991002
 ---------------------------------------------------------------------

 SCF Done:  E(RB2PLYPD3) =  -157.930280290     A.U. after   11 cycles
 E2(B2PLYPD3) =    -0.2539764205D+00 E(B2PLYPD3) =    -0.15818425671094D+03

 The electronic state is 1-A.
 Alpha  occ. eigenvalues --  -10.65378 -10.62812 -10.62382 -10.60028  -0.95463
 Alpha  occ. eigenvalues --   -0.82936  -0.73198  -0.64310  -0.57418  -0.50688
 Alpha  occ. eigenvalues --   -0.48930  -0.46420  -0.41449  -0.39734  -0.37741
 Alpha  occ. eigenvalues --   -0.36191  -0.34503
 Alpha virt. eigenvalues --    0.03780   0.05632   0.07560   0.07635   0.09400
 Alpha virt. eigenvalues --    0.10881   0.12236   0.12700   0.14128   0.14694
 Alpha virt. eigenvalues --    0.15153   0.16276   0.18932   0.20200   0.20876

 Mulliken charges:
               1
     1  C   -0.166409
     2  C   -0.041988
     3  H    0.029544
     4  H    0.048518
     5  H    0.049235
     6  C   -0.071975
     7  H    0.009338
     8  H    0.041910
     9  C   -0.144595
    10  H    0.083552
    11  H    0.040288
    12  H    0.017690
    13  H    0.067178
    14  H    0.037714
 Sum of Mulliken charges =   0.00000

 Dipole moment (field-independent basis, Debye):
    X=              0.5036    Y=             -0.5430    Z=             -0.1547  Tot=              0.7565
 Quadrupole moment (field-independent basis, Debye-Ang):
   XX=            -30.8412   YY=            -30.2747   ZZ=            -28.9932
   XY=             -0.4892   XZ=             -1.3248   YZ=             -0.3614

 Normal termination of Gaussian 09 at Wed Aug 26 19:00:56 2020.
