 Gaussian 09, Revision D.01,
 Gaussian 09:  ES64L-G09RevD.01 24-Apr-2013

 --------------------
 #p B2PLYPD3/Def2QZVP
 --------------------

 ----------
 butane_opt
 ----------
 Symbolic Z-matrix:
 Charge =  0 Multiplicity = 1

                         Standard orientation:
 ---------------------------------------------------------------------
 Center     Atomic      Atomic             Coordinates (Angstroms)
 Number     Number       Type             X           Y           Z
 ---------------------------------------------------------------------
      1          6           0       -1.966536    0.044397   -0.158557
      2          6           0       -0.643821   -0.462422    0.268780
      3          1           0       -2.827297   -0.674856   -0.828591
      4          1           0       -1.488351    0.512749   -0.933033
      5          1           0       -2.348075    0.808724    0.724793
      6          6           0        0.478323    0.565580    0.068285
      7          1           0       -0.601725   -0.839737   -0.284167
      8          1           0       -0.508906   -1.179642    1.383468
      9          6           0        2.079449   -0.203643   -0.147784
     10          1           0        0.497028    1.642245    0.913079
     11          1           0        0.345208    1.061128   -0.822521
     12          1           0        2.162799   -0.530298    0.734343
     13          1           0        2.864229    0.462789   -0.092250
     14          1           0        2.220601   -0.926573   -0.979462
 ---------------------------------------------------------------------

 SCF Done:  E(RB2PLYPD3) =  -157.658076921     A.U. after   11 cycles
 E2(B2PLYPD3) =    -0.2522759080D+00 E(B2PLYPD3) =    -0.15791035282860D+03

 The electronic state is 1-A.
 Alpha  occ. eigenvalues --  -10.64633 -10.62844 -10.59632 -10.59460  -0.96426
 Alpha  occ. eigenvalues --   -0.83077  -0.73553  -0.69716  -0.55062  -0.49621
 Alpha  occ. eigenvalues --   -0.48093  -0.47469  -0.42857  -0.41138  -0.38020
 Alpha  occ. eigenvalues --   -0.36260  -0.35661
 Alpha virt. eigenvalues --    0.04864   0.06311   0.07700   0.07942   0.10564
 Alpha virt. eigenvalues --    0.11171   0.12186   0.13431   0.14433   0.14717
 Alpha virt. eigenvalues --    0.15659   0.16860   0.18043   0.18935   0.20587

 Mulliken charges:
               1
     1  C   -0.155680
     2  C   -0.698327
     3  H    0.043690
     4  H    0.076943
     5  H    0.047273
     6  C   -0.047243
     7  H    0.633587
     8  H    0.030720
     9  C   -0.182647
    10  H    0.005402
    11  H    0.058326
    12  H    0.086473
    13  H    0.046144
    14  H    0.055339
 Sum of Mulliken charges =   0.00000

 Dipole moment (field-independent basis, Debye):
    X=              0.3633    Y=             -0.1386    Z=             -0.6193  Tot=              0.7312
 Quadrupole moment (field-independent basis, Debye-Ang):
   XX=            -29.5452   YY=            -29.6551   ZZ=            -28.1302
   XY=              0.2465   XZ=              0.6301   YZ=              0.8839

 Normal termination of Gaussian 09 at Wed Aug 26 14:10:04 2020.
