 Gaussian 09, Revision D.01,
 Gaussian 09:  ES64L-G09RevD.01 24-Apr-2013

 --------------------
 #p B2PLYPD3/Def2QZVP
 --------------------

 ----------
 butane_opt
 ----------
 Symbolic Z-matrix:
 Charge =  0 Multiplicity = 1

                         Standard orientation:
 ---------------------------------------------------------------------
 Center     Atomic      Atomic             Coordinates (Angstroms)
 Number     Number       Type             X           Y           Z
 ---------------------------------------------------------------------
      1          6           0       -1.908506    0.099102   -0.003193
      2          6           0       -0.552615   -0.539890    0.015210
      3          1           0       -2.694401   -0.643223   -0.267305
      4          1           0       -1.889023    0.784847   -0.953712
      5          1           0       -2.253068    0.801221    0.909367
      6          6           0        0.498853    0.531849    0.086124
      7          1           0       -0.459063   -1.156479   -0.883159
      8          1           0       -0.446130   -1.161011    0.880426
      9          6           0        1.974457   -0.124890   -0.027864
     10          1           0        0.547125    1.221348    0.988279
     11          1           0        0.365104    1.194888   -0.766355
     12          1           0        2.218645   -0.926155    0.918031
     13          1           0        2.655181    0.677817   -0.451893
     14          1           0        1.882494   -0.590283   -0.795348
 ---------------------------------------------------------------------

 SCF Done:  E(RB2PLYPD3) =  -158.044679012     A.U. after   11 cycles
 E2(B2PLYPD3) =    -0.2486236510D+00 E(B2PLYPD3) =    -0.15829330266343D+03

 The electronic state is 1-A.
 Alpha  occ. eigenvalues --  -10.61754 -10.61086 -10.60373 -10.59981  -0.91469
 Alpha  occ. eigenvalues --   -0.82906  -0.72292  -0.66548  -0.54152  -0.49568
 Alpha  occ. eigenvalues --   -0.47992  -0.46341  -0.42376  -0.40337  -0.39293
 Alpha  occ. eigenvalues --   -0.38045  -0.36077
 Alpha virt. eigenvalues --    0.05572   0.06505   0.07969   0.08468   0.10834
 Alpha virt. eigenvalues --    0.11823   0.12584   0.12985   0.14079   0.15388
 Alpha virt. eigenvalues --    0.16061   0.16718   0.19342   0.19770   0.20973

 Mulliken charges:
               1
     1  C   -0.157834
     2  C   -0.030545
     3  H    0.044439
     4  H    0.025259
     5  H    0.047861
     6  C   -0.032965
     7  H    0.042368
     8  H    0.035361
     9  C   -0.232618
    10  H    0.032962
    11  H    0.029918
    12  H    0.043604
    13  H    0.038034
    14  H    0.114156
 Sum of Mulliken charges =   0.00000

 Dipole moment (field-independent basis, Debye):
    X=             -0.1162    Y=             -0.1824    Z=             -0.3355  Tot=              0.3992
 Quadrupole moment (field-independent basis, Debye-Ang):
   XX=            -31.2089   YY=            -28.8033   ZZ=            -28.0362
   XY=              0.3959   XZ=             -0.5430   YZ=             -0.1055

 Normal termination of Gaussian 09 at Wed Aug 26 18:53:38 2020.
