 Gaussian 09, Revision D.01,
 Gaussian 09:  ES64L-G09RevD.01 24-Apr-2013

 --------------------
 #p B2PLYPD3/Def2QZVP
 --------------------

 ----------
 butane_opt
 ----------
 Symbolic Z-matrix:
 Charge =  0 Multiplicity = 1

                         Standard orientation:
 ---------------------------------------------------------------------
 Center     Atomic      Atomic             Coordinates (Angstroms)
 Number     Number       Type             X           Y           Z
 ---------------------------------------------------------------------
      1          6           0       -1.996698   -0.123369   -0.027526
      2          6           0       -0.529645    0.520032    0.067283
      3          1           0       -2.771870    0.538288   -0.508745
      4          1           0       -2.463784   -1.006412    1.013282
      5          1           0       -1.882768   -0.605604   -0.807788
      6          6           0        0.574134   -0.496007    0.001041
      7          1           0       -0.334630    1.420931    1.064167
      8          1           0       -0.534360    1.151547   -0.737820
      9          6           0        1.984314    0.104003   -0.064179
     10          1           0        0.496215   -1.091878   -0.800483
     11          1           0        0.474329   -1.144735    0.915878
     12          1           0        1.883128    0.675153   -0.885161
     13          1           0        2.897157   -0.761292   -0.013331
     14          1           0        2.043949    0.796046    0.900288
 ---------------------------------------------------------------------

 SCF Done:  E(RB2PLYPD3) =  -157.971105126     A.U. after   11 cycles
 E2(B2PLYPD3) =    -0.2506532088D+00 E(B2PLYPD3) =    -0.15822175833435D+03

 The electronic state is 1-A.
 Alpha  occ. eigenvalues --  -10.63529 -10.62482 -10.61829 -10.60119  -0.91839
 Alpha  occ. eigenvalues --   -0.83626  -0.72880  -0.66916  -0.54350  -0.49598
 Alpha  occ. eigenvalues --   -0.47638  -0.46516  -0.40617  -0.40175  -0.39142
 Alpha  occ. eigenvalues --   -0.37543  -0.36633
 Alpha virt. eigenvalues --    0.04835   0.05882   0.07627   0.08178   0.10413
 Alpha virt. eigenvalues --    0.11029   0.12118   0.12627   0.14417   0.15235
 Alpha virt. eigenvalues --    0.15732   0.16012   0.18828   0.19526   0.20461

 Mulliken charges:
               1
     1  C   -0.221121
     2  C   -0.039231
     3  H    0.043699
     4  H    0.029830
     5  H    0.117475
     6  C   -0.033115
     7  H   -0.006841
     8  H    0.050452
     9  C   -0.179387
    10  H    0.049232
    11  H    0.030511
    12  H    0.075689
    13  H    0.043569
    14  H    0.039239
 Sum of Mulliken charges =   0.00000

 Dipole moment (field-independent basis, Debye):
    X=              0.0193    Y=             -0.1689    Z=             -0.8787  Tot=              0.8950
 Quadrupole moment (field-independent basis, Debye-Ang):
   XX=            -30.9105   YY=            -29.5101   ZZ=            -28.4736
   XY=             -0.6370   XZ=              1.2794   YZ=             -0.6248

 Normal termination of Gaussian 09 at Wed Aug 26 14:01:56 2020.
