 Gaussian 09, Revision D.01,
 Gaussian 09:  ES64L-G09RevD.01 24-Apr-2013

 --------------------
 #p B2PLYPD3/Def2QZVP
 --------------------

 ----------
 butane_opt
 ----------
 Symbolic Z-matrix:
 Charge =  0 Multiplicity = 1

                         Standard orientation:
 ---------------------------------------------------------------------
 Center     Atomic      Atomic             Coordinates (Angstroms)
 Number     Number       Type             X           Y           Z
 ---------------------------------------------------------------------
      1          6           0        1.940151   -0.131469    0.047120
      2          6           0        0.519692    0.550241   -0.074640
      3          1           0        2.756743    0.627085   -0.083434
      4          1           0        2.089087   -0.749290   -0.816717
      5          1           0        2.092455   -0.852938    1.083686
      6          6           0       -0.524367   -0.484729   -0.030297
      7          1           0        0.321911    1.230447   -0.971905
      8          1           0        0.334036    1.103107    0.700904
      9          6           0       -1.882102    0.086124    0.029048
     10          1           0       -0.466118   -1.196107    0.949606
     11          1           0       -0.541072   -0.913399   -0.824358
     12          1           0       -2.295152    1.064926    1.113402
     13          1           0       -2.769652   -0.766021   -0.445778
     14          1           0       -1.842484    0.331186   -0.532792
 ---------------------------------------------------------------------

 SCF Done:  E(RB2PLYPD3) =  -157.524335943     A.U. after   12 cycles
 E2(B2PLYPD3) =    -0.2508314653D+00 E(B2PLYPD3) =    -0.15777516740858D+03

 The electronic state is 1-A.
 Alpha  occ. eigenvalues --  -10.62484 -10.61366 -10.60128 -10.59235  -0.96767
 Alpha  occ. eigenvalues --   -0.86106  -0.74938  -0.69079  -0.56389  -0.49677
 Alpha  occ. eigenvalues --   -0.48172  -0.46548  -0.41972  -0.40746  -0.39157
 Alpha  occ. eigenvalues --   -0.37581  -0.36337
 Alpha virt. eigenvalues --    0.04071   0.05971   0.07309   0.07825   0.10282
 Alpha virt. eigenvalues --    0.10936   0.12310   0.12791   0.14288   0.15197
 Alpha virt. eigenvalues --    0.15882   0.16213   0.18688   0.19747   0.20985

 Mulliken charges:
               1
     1  C   -0.155230
     2  C   -0.052373
     3  H    0.043414
     4  H    0.046119
     5  H    0.043337
     6  C   -0.017707
     7  H    0.016798
     8  H    0.073988
     9  C   -0.899003
    10  H    0.023099
    11  H    0.100679
    12  H    0.035717
    13  H    0.048909
    14  H    0.692253
 Sum of Mulliken charges =   0.00000

 Dipole moment (field-independent basis, Debye):
    X=              0.3519    Y=              0.2022    Z=             -0.6524  Tot=              0.7683
 Quadrupole moment (field-independent basis, Debye-Ang):
   XX=            -31.2740   YY=            -29.1997   ZZ=            -27.6884
   XY=             -0.0731   XZ=              0.6348   YZ=              0.3991

 Normal termination of Gaussian 09 at Wed Aug 26 22:42:18 2020.
