 Gaussian 09, Revision D.01,
 Gaussian 09:  ES64L-G09RevD.01 24-Apr-2013

 --------------------
 #p B2PLYPD3/Def2QZVP
 --------------------

 ----------
 butane_opt
 ----------
 Symbolic Z-matrix:
 Charge =  0 Multiplicity = 1

                         Standard orientation:
 ---------------------------------------------------------------------
 Center     Atomic      Atomic             Coordinates (Angstroms)
 Number     Number       Type             X           Y           Z
 ---------------------------------------------------------------------
      1          6           0       -1.983068   -0.136760   -0.130776
      2          6           0       -0.572833    0.541515    0.275819
      3          1           0       -2.757399    0.560809   -1.029469
      4          1           0       -2.781624   -1.052792    0.750851
      5          1           0       -1.523033   -0.490124   -0.872922
      6          6           0        0.613907   -0.483190    0.102820
      7          1           0       -0.488298    1.328289    1.300658
      8          1           0       -0.409059    1.087191   -0.478126
      9          6           0        2.034598    0.067550   -0.099046
     10          1           0        0.112402   -0.917332   -0.607917
     11          1           0        0.533369   -1.183120    0.841927
     12          1           0        1.935456    0.905214   -1.123729
     13          1           0        2.818873   -0.635043   -0.338993
     14          1           0        2.003694    0.462217    0.664815
 ---------------------------------------------------------------------

 SCF Done:  E(RB2PLYPD3) =  -157.820801474     A.U. after   11 cycles
 E2(B2PLYPD3) =    -0.2536480300D+00 E(B2PLYPD3) =    -0.15807444950426D+03

 The electronic state is 1-A.
 Alpha  occ. eigenvalues --  -10.65601 -10.62903 -10.60690 -10.59257  -0.93501
 Alpha  occ. eigenvalues --   -0.85052  -0.74130  -0.68433  -0.55593  -0.51980
 Alpha  occ. eigenvalues --   -0.46819  -0.46026  -0.41353  -0.39784  -0.38858
 Alpha  occ. eigenvalues --   -0.37706  -0.35211
 Alpha virt. eigenvalues --    0.03448   0.05638   0.07415   0.08343   0.09456
 Alpha virt. eigenvalues --    0.10656   0.12179   0.13201   0.14456   0.14908
 Alpha virt. eigenvalues --    0.15821   0.17113   0.17616   0.19006   0.20092

 Mulliken charges:
               1
     1  C   -0.263618
     2  C   -0.102142
     3  H    0.025474
     4  H    0.053735
     5  H    0.140985
     6  C   -0.071944
     7  H    0.002045
     8  H    0.116033
     9  C   -0.249790
    10  H    0.058031
    11  H    0.037384
    12  H    0.008245
    13  H    0.073208
    14  H    0.172354
 Sum of Mulliken charges =   0.00000

 Dipole moment (field-independent basis, Debye):
    X=              0.5778    Y=             -0.4613    Z=             -0.3852  Tot=              0.8337
 Quadrupole moment (field-independent basis, Debye-Ang):
   XX=            -30.5894   YY=            -30.0073   ZZ=            -28.4578
   XY=              0.0182   XZ=              0.7835   YZ=             -0.7867

 Normal termination of Gaussian 09 at Wed Aug 26 13:13:57 2020.
