 Gaussian 09, Revision D.01,
 Gaussian 09:  ES64L-G09RevD.01 24-Apr-2013

 --------------------
 #p B2PLYPD3/Def2QZVP
 --------------------

 ----------
 butane_opt
 ----------
 Symbolic Z-matrix:
 Charge =  0 Multiplicity = 1

                         Standard orientation:
 ---------------------------------------------------------------------
 Center     Atomic      Atomic             Coordinates (Angstroms)
 Number     Number       Type             X           Y           Z
 ---------------------------------------------------------------------
      1          6           0       -1.976538   -0.235380   -0.149867
      2          6           0       -0.553042    0.653640    0.201805
      3          1           0       -2.615685    0.393794   -0.599071
      4          1           0       -2.740477   -0.684449    0.576592
      5          1           0       -1.820033   -0.690247   -0.799536
      6          6           0        0.610441   -0.519413    0.129090
      7          1           0       -0.577636    1.534551    1.169559
      8          1           0       -0.606214    1.023309   -0.504432
      9          6           0        1.979717    0.096300   -0.176046
     10          1           0        0.465772   -0.825535   -0.463975
     11          1           0        0.639789   -1.326353    1.318742
     12          1           0        1.872492    0.664689   -1.220326
     13          1           0        2.721941   -0.779044   -0.083093
     14          1           0        2.296586    0.718396    0.575648
 ---------------------------------------------------------------------

 SCF Done:  E(RB2PLYPD3) =  -157.557531241     A.U. after   11 cycles
 E2(B2PLYPD3) =    -0.2495455457D+00 E(B2PLYPD3) =    -0.15780707678642D+03

 The electronic state is 1-A.
 Alpha  occ. eigenvalues --  -10.61722 -10.61053 -10.60961 -10.56998  -0.93166
 Alpha  occ. eigenvalues --   -0.85967  -0.76357  -0.72772  -0.53547  -0.51014
 Alpha  occ. eigenvalues --   -0.48257  -0.45891  -0.44499  -0.41463  -0.40393
 Alpha  occ. eigenvalues --   -0.36672  -0.34995
 Alpha virt. eigenvalues --    0.05082   0.06850   0.07286   0.08430   0.10855
 Alpha virt. eigenvalues --    0.11753   0.12030   0.13379   0.14562   0.15877
 Alpha virt. eigenvalues --    0.16338   0.16698   0.18867   0.18958   0.20733

 Mulliken charges:
               1
     1  C   -0.311219
     2  C   -0.321056
     3  H    0.025666
     4  H    0.053018
     5  H    0.196885
     6  C   -0.627289
     7  H    0.044872
     8  H    0.314276
     9  C   -0.113567
    10  H    0.567546
    11  H    0.023519
    12  H    0.036412
    13  H    0.044203
    14  H    0.066735
 Sum of Mulliken charges =   0.00000

 Dipole moment (field-independent basis, Debye):
    X=             -0.0327    Y=              0.2313    Z=             -0.6323  Tot=              0.6741
 Quadrupole moment (field-independent basis, Debye-Ang):
   XX=            -29.0576   YY=            -28.8113   ZZ=            -27.7488
   XY=             -0.2376   XZ=              1.1947   YZ=              0.1325

 Normal termination of Gaussian 09 at Wed Aug 26 23:42:51 2020.
