 Gaussian 09, Revision D.01,
 Gaussian 09:  ES64L-G09RevD.01 24-Apr-2013

 --------------------
 #p B2PLYPD3/Def2QZVP
 --------------------

 ----------
 butane_opt
 ----------
 Symbolic Z-matrix:
 Charge =  0 Multiplicity = 1

                         Standard orientation:
 ---------------------------------------------------------------------
 Center     Atomic      Atomic             Coordinates (Angstroms)
 Number     Number       Type             X           Y           Z
 ---------------------------------------------------------------------
      1          6           0        1.941051    0.015840    0.165846
      2          6           0        0.610227   -0.465779   -0.268423
      3          1           0        2.740629   -0.764246    0.341835
      4          1           0        1.670087    0.716427    1.374792
      5          1           0        2.367443    0.667073   -0.451131
      6          6           0       -0.513284    0.602090   -0.052193
      7          1           0        0.568734   -0.762930    0.179697
      8          1           0        0.689686   -1.232607   -1.327565
      9          6           0       -1.997953   -0.160278    0.169419
     10          1           0       -0.261699    1.668604   -1.061816
     11          1           0       -0.378917    0.927863    0.620879
     12          1           0       -2.546963   -0.461545   -0.768143
     13          1           0       -2.631243    0.436240   -0.218119
     14          1           0       -2.458006   -1.146113    1.221682
 ---------------------------------------------------------------------

 SCF Done:  E(RB2PLYPD3) =  -156.988116318     A.U. after   12 cycles
 E2(B2PLYPD3) =    -0.2560043622D+00 E(B2PLYPD3) =    -0.15724412068025D+03

 The electronic state is 1-A.
 Alpha  occ. eigenvalues --  -10.63650 -10.63539 -10.62367 -10.60723  -0.96933
 Alpha  occ. eigenvalues --   -0.86033  -0.78006  -0.73582  -0.54980  -0.49824
 Alpha  occ. eigenvalues --   -0.47164  -0.44955  -0.43045  -0.40473  -0.37335
 Alpha  occ. eigenvalues --   -0.36238  -0.33330
 Alpha virt. eigenvalues --    0.02100   0.04726   0.06310   0.07523   0.09637
 Alpha virt. eigenvalues --    0.10786   0.11829   0.13465   0.14523   0.14820
 Alpha virt. eigenvalues --    0.15383   0.16220   0.18157   0.18779   0.19903

 Mulliken charges:
               1
     1  C   -0.095528
     2  C   -0.947171
     3  H    0.052095
     4  H   -0.018376
     5  H    0.072352
     6  C   -0.324694
     7  H    0.847469
     8  H    0.053549
     9  C   -0.273420
    10  H    0.013425
    11  H    0.372056
    12  H    0.052846
    13  H    0.127366
    14  H    0.068030
 Sum of Mulliken charges =   0.00000

 Dipole moment (field-independent basis, Debye):
    X=             -0.1466    Y=             -0.2328    Z=             -0.2836  Tot=              0.3951
 Quadrupole moment (field-independent basis, Debye-Ang):
   XX=            -27.2352   YY=            -29.6301   ZZ=            -29.0009
   XY=             -0.0707   XZ=              0.0596   YZ=             -1.1058

 Normal termination of Gaussian 09 at Wed Aug 26 09:46:08 2020.
