 Gaussian 09, Revision D.01,
 Gaussian 09:  ES64L-G09RevD.01 24-Apr-2013

 --------------------
 #p B2PLYPD3/Def2QZVP
 --------------------

 ----------
 butane_opt
 ----------
 Symbolic Z-matrix:
 Charge =  0 Multiplicity = 1

                         Standard orientation:
 ---------------------------------------------------------------------
 Center     Atomic      Atomic             Coordinates (Angstroms)
 Number     Number       Type             X           Y           Z
 ---------------------------------------------------------------------
      1          6           0       -2.026292    0.112051    0.079892
      2          6           0       -0.439109   -0.680906    0.002589
      3          1           0       -2.750633   -0.381107   -0.751448
      4          1           0       -1.724457    0.174843   -0.415757
      5          1           0       -2.842868    1.437330    1.333619
      6          6           0        0.594145    0.493674   -0.135052
      7          1           0       -0.312420   -1.459999   -0.892450
      8          1           0       -0.589053   -0.922251    0.509978
      9          6           0        1.915206   -0.054981    0.104802
     10          1           0        0.537081    0.982838    0.466746
     11          1           0        0.363750    1.370235   -1.318419
     12          1           0        2.086659   -0.987343    1.341659
     13          1           0        2.846708    0.844643   -0.055788
     14          1           0        2.121524   -0.278225   -0.531524
 ---------------------------------------------------------------------

 SCF Done:  E(RB2PLYPD3) =  -156.282923460     A.U. after   14 cycles
 E2(B2PLYPD3) =    -0.2662129707D+00 E(B2PLYPD3) =    -0.15654913643088D+03

 The electronic state is 1-A.
 Alpha  occ. eigenvalues --  -10.63735 -10.63173 -10.62751 -10.62421  -0.98261
 Alpha  occ. eigenvalues --   -0.92366  -0.82440  -0.77174  -0.59206  -0.50168
 Alpha  occ. eigenvalues --   -0.47577  -0.45924  -0.42433  -0.39712  -0.37004
 Alpha  occ. eigenvalues --   -0.35502  -0.30610
 Alpha virt. eigenvalues --   -0.04941   0.01788   0.03944   0.06152   0.08422
 Alpha virt. eigenvalues --    0.09155   0.10845   0.12051   0.14161   0.15363
 Alpha virt. eigenvalues --    0.15680   0.16640   0.17674   0.18529   0.19844

 Mulliken charges:
               1
     1  C   -0.980519
     2  C   -0.706233
     3  H    0.060432
     4  H    0.776464
     5  H    0.045702
     6  C   -0.242688
     7  H    0.094763
     8  H    0.668333
     9  C   -0.595492
    10  H    0.323927
    11  H    0.016634
    12  H    0.058806
    13  H    0.029364
    14  H    0.450508
 Sum of Mulliken charges =   0.00000

 Dipole moment (field-independent basis, Debye):
    X=              1.1530    Y=             -0.2104    Z=             -0.7650  Tot=              1.3996
 Quadrupole moment (field-independent basis, Debye-Ang):
   XX=            -32.7965   YY=            -28.9464   ZZ=            -27.6613
   XY=             -1.0654   XZ=              0.4355   YZ=              0.7817

 Normal termination of Gaussian 09 at Wed Aug 26 13:11:01 2020.
