 Gaussian 09, Revision D.01,
 Gaussian 09:  ES64L-G09RevD.01 24-Apr-2013

 --------------------
 #p B2PLYPD3/Def2QZVP
 --------------------

 ----------
 butane_opt
 ----------
 Symbolic Z-matrix:
 Charge =  0 Multiplicity = 1

                         Standard orientation:
 ---------------------------------------------------------------------
 Center     Atomic      Atomic             Coordinates (Angstroms)
 Number     Number       Type             X           Y           Z
 ---------------------------------------------------------------------
      1          6           0       -1.980395   -0.207707   -0.112800
      2          6           0       -0.463891    0.550021    0.003623
      3          1           0       -2.786256    0.609646   -0.118969
      4          1           0       -2.091512   -0.514950    0.697032
      5          1           0       -2.069721   -0.890275   -0.658785
      6          6           0        0.583939   -0.392590    0.239703
      7          1           0       -0.506423    1.446462    0.786546
      8          1           0       -0.240240    0.986601   -0.904629
      9          6           0        1.882668   -0.005515   -0.163311
     10          1           0        0.645168   -0.794044   -0.376815
     11          1           0        0.438771   -1.153217    1.480662
     12          1           0        1.296014    0.213637   -0.885018
     13          1           0        2.653007   -0.782490   -0.696169
     14          1           0        2.527266    1.213378    0.872852
 ---------------------------------------------------------------------

 SCF Done:  E(RB2PLYPD3) =  -157.576120620     A.U. after   12 cycles
 E2(B2PLYPD3) =    -0.2553752065D+00 E(B2PLYPD3) =    -0.15783149582616D+03

 The electronic state is 1-A.
 Alpha  occ. eigenvalues --  -10.65456 -10.62599 -10.61192 -10.57252  -1.04224
 Alpha  occ. eigenvalues --   -0.87178  -0.76907  -0.67314  -0.56949  -0.53505
 Alpha  occ. eigenvalues --   -0.51591  -0.49196  -0.43671  -0.42285  -0.38896
 Alpha  occ. eigenvalues --   -0.34710  -0.32495
 Alpha virt. eigenvalues --    0.01848   0.06082   0.06502   0.07821   0.09001
 Alpha virt. eigenvalues --    0.10569   0.11910   0.13149   0.14197   0.15209
 Alpha virt. eigenvalues --    0.15961   0.16517   0.18032   0.19413   0.20879

 Mulliken charges:
               1
     1  C   -0.254819
     2  C   -0.004898
     3  H    0.038669
     4  H    0.124741
     5  H    0.084978
     6  C   -0.533036
     7  H    0.034989
     8  H    0.049291
     9  C   -0.171785
    10  H    0.513309
    11  H   -0.016220
    12  H    0.098620
    13  H    0.067218
    14  H   -0.031056
 Sum of Mulliken charges =   0.00000

 Dipole moment (field-independent basis, Debye):
    X=             -0.7644    Y=             -0.6072    Z=             -1.0740  Tot=              1.4514
 Quadrupole moment (field-independent basis, Debye-Ang):
   XX=            -31.1064   YY=            -29.7293   ZZ=            -28.9513
   XY=             -1.8031   XZ=             -1.9258   YZ=              1.4851

 Normal termination of Gaussian 09 at Wed Aug 26 21:11:54 2020.
