 Gaussian 09, Revision D.01,
 Gaussian 09:  ES64L-G09RevD.01 24-Apr-2013

 --------------------
 #p B2PLYPD3/Def2QZVP
 --------------------

 ----------
 butane_opt
 ----------
 Symbolic Z-matrix:
 Charge =  0 Multiplicity = 1

                         Standard orientation:
 ---------------------------------------------------------------------
 Center     Atomic      Atomic             Coordinates (Angstroms)
 Number     Number       Type             X           Y           Z
 ---------------------------------------------------------------------
      1          6           0       -1.914621    0.074300   -0.074143
      2          6           0       -0.608822   -0.490344    0.015843
      3          1           0       -2.801974   -0.764945   -0.015323
      4          1           0       -1.893848    0.695323   -0.973301
      5          1           0       -1.894582    0.546893    0.862143
      6          6           0        0.510570    0.570328    0.136017
      7          1           0       -0.198726   -0.911408   -0.733020
      8          1           0       -0.413159   -1.075132    0.923738
      9          6           0        1.972775   -0.151823   -0.155958
     10          1           0        0.652009    1.497973    1.230731
     11          1           0        0.086304    0.994530   -0.512853
     12          1           0        2.561888   -1.184200    1.030157
     13          1           0        2.499263    0.422771   -0.668200
     14          1           0        1.643408   -0.236577   -0.674630
 ---------------------------------------------------------------------

 SCF Done:  E(RB2PLYPD3) =  -157.379523969     A.U. after   12 cycles
 E2(B2PLYPD3) =    -0.2556477698D+00 E(B2PLYPD3) =    -0.15763517173884D+03

 The electronic state is 1-A.
 Alpha  occ. eigenvalues --  -10.62583 -10.60957 -10.60404 -10.59087  -0.97970
 Alpha  occ. eigenvalues --   -0.91087  -0.77330  -0.68135  -0.57016  -0.51620
 Alpha  occ. eigenvalues --   -0.49160  -0.46897  -0.43645  -0.41576  -0.38815
 Alpha  occ. eigenvalues --   -0.34756  -0.33457
 Alpha virt. eigenvalues --    0.01225   0.05773   0.07368   0.07498   0.09477
 Alpha virt. eigenvalues --    0.10808   0.12311   0.13030   0.14625   0.15609
 Alpha virt. eigenvalues --    0.15980   0.16340   0.17691   0.19498   0.20035

 Mulliken charges:
               1
     1  C   -0.160276
     2  C   -0.116440
     3  H    0.040838
     4  H    0.053230
     5  H    0.080189
     6  C   -0.174832
     7  H    0.088628
     8  H    0.044338
     9  C   -0.800967
    10  H   -0.013518
    11  H    0.160172
    12  H    0.067913
    13  H    0.065017
    14  H    0.665708
 Sum of Mulliken charges =   0.00000

 Dipole moment (field-independent basis, Debye):
    X=             -0.2121    Y=             -0.3188    Z=             -0.7219  Tot=              0.8172
 Quadrupole moment (field-independent basis, Debye-Ang):
   XX=            -29.9304   YY=            -30.3490   ZZ=            -27.4311
   XY=             -0.1110   XZ=             -0.3184   YZ=             -1.5619

 Normal termination of Gaussian 09 at Wed Aug 26 10:30:15 2020.
