 Gaussian 09, Revision D.01,
 Gaussian 09:  ES64L-G09RevD.01 24-Apr-2013

 --------------------
 #p B2PLYPD3/Def2QZVP
 --------------------

 ----------
 butane_opt
 ----------
 Symbolic Z-matrix:
 Charge =  0 Multiplicity = 1

                         Standard orientation:
 ---------------------------------------------------------------------
 Center     Atomic      Atomic             Coordinates (Angstroms)
 Number     Number       Type             X           Y           Z
 ---------------------------------------------------------------------
      1          6           0        1.958044    0.046757   -0.170782
      2          6           0        0.514514   -0.318273    0.386048
      3          1           0        2.898812   -0.997366   -0.631234
      4          1           0        2.315222    1.140274    0.520354
      5          1           0        1.623257    0.163398   -0.931637
      6          6           0       -0.558854    0.485837   -0.021461
      7          1           0        0.713970   -0.736795    1.434636
      8          1           0        0.321867   -1.190933   -0.257753
      9          6           0       -1.926088   -0.184423   -0.098522
     10          1           0       -0.334152    0.958795   -1.178698
     11          1           0       -0.469200    1.462865    0.799682
     12          1           0       -2.135931   -1.078041   -0.763691
     13          1           0       -2.658198    0.553540   -0.244107
     14          1           0       -2.201344   -0.455121    0.680755
 ---------------------------------------------------------------------

 SCF Done:  E(RB2PLYPD3) =  -157.839178998     A.U. after   11 cycles
 E2(B2PLYPD3) =    -0.2533807421D+00 E(B2PLYPD3) =    -0.15809255974004D+03

 The electronic state is 1-A.
 Alpha  occ. eigenvalues --  -10.64707 -10.63076 -10.61278 -10.58212  -0.93947
 Alpha  occ. eigenvalues --   -0.85648  -0.75745  -0.64776  -0.54792  -0.51267
 Alpha  occ. eigenvalues --   -0.48405  -0.47401  -0.42492  -0.41277  -0.39045
 Alpha  occ. eigenvalues --   -0.35513  -0.33837
 Alpha virt. eigenvalues --    0.03598   0.05932   0.07057   0.07599   0.09673
 Alpha virt. eigenvalues --    0.10689   0.12087   0.13257   0.14128   0.15101
 Alpha virt. eigenvalues --    0.15370   0.16592   0.18339   0.19627   0.20392

 Mulliken charges:
               1
     1  C   -0.326613
     2  C   -0.047818
     3  H    0.024708
     4  H    0.038982
     5  H    0.220749
     6  C   -0.026785
     7  H    0.046868
     8  H    0.028985
     9  C   -0.166805
    10  H    0.021620
    11  H    0.004223
    12  H    0.033409
    13  H    0.041378
    14  H    0.107098
 Sum of Mulliken charges =   0.00000

 Dipole moment (field-independent basis, Debye):
    X=             -0.8657    Y=             -0.2476    Z=             -0.0603  Tot=              0.9025
 Quadrupole moment (field-independent basis, Debye-Ang):
   XX=            -30.6819   YY=            -29.7627   ZZ=            -28.6701
   XY=              0.2285   XZ=             -0.3851   YZ=              0.9593

 Normal termination of Gaussian 09 at Wed Aug 26 13:07:34 2020.
