 Gaussian 09, Revision D.01,
 Gaussian 09:  ES64L-G09RevD.01 24-Apr-2013

 --------------------
 #p B2PLYPD3/Def2QZVP
 --------------------

 ----------
 butane_opt
 ----------
 Symbolic Z-matrix:
 Charge =  0 Multiplicity = 1

                         Standard orientation:
 ---------------------------------------------------------------------
 Center     Atomic      Atomic             Coordinates (Angstroms)
 Number     Number       Type             X           Y           Z
 ---------------------------------------------------------------------
      1          6           0        2.007840   -0.153076    0.121949
      2          6           0        0.528041    0.532995   -0.085226
      3          1           0        2.625827    0.330526    0.201180
      4          1           0        2.420784   -0.541548   -0.717848
      5          1           0        1.855112   -1.031711    0.978510
      6          6           0       -0.602375   -0.397178   -0.266632
      7          1           0        0.730442    1.379542   -0.971878
      8          1           0        0.297559    1.153681    1.137689
      9          6           0       -1.981662    0.071302    0.129932
     10          1           0       -0.390853   -1.178940    0.481260
     11          1           0       -0.457704   -0.881297   -1.192568
     12          1           0       -1.822150    0.397646    1.159641
     13          1           0       -2.828363   -0.781534    0.169964
     14          1           0       -2.141722    0.829373   -0.646086
 ---------------------------------------------------------------------

 SCF Done:  E(RB2PLYPD3) =  -157.919310057     A.U. after   11 cycles
 E2(B2PLYPD3) =    -0.2502312438D+00 E(B2PLYPD3) =    -0.15816954130122D+03

 The electronic state is 1-A.
 Alpha  occ. eigenvalues --  -10.65800 -10.61357 -10.60163 -10.58288  -0.91550
 Alpha  occ. eigenvalues --   -0.85537  -0.75167  -0.64274  -0.54723  -0.50851
 Alpha  occ. eigenvalues --   -0.48807  -0.47149  -0.42855  -0.40980  -0.39623
 Alpha  occ. eigenvalues --   -0.35638  -0.35172
 Alpha virt. eigenvalues --    0.05243   0.06652   0.07655   0.07879   0.10276
 Alpha virt. eigenvalues --    0.12003   0.12203   0.13660   0.14311   0.14902
 Alpha virt. eigenvalues --    0.15754   0.16733   0.18912   0.19883   0.21038

 Mulliken charges:
               1
     1  C   -0.282911
     2  C   -0.044308
     3  H    0.209544
     4  H    0.029214
     5  H    0.035050
     6  C   -0.030476
     7  H    0.024355
     8  H   -0.011860
     9  C   -0.154508
    10  H    0.024194
    11  H    0.043360
    12  H    0.060543
    13  H    0.039253
    14  H    0.058551
 Sum of Mulliken charges =   0.00000

 Dipole moment (field-independent basis, Debye):
    X=              0.3009    Y=             -0.3061    Z=             -0.3541  Tot=              0.5565
 Quadrupole moment (field-independent basis, Debye-Ang):
   XX=            -28.6271   YY=            -30.2218   ZZ=            -28.3946
   XY=              1.0156   XZ=             -0.9880   YZ=             -0.7897

 Normal termination of Gaussian 09 at Wed Aug 26 10:20:29 2020.
