 Gaussian 09, Revision D.01,
 Gaussian 09:  ES64L-G09RevD.01 24-Apr-2013

 --------------------
 #p B2PLYPD3/Def2QZVP
 --------------------

 ----------
 butane_opt
 ----------
 Symbolic Z-matrix:
 Charge =  0 Multiplicity = 1

                         Standard orientation:
 ---------------------------------------------------------------------
 Center     Atomic      Atomic             Coordinates (Angstroms)
 Number     Number       Type             X           Y           Z
 ---------------------------------------------------------------------
      1          6           0       -2.015849    0.120469   -0.145861
      2          6           0       -0.487476   -0.547295    0.024409
      3          1           0       -2.692147   -0.666009    0.740729
      4          1           0       -2.407810    1.476354   -1.227407
      5          1           0       -1.805872    0.307230    0.419876
      6          6           0        0.584132    0.385249    0.208278
      7          1           0       -0.237962   -0.976437   -0.659454
      8          1           0       -0.243201   -1.196848    0.800174
      9          6           0        1.876853   -0.034025   -0.200225
     10          1           0        0.672838    1.333547    1.519378
     11          1           0        0.372511    0.693497   -0.289435
     12          1           0        1.993044   -0.717175    0.650649
     13          1           0        2.624640    0.868613   -0.037667
     14          1           0        1.978002   -0.669155   -1.236446
 ---------------------------------------------------------------------

 SCF Done:  E(RB2PLYPD3) =  -156.912027098     A.U. after   13 cycles
 E2(B2PLYPD3) =    -0.2606237306D+00 E(B2PLYPD3) =    -0.15717265082846D+03

 The electronic state is 1-A.
 Alpha  occ. eigenvalues --  -10.64309 -10.62426 -10.59695 -10.59450  -1.01096
 Alpha  occ. eigenvalues --   -0.89889  -0.78723  -0.73608  -0.57113  -0.49340
 Alpha  occ. eigenvalues --   -0.48764  -0.45838  -0.41402  -0.39098  -0.38065
 Alpha  occ. eigenvalues --   -0.35501  -0.35104
 Alpha virt. eigenvalues --   -0.03041   0.03203   0.05626   0.06550   0.10260
 Alpha virt. eigenvalues --    0.11298   0.11572   0.12123   0.13015   0.14942
 Alpha virt. eigenvalues --    0.15826   0.16304   0.17454   0.18866   0.20204

 Mulliken charges:
               1
     1  C   -0.896027
     2  C   -0.127743
     3  H    0.055993
     4  H    0.077308
     5  H    0.733385
     6  C   -0.809512
     7  H    0.179160
     8  H    0.041577
     9  C   -0.120287
    10  H   -0.028375
    11  H    0.726869
    12  H    0.049530
    13  H    0.066695
    14  H    0.051428
 Sum of Mulliken charges =   0.00000

 Dipole moment (field-independent basis, Debye):
    X=              0.5355    Y=              0.1080    Z=             -0.1144  Tot=              0.5581
 Quadrupole moment (field-independent basis, Debye-Ang):
   XX=            -32.1811   YY=            -28.8824   ZZ=            -28.1657
   XY=             -1.2168   XZ=             -1.1891   YZ=             -1.5680

 Normal termination of Gaussian 09 at Wed Aug 26 13:15:11 2020.
