 Gaussian 09, Revision D.01,
 Gaussian 09:  ES64L-G09RevD.01 24-Apr-2013

 --------------------
 #p B2PLYPD3/Def2QZVP
 --------------------

 ----------
 butane_opt
 ----------
 Symbolic Z-matrix:
 Charge =  0 Multiplicity = 1

                         Standard orientation:
 ---------------------------------------------------------------------
 Center     Atomic      Atomic             Coordinates (Angstroms)
 Number     Number       Type             X           Y           Z
 ---------------------------------------------------------------------
      1          6           0        1.945609   -0.130331    0.054844
      2          6           0        0.552259    0.528948   -0.079133
      3          1           0        2.720625    0.616855    0.129304
      4          1           0        2.191159   -0.773130   -0.804822
      5          1           0        2.000341   -0.726542    0.918317
      6          6           0       -0.570245   -0.521358   -0.039684
      7          1           0        0.416629    1.186427   -1.000699
      8          1           0        0.368936    1.142081    0.719925
      9          6           0       -1.899235    0.128654    0.042525
     10          1           0       -0.524675   -1.133176    0.825044
     11          1           0       -0.482652   -1.130696   -0.891853
     12          1           0       -1.963693    0.874686    1.011537
     13          1           0       -2.721054   -0.700179    0.013561
     14          1           0       -2.175943    0.608197   -0.791624
 ---------------------------------------------------------------------

 SCF Done:  E(RB2PLYPD3) =  -158.099615860     A.U. after   11 cycles
 E2(B2PLYPD3) =    -0.2460195564D+00 E(B2PLYPD3) =    -0.15834563541659D+03

 The electronic state is 1-A.
 Alpha  occ. eigenvalues --  -10.60389 -10.60112 -10.59340 -10.59096  -0.91564
 Alpha  occ. eigenvalues --   -0.83330  -0.72720  -0.67325  -0.54978  -0.49322
 Alpha  occ. eigenvalues --   -0.48419  -0.47445  -0.42848  -0.41127  -0.39708
 Alpha  occ. eigenvalues --   -0.38706  -0.36469
 Alpha virt. eigenvalues --    0.05789   0.06837   0.08327   0.08768   0.10944
 Alpha virt. eigenvalues --    0.11954   0.12908   0.14117   0.14578   0.15359
 Alpha virt. eigenvalues --    0.15806   0.16482   0.19620   0.20090   0.21950

 Mulliken charges:
               1
     1  C   -0.139025
     2  C   -0.070741
     3  H    0.040688
     4  H    0.037536
     5  H    0.049508
     6  C   -0.028445
     7  H    0.025256
     8  H    0.047432
     9  C   -0.146004
    10  H    0.041543
    11  H    0.035227
    12  H    0.031135
    13  H    0.026756
    14  H    0.049132
 Sum of Mulliken charges =   0.00000

 Dipole moment (field-independent basis, Debye):
    X=              0.0710    Y=             -0.0560    Z=             -0.0850  Tot=              0.1241
 Quadrupole moment (field-independent basis, Debye-Ang):
   XX=            -29.9987   YY=            -28.7667   ZZ=            -27.9869
   XY=              0.2106   XZ=              0.6834   YZ=              0.1966

 Normal termination of Gaussian 09 at Wed Aug 26 23:15:10 2020.
