 Gaussian 09, Revision D.01,
 Gaussian 09:  ES64L-G09RevD.01 24-Apr-2013

 --------------------
 #p B2PLYPD3/Def2QZVP
 --------------------

 ----------
 butane_opt
 ----------
 Symbolic Z-matrix:
 Charge =  0 Multiplicity = 1

                         Standard orientation:
 ---------------------------------------------------------------------
 Center     Atomic      Atomic             Coordinates (Angstroms)
 Number     Number       Type             X           Y           Z
 ---------------------------------------------------------------------
      1          6           0        2.038517    0.116619   -0.093292
      2          6           0        0.571010   -0.560714    0.138359
      3          1           0        2.633509   -0.329552    0.069544
      4          1           0        2.196931    0.231786    0.448657
      5          1           0        2.251771    1.158598   -1.173739
      6          6           0       -0.659525    0.516233    0.151997
      7          1           0        0.455926   -1.292334    1.124779
      8          1           0        0.443984   -1.194222   -0.760430
      9          6           0       -1.911584   -0.081095   -0.169829
     10          1           0       -0.404444    0.825302   -0.347086
     11          1           0       -0.751874    1.725490    1.316663
     12          1           0       -1.808235   -0.756101   -1.015120
     13          1           0       -2.688443    0.515285   -0.599954
     14          1           0       -2.559626   -0.830508    0.773277
 ---------------------------------------------------------------------

 SCF Done:  E(RB2PLYPD3) =  -156.831255585     A.U. after   12 cycles
 E2(B2PLYPD3) =    -0.2548679914D+00 E(B2PLYPD3) =    -0.15708612357633D+03

 The electronic state is 1-A.
 Alpha  occ. eigenvalues --  -10.65014 -10.62482 -10.62237 -10.58866  -1.01003
 Alpha  occ. eigenvalues --   -0.94058  -0.77407  -0.71394  -0.54904  -0.50355
 Alpha  occ. eigenvalues --   -0.48334  -0.47051  -0.43243  -0.40423  -0.38882
 Alpha  occ. eigenvalues --   -0.36365  -0.33766
 Alpha virt. eigenvalues --    0.02644   0.04581   0.05606   0.07279   0.09830
 Alpha virt. eigenvalues --    0.10804   0.11595   0.12772   0.14323   0.15111
 Alpha virt. eigenvalues --    0.15794   0.16641   0.17915   0.19134   0.20939

 Mulliken charges:
               1
     1  C   -0.928225
     2  C    0.028854
     3  H    0.179096
     4  H    0.632271
     5  H    0.053631
     6  C   -0.716185
     7  H    0.028599
     8  H    0.054977
     9  C   -0.064466
    10  H    0.651290
    11  H   -0.030385
    12  H    0.043229
    13  H    0.048298
    14  H    0.019014
 Sum of Mulliken charges =   0.00000

 Dipole moment (field-independent basis, Debye):
    X=              0.3831    Y=             -0.4558    Z=             -0.6523  Tot=              0.8832
 Quadrupole moment (field-independent basis, Debye-Ang):
   XX=            -27.4871   YY=            -29.8986   ZZ=            -28.4175
   XY=              0.0462   XZ=              2.0673   YZ=             -1.3994

 Normal termination of Gaussian 09 at Wed Aug 26 18:43:59 2020.
