 Gaussian 09, Revision D.01,
 Gaussian 09:  ES64L-G09RevD.01 24-Apr-2013

 --------------------
 #p B2PLYPD3/Def2QZVP
 --------------------

 ----------
 butane_opt
 ----------
 Symbolic Z-matrix:
 Charge =  0 Multiplicity = 1

                         Standard orientation:
 ---------------------------------------------------------------------
 Center     Atomic      Atomic             Coordinates (Angstroms)
 Number     Number       Type             X           Y           Z
 ---------------------------------------------------------------------
      1          6           0        1.991485    0.117932    0.108825
      2          6           0        0.516166   -0.487808   -0.036226
      3          1           0        2.633899   -0.644024   -0.563194
      4          1           0        2.231071    1.207465    1.164765
      5          1           0        1.775252    0.366818   -0.453181
      6          6           0       -0.572269    0.402260   -0.213039
      7          1           0        0.322000   -0.835608    0.780132
      8          1           0        0.089735   -1.376932   -0.929869
      9          6           0       -1.843244   -0.055944    0.159071
     10          1           0       -0.504378    1.194981   -1.349378
     11          1           0       -0.456543    0.838107    0.508172
     12          1           0       -2.174727   -0.626442   -0.666440
     13          1           0       -2.677713    0.833457    0.038209
     14          1           0       -1.791421   -0.816465    1.358998
 ---------------------------------------------------------------------

 SCF Done:  E(RB2PLYPD3) =  -157.402895397     A.U. after   12 cycles
 E2(B2PLYPD3) =    -0.2576993156D+00 E(B2PLYPD3) =    -0.15766059471213D+03

 The electronic state is 1-A.
 Alpha  occ. eigenvalues --  -10.63858 -10.61416 -10.61203 -10.59109  -0.98555
 Alpha  occ. eigenvalues --   -0.89977  -0.76447  -0.67287  -0.56915  -0.49161
 Alpha  occ. eigenvalues --   -0.47832  -0.45174  -0.42427  -0.40351  -0.38055
 Alpha  occ. eigenvalues --   -0.36396  -0.33816
 Alpha virt. eigenvalues --    0.02025   0.04562   0.05106   0.07462   0.10310
 Alpha virt. eigenvalues --    0.10908   0.11323   0.12335   0.13005   0.14210
 Alpha virt. eigenvalues --    0.15505   0.16515   0.17255   0.19506   0.21271

 Mulliken charges:
               1
     1  C   -0.854473
     2  C   -0.088792
     3  H    0.090918
     4  H    0.077954
     5  H    0.671310
     6  C   -0.212913
     7  H    0.118089
     8  H   -0.005129
     9  C   -0.145065
    10  H   -0.002311
    11  H    0.226263
    12  H    0.040178
    13  H    0.050170
    14  H    0.033800
 Sum of Mulliken charges =   0.00000

 Dipole moment (field-independent basis, Debye):
    X=             -0.2817    Y=              0.5245    Z=             -0.0024  Tot=              0.5953
 Quadrupole moment (field-independent basis, Debye-Ang):
   XX=            -31.1975   YY=            -30.1404   ZZ=            -28.0597
   XY=              0.4611   XZ=              0.0709   YZ=              0.7133

 Normal termination of Gaussian 09 at Wed Aug 26 12:08:04 2020.
