 Gaussian 09, Revision D.01,
 Gaussian 09:  ES64L-G09RevD.01 24-Apr-2013

 --------------------
 #p B2PLYPD3/Def2QZVP
 --------------------

 ----------
 butane_opt
 ----------
 Symbolic Z-matrix:
 Charge =  0 Multiplicity = 1

                         Standard orientation:
 ---------------------------------------------------------------------
 Center     Atomic      Atomic             Coordinates (Angstroms)
 Number     Number       Type             X           Y           Z
 ---------------------------------------------------------------------
      1          6           0        1.907051   -0.176278   -0.148356
      2          6           0        0.566566    0.446427   -0.027067
      3          1           0        2.593864    0.506749   -0.441863
      4          1           0        1.846119   -1.348374   -0.727957
      5          1           0        2.046019   -0.189615    0.662976
      6          6           0       -0.460473   -0.257970    0.513737
      7          1           0        0.039996    0.595310   -1.208783
      8          1           0        0.984283    1.529230    0.482949
      9          6           0       -1.953842    0.060643   -0.210690
     10          1           0       -0.523815   -0.509104    1.705603
     11          1           0       -0.253137   -1.259077    0.030322
     12          1           0       -2.558374    1.256558    0.460911
     13          1           0       -2.899406   -1.182171   -0.554972
     14          1           0       -1.631356    0.163564   -1.174930
 ---------------------------------------------------------------------

 SCF Done:  E(RB2PLYPD3) =  -157.771770598     A.U. after   12 cycles
 E2(B2PLYPD3) =    -0.2589793525D+00 E(B2PLYPD3) =    -0.15803074995066D+03

 The electronic state is 1-A.
 Alpha  occ. eigenvalues --  -10.68552 -10.64149 -10.63753 -10.58727  -0.95602
 Alpha  occ. eigenvalues --   -0.84993  -0.73154  -0.63527  -0.54796  -0.52236
 Alpha  occ. eigenvalues --   -0.48894  -0.45662  -0.42514  -0.40336  -0.37095
 Alpha  occ. eigenvalues --   -0.34387  -0.33835
 Alpha virt. eigenvalues --    0.01776   0.05327   0.06364   0.07234   0.07561
 Alpha virt. eigenvalues --    0.09928   0.11743   0.12648   0.13435   0.14745
 Alpha virt. eigenvalues --    0.15004   0.16182   0.17209   0.18841   0.20018

 Mulliken charges:
               1
     1  C   -0.283280
     2  C   -0.023594
     3  H    0.060036
     4  H    0.024104
     5  H    0.214189
     6  C   -0.067122
     7  H    0.004331
     8  H    0.008804
     9  C   -0.186142
    10  H    0.036828
    11  H    0.057801
    12  H    0.042079
    13  H    0.005973
    14  H    0.105994
 Sum of Mulliken charges =   0.00000

 Dipole moment (field-independent basis, Debye):
    X=              0.9608    Y=              0.0390    Z=              0.1342  Tot=              0.9709
 Quadrupole moment (field-independent basis, Debye-Ang):
   XX=            -32.2767   YY=            -30.2237   ZZ=            -29.3814
   XY=              0.5849   XZ=              0.9783   YZ=              1.1634

 Normal termination of Gaussian 09 at Wed Aug 26 19:11:44 2020.
