 Gaussian 09, Revision D.01,
 Gaussian 09:  ES64L-G09RevD.01 24-Apr-2013

 --------------------
 #p B2PLYPD3/Def2QZVP
 --------------------

 ----------
 butane_opt
 ----------
 Symbolic Z-matrix:
 Charge =  0 Multiplicity = 1

                         Standard orientation:
 ---------------------------------------------------------------------
 Center     Atomic      Atomic             Coordinates (Angstroms)
 Number     Number       Type             X           Y           Z
 ---------------------------------------------------------------------
      1          6           0       -1.871449    0.132322    0.117547
      2          6           0       -0.546323   -0.451731   -0.266039
      3          1           0       -2.823233   -0.823852    0.450955
      4          1           0       -2.318695    0.582288   -0.547376
      5          1           0       -1.648692    0.954781    1.275355
      6          6           0        0.592576    0.509863   -0.164761
      7          1           0       -0.432159   -1.225111   -1.242592
      8          1           0       -0.533077   -1.153455    0.515586
      9          6           0        1.833367   -0.172699    0.176927
     10          1           0        0.176423    1.092564    0.678219
     11          1           0        0.626969    1.343307   -1.163215
     12          1           0        1.868754   -0.964333    1.084464
     13          1           0        2.644689    0.410450    0.286024
     14          1           0        2.389994   -0.323163   -0.519466
 ---------------------------------------------------------------------

 SCF Done:  E(RB2PLYPD3) =  -157.885367702     A.U. after   11 cycles
 E2(B2PLYPD3) =    -0.2528928452D+00 E(B2PLYPD3) =    -0.15813826054672D+03

 The electronic state is 1-A.
 Alpha  occ. eigenvalues --  -10.64095 -10.62604 -10.61408 -10.57940  -0.93280
 Alpha  occ. eigenvalues --   -0.86364  -0.75331  -0.66348  -0.53874  -0.53271
 Alpha  occ. eigenvalues --   -0.48511  -0.44875  -0.41261  -0.40773  -0.37327
 Alpha  occ. eigenvalues --   -0.36129  -0.34506
 Alpha virt. eigenvalues --    0.04637   0.06043   0.06913   0.07119   0.09953
 Alpha virt. eigenvalues --    0.11384   0.12208   0.13485   0.14363   0.15319
 Alpha virt. eigenvalues --    0.15969   0.16516   0.18402   0.19615   0.21650

 Mulliken charges:
               1
     1  C   -0.193299
     2  C    0.003528
     3  H    0.012820
     4  H    0.102027
     5  H    0.015066
     6  C   -0.048178
     7  H    0.009717
     8  H    0.055865
     9  C   -0.170605
    10  H    0.049088
    11  H    0.005954
    12  H    0.045923
    13  H    0.042202
    14  H    0.069893
 Sum of Mulliken charges =   0.00000

 Dipole moment (field-independent basis, Debye):
    X=              0.6575    Y=              0.0502    Z=             -0.2043  Tot=              0.6904
 Quadrupole moment (field-independent basis, Debye-Ang):
   XX=            -28.4458   YY=            -30.0103   ZZ=            -29.2129
   XY=              0.0808   XZ=              0.0689   YZ=             -0.8655

 Normal termination of Gaussian 09 at Wed Aug 26 23:09:29 2020.
