 Gaussian 09, Revision D.01,
 Gaussian 09:  ES64L-G09RevD.01 24-Apr-2013

 --------------------
 #p B2PLYPD3/Def2QZVP
 --------------------

 ----------
 butane_opt
 ----------
 Symbolic Z-matrix:
 Charge =  0 Multiplicity = 1

                         Standard orientation:
 ---------------------------------------------------------------------
 Center     Atomic      Atomic             Coordinates (Angstroms)
 Number     Number       Type             X           Y           Z
 ---------------------------------------------------------------------
      1          6           0        1.957053   -0.172141   -0.146782
      2          6           0        0.484249    0.634305    0.091145
      3          1           0        2.769445    0.504349   -0.383445
      4          1           0        1.938630   -0.829007   -0.917201
      5          1           0        2.454009   -0.760317    0.984177
      6          6           0       -0.532100   -0.497909    0.164864
      7          1           0        0.143790    0.807176   -0.602393
      8          1           0        0.305050    1.648790    1.151942
      9          6           0       -1.922352    0.041968   -0.137075
     10          1           0       -0.458862   -0.967615    1.017741
     11          1           0       -0.699877   -1.040579   -0.551305
     12          1           0       -2.052599    0.512735    0.554017
     13          1           0       -2.565545   -0.694773    0.153507
     14          1           0       -1.755139    0.781900   -1.239950
 ---------------------------------------------------------------------

 SCF Done:  E(RB2PLYPD3) =  -157.718976951     A.U. after   11 cycles
 E2(B2PLYPD3) =    -0.2521287772D+00 E(B2PLYPD3) =    -0.15797110572817D+03

 The electronic state is 1-A.
 Alpha  occ. eigenvalues --  -10.62942 -10.61906 -10.58518 -10.56537  -0.95437
 Alpha  occ. eigenvalues --   -0.84214  -0.75433  -0.70824  -0.58334  -0.50164
 Alpha  occ. eigenvalues --   -0.48273  -0.45700  -0.41610  -0.40589  -0.39781
 Alpha  occ. eigenvalues --   -0.37180  -0.34031
 Alpha virt. eigenvalues --    0.04585   0.06104   0.06707   0.08531   0.10563
 Alpha virt. eigenvalues --    0.11466   0.12041   0.13581   0.14521   0.15011
 Alpha virt. eigenvalues --    0.15475   0.16383   0.18446   0.19046   0.21199

 Mulliken charges:
               1
     1  C   -0.151307
     2  C   -0.378729
     3  H    0.046599
     4  H    0.082502
     5  H    0.016349
     6  C   -0.103787
     7  H    0.348696
     8  H    0.025609
     9  C   -0.276430
    10  H    0.041830
    11  H    0.104798
    12  H    0.154474
    13  H    0.043251
    14  H    0.046144
 Sum of Mulliken charges =   0.00000

 Dipole moment (field-independent basis, Debye):
    X=             -0.3240    Y=             -0.2518    Z=             -0.1628  Tot=              0.4415
 Quadrupole moment (field-independent basis, Debye-Ang):
   XX=            -29.9156   YY=            -29.4117   ZZ=            -27.6789
   XY=              0.4984   XZ=             -1.4841   YZ=              0.0327

 Normal termination of Gaussian 09 at Wed Aug 26 22:25:50 2020.
