 Gaussian 09, Revision D.01,
 Gaussian 09:  ES64L-G09RevD.01 24-Apr-2013

 --------------------
 #p B2PLYPD3/Def2QZVP
 --------------------

 ----------
 butane_opt
 ----------
 Symbolic Z-matrix:
 Charge =  0 Multiplicity = 1

                         Standard orientation:
 ---------------------------------------------------------------------
 Center     Atomic      Atomic             Coordinates (Angstroms)
 Number     Number       Type             X           Y           Z
 ---------------------------------------------------------------------
      1          6           0        1.951678    0.040474   -0.228792
      2          6           0        0.595569   -0.413690    0.318369
      3          1           0        2.707736   -0.780826   -0.324912
      4          1           0        2.172077    0.733635    0.499220
      5          1           0        1.538360    0.548761   -1.198416
      6          6           0       -0.505213    0.580109    0.022826
      7          1           0        0.846789   -1.070544    1.521054
      8          1           0        0.426848   -0.858956   -0.371651
      9          6           0       -2.042804   -0.193602   -0.133325
     10          1           0       -0.031252    0.749582   -0.644250
     11          1           0       -0.437989    1.678545    0.881175
     12          1           0       -2.364209   -1.302772   -1.049336
     13          1           0       -2.817793    0.675513   -0.032842
     14          1           0       -2.035949   -0.452681    0.845486
 ---------------------------------------------------------------------

 SCF Done:  E(RB2PLYPD3) =  -157.754650392     A.U. after   11 cycles
 E2(B2PLYPD3) =    -0.2553043686D+00 E(B2PLYPD3) =    -0.15800995476030D+03

 The electronic state is 1-A.
 Alpha  occ. eigenvalues --  -10.65293 -10.62877 -10.60868 -10.60391  -0.96482
 Alpha  occ. eigenvalues --   -0.81838  -0.74975  -0.67851  -0.54720  -0.49785
 Alpha  occ. eigenvalues --   -0.46767  -0.45126  -0.42205  -0.40948  -0.38557
 Alpha  occ. eigenvalues --   -0.37086  -0.34343
 Alpha virt. eigenvalues --    0.03640   0.05143   0.07438   0.07519   0.10743
 Alpha virt. eigenvalues --    0.11194   0.11739   0.13184   0.13707   0.14675
 Alpha virt. eigenvalues --    0.15022   0.15814   0.17845   0.18438   0.19796

 Mulliken charges:
               1
     1  C   -0.151242
     2  C   -0.322700
     3  H    0.064218
     4  H    0.071595
     5  H    0.031983
     6  C   -0.237819
     7  H    0.003842
     8  H    0.282211
     9  C   -0.215346
    10  H    0.242907
    11  H    0.002979
    12  H    0.060139
    13  H    0.056278
    14  H    0.110956
 Sum of Mulliken charges =   0.00000

 Dipole moment (field-independent basis, Debye):
    X=              0.1069    Y=             -0.2420    Z=             -0.1719  Tot=              0.3155
 Quadrupole moment (field-independent basis, Debye-Ang):
   XX=            -29.6117   YY=            -29.8154   ZZ=            -29.1710
   XY=             -0.4951   XZ=              0.0217   YZ=              1.2877

 Normal termination of Gaussian 09 at Wed Aug 26 18:22:18 2020.
