 Gaussian 09, Revision D.01,
 Gaussian 09:  ES64L-G09RevD.01 24-Apr-2013

 --------------------
 #p B2PLYPD3/Def2QZVP
 --------------------

 ----------
 butane_opt
 ----------
 Symbolic Z-matrix:
 Charge =  0 Multiplicity = 1

                         Standard orientation:
 ---------------------------------------------------------------------
 Center     Atomic      Atomic             Coordinates (Angstroms)
 Number     Number       Type             X           Y           Z
 ---------------------------------------------------------------------
      1          6           0       -1.921920   -0.144101   -0.145056
      2          6           0       -0.507166    0.562213    0.194093
      3          1           0       -2.705909    0.600457   -0.626537
      4          1           0       -2.349941   -0.919240    0.858646
      5          1           0       -1.874630   -0.859312   -1.069730
      6          6           0        0.622515   -0.493024    0.155490
      7          1           0       -0.580177    1.512208    1.217783
      8          1           0       -0.383521    0.825189   -0.308598
      9          6           0        1.857948    0.144682   -0.198815
     10          1           0        0.106561   -0.865061   -0.576028
     11          1           0        0.710589   -1.321284    1.097279
     12          1           0        1.864334    0.894639   -1.112773
     13          1           0        2.918016   -0.797565   -0.160810
     14          1           0        1.986421    0.511353    0.646496
 ---------------------------------------------------------------------

 SCF Done:  E(RB2PLYPD3) =  -157.388909138     A.U. after   11 cycles
 E2(B2PLYPD3) =    -0.2534994361D+00 E(B2PLYPD3) =    -0.15764240857368D+03

 The electronic state is 1-A.
 Alpha  occ. eigenvalues --  -10.65281 -10.62126 -10.61922 -10.61057  -0.97366
 Alpha  occ. eigenvalues --   -0.85287  -0.73327  -0.70089  -0.55059  -0.50676
 Alpha  occ. eigenvalues --   -0.46925  -0.46536  -0.42148  -0.41167  -0.38835
 Alpha  occ. eigenvalues --   -0.37398  -0.34395
 Alpha virt. eigenvalues --    0.04442   0.05608   0.07108   0.07689   0.10394
 Alpha virt. eigenvalues --    0.11335   0.11769   0.12322   0.14421   0.14637
 Alpha virt. eigenvalues --    0.15418   0.16116   0.18595   0.18877   0.20971

 Mulliken charges:
               1
     1  C   -0.126755
     2  C   -0.905720
     3  H    0.051175
     4  H    0.044251
     5  H    0.036342
     6  C   -0.021748
     7  H    0.028968
     8  H    0.785474
     9  C   -0.200857
    10  H    0.101605
    11  H    0.029665
    12  H    0.059150
    13  H    0.002785
    14  H    0.115666
 Sum of Mulliken charges =   0.00000

 Dipole moment (field-independent basis, Debye):
    X=             -0.1685    Y=              0.1617    Z=             -0.4339  Tot=              0.4928
 Quadrupole moment (field-independent basis, Debye-Ang):
   XX=            -31.5709   YY=            -29.4618   ZZ=            -28.2595
   XY=              0.4108   XZ=              1.4688   YZ=             -1.1250

 Normal termination of Gaussian 09 at Wed Aug 26 21:10:16 2020.
