 Gaussian 09, Revision D.01,
 Gaussian 09:  ES64L-G09RevD.01 24-Apr-2013

 --------------------
 #p B2PLYPD3/Def2QZVP
 --------------------

 ----------
 butane_opt
 ----------
 Symbolic Z-matrix:
 Charge =  0 Multiplicity = 1

                         Standard orientation:
 ---------------------------------------------------------------------
 Center     Atomic      Atomic             Coordinates (Angstroms)
 Number     Number       Type             X           Y           Z
 ---------------------------------------------------------------------
      1          6           0       -1.901185    0.141940   -0.000472
      2          6           0       -0.538779   -0.574252    0.007089
      3          1           0       -2.655759   -0.606497   -0.188489
      4          1           0       -2.034192    1.043491   -0.916062
      5          1           0       -2.230063    0.585729    0.792570
      6          6           0        0.531851    0.469507    0.135529
      7          1           0       -0.440720   -1.138128   -0.926186
      8          1           0       -0.390849   -1.129377    0.810578
      9          6           0        1.912814   -0.107914   -0.076416
     10          1           0        0.633319    1.143554    1.134836
     11          1           0        0.404826    1.150306   -0.620360
     12          1           0        2.326232   -0.941511    0.870084
     13          1           0        2.707346    0.810176   -0.459880
     14          1           0        1.651657   -0.493428   -0.891469
 ---------------------------------------------------------------------

 SCF Done:  E(RB2PLYPD3) =  -157.994739704     A.U. after   11 cycles
 E2(B2PLYPD3) =    -0.2489637822D+00 E(B2PLYPD3) =    -0.15824370348594D+03

 The electronic state is 1-A.
 Alpha  occ. eigenvalues --  -10.61702 -10.60434 -10.60429 -10.60092  -0.93003
 Alpha  occ. eigenvalues --   -0.83879  -0.73192  -0.66756  -0.55854  -0.50398
 Alpha  occ. eigenvalues --   -0.47691  -0.46701  -0.43367  -0.40029  -0.38876
 Alpha  occ. eigenvalues --   -0.37482  -0.36117
 Alpha virt. eigenvalues --    0.05240   0.06252   0.07927   0.08518   0.10747
 Alpha virt. eigenvalues --    0.11100   0.12401   0.13455   0.14326   0.15118
 Alpha virt. eigenvalues --    0.16080   0.16537   0.19059   0.19972   0.21139

 Mulliken charges:
               1
     1  C   -0.141083
     2  C   -0.045234
     3  H    0.036464
     4  H    0.006361
     5  H    0.062388
     6  C   -0.044695
     7  H    0.041340
     8  H    0.060091
     9  C   -0.206517
    10  H    0.011888
    11  H    0.058391
    12  H    0.033097
    13  H    0.028589
    14  H    0.098920
 Sum of Mulliken charges =   0.00000

 Dipole moment (field-independent basis, Debye):
    X=             -0.3862    Y=             -0.1983    Z=             -0.0581  Tot=              0.4380
 Quadrupole moment (field-independent basis, Debye-Ang):
   XX=            -31.1302   YY=            -28.9817   ZZ=            -28.2441
   XY=              0.5428   XZ=             -0.4817   YZ=             -0.5261

 Normal termination of Gaussian 09 at Wed Aug 26 13:32:17 2020.
