 Gaussian 09, Revision D.01,
 Gaussian 09:  ES64L-G09RevD.01 24-Apr-2013

 --------------------
 #p B2PLYPD3/Def2QZVP
 --------------------

 ----------
 butane_opt
 ----------
 Symbolic Z-matrix:
 Charge =  0 Multiplicity = 1

                         Standard orientation:
 ---------------------------------------------------------------------
 Center     Atomic      Atomic             Coordinates (Angstroms)
 Number     Number       Type             X           Y           Z
 ---------------------------------------------------------------------
      1          6           0        1.878466    0.108391   -0.186487
      2          6           0        0.624770   -0.541082    0.251699
      3          1           0        2.647609   -0.881466   -0.722335
      4          1           0        2.516911    0.930237    0.663785
      5          1           0        1.882087    0.804109   -1.157456
      6          6           0       -0.522545    0.603583    0.247756
      7          1           0        0.537958   -1.351704    1.349241
      8          1           0        0.411521   -1.100367   -0.431683
      9          6           0       -1.991744   -0.171084   -0.177131
     10          1           0       -0.499045    1.229909   -0.676874
     11          1           0       -0.447507    1.284882    1.155033
     12          1           0       -1.769498   -0.858596   -1.069683
     13          1           0       -2.749907    0.540241   -0.563826
     14          1           0       -2.463814   -0.596092    0.638779
 ---------------------------------------------------------------------

 SCF Done:  E(RB2PLYPD3) =  -157.956442578     A.U. after   11 cycles
 E2(B2PLYPD3) =    -0.2531119064D+00 E(B2PLYPD3) =    -0.15820955448481D+03

 The electronic state is 1-A.
 Alpha  occ. eigenvalues --  -10.66209 -10.63356 -10.62460 -10.61375  -0.90119
 Alpha  occ. eigenvalues --   -0.81070  -0.70869  -0.66895  -0.52685  -0.48211
 Alpha  occ. eigenvalues --   -0.47369  -0.45182  -0.42331  -0.41896  -0.38097
 Alpha  occ. eigenvalues --   -0.36804  -0.33225
 Alpha virt. eigenvalues --    0.04565   0.05999   0.06549   0.08229   0.10101
 Alpha virt. eigenvalues --    0.11068   0.11830   0.12460   0.14441   0.14984
 Alpha virt. eigenvalues --    0.15433   0.16775   0.18032   0.19080   0.19911

 Mulliken charges:
               1
     1  C   -0.167329
     2  C   -0.100588
     3  H    0.013636
     4  H    0.036706
     5  H    0.052955
     6  C   -0.095976
     7  H    0.022478
     8  H    0.135213
     9  C   -0.145270
    10  H    0.046262
    11  H    0.056080
    12  H    0.046538
    13  H    0.037125
    14  H    0.062168
 Sum of Mulliken charges =   0.00000

 Dipole moment (field-independent basis, Debye):
    X=             -0.5168    Y=              0.1289    Z=             -0.3822  Tot=              0.6556
 Quadrupole moment (field-independent basis, Debye-Ang):
   XX=            -31.8616   YY=            -29.1673   ZZ=            -28.5844
   XY=              0.4796   XZ=             -0.4477   YZ=              0.2168

 Normal termination of Gaussian 09 at Wed Aug 26 22:44:21 2020.
