 Gaussian 09, Revision D.01,
 Gaussian 09:  ES64L-G09RevD.01 24-Apr-2013

 --------------------
 #p B2PLYPD3/Def2QZVP
 --------------------

 ----------
 butane_opt
 ----------
 Symbolic Z-matrix:
 Charge =  0 Multiplicity = 1

                         Standard orientation:
 ---------------------------------------------------------------------
 Center     Atomic      Atomic             Coordinates (Angstroms)
 Number     Number       Type             X           Y           Z
 ---------------------------------------------------------------------
      1          6           0       -2.030135   -0.191051   -0.065231
      2          6           0       -0.615254    0.609010    0.190463
      3          1           0       -2.800007    0.443045   -0.727809
      4          1           0       -2.599644   -0.956812    0.923648
      5          1           0       -1.830511   -0.465877   -0.776917
      6          6           0        0.628248   -0.489194    0.113752
      7          1           0       -0.305784    1.398711    1.010790
      8          1           0       -0.264397    1.231720   -0.808574
      9          6           0        1.969365    0.040214   -0.149798
     10          1           0        0.339155   -1.336612   -0.797633
     11          1           0        0.979134   -1.067517    0.892440
     12          1           0        1.892913    0.731585   -0.972701
     13          1           0        2.748175   -0.620386   -0.018057
     14          1           0        2.127625    0.828267    0.739693
 ---------------------------------------------------------------------

 SCF Done:  E(RB2PLYPD3) =  -157.858041516     A.U. after   11 cycles
 E2(B2PLYPD3) =    -0.2531206218D+00 E(B2PLYPD3) =    -0.15811116213740D+03

 The electronic state is 1-A.
 Alpha  occ. eigenvalues --  -10.65880 -10.62265 -10.61892 -10.60056  -0.90625
 Alpha  occ. eigenvalues --   -0.85999  -0.73132  -0.65876  -0.53982  -0.49541
 Alpha  occ. eigenvalues --   -0.48484  -0.45629  -0.41189  -0.40453  -0.38629
 Alpha  occ. eigenvalues --   -0.36576  -0.34547
 Alpha virt. eigenvalues --    0.05251   0.05839   0.07686   0.07888   0.10279
 Alpha virt. eigenvalues --    0.10746   0.12190   0.12708   0.14331   0.15183
 Alpha virt. eigenvalues --    0.16474   0.16779   0.18379   0.18610   0.19593

 Mulliken charges:
               1
     1  C   -0.421545
     2  C   -0.071954
     3  H    0.032769
     4  H    0.075433
     5  H    0.332549
     6  C   -0.021896
     7  H    0.054326
     8  H    0.013340
     9  C   -0.133535
    10  H   -0.018146
    11  H    0.042073
    12  H    0.041908
    13  H    0.063489
    14  H    0.011189
 Sum of Mulliken charges =   0.00000

 Dipole moment (field-independent basis, Debye):
    X=              0.1917    Y=             -0.1620    Z=             -0.1152  Tot=              0.2762
 Quadrupole moment (field-independent basis, Debye-Ang):
   XX=            -29.3835   YY=            -29.8370   ZZ=            -28.6332
   XY=              0.1665   XZ=              1.2050   YZ=             -0.6197

 Normal termination of Gaussian 09 at Wed Aug 26 14:43:14 2020.
