 Gaussian 09, Revision D.01,
 Gaussian 09:  ES64L-G09RevD.01 24-Apr-2013

 --------------------
 #p B2PLYPD3/Def2QZVP
 --------------------

 ----------
 butane_opt
 ----------
 Symbolic Z-matrix:
 Charge =  0 Multiplicity = 1

                         Standard orientation:
 ---------------------------------------------------------------------
 Center     Atomic      Atomic             Coordinates (Angstroms)
 Number     Number       Type             X           Y           Z
 ---------------------------------------------------------------------
      1          6           0        2.053889   -0.151661   -0.132845
      2          6           0        0.579869    0.564130    0.053563
      3          1           0        2.800541    0.548999   -0.027989
      4          1           0        2.040380   -1.333084   -0.976301
      5          1           0        2.321399   -0.640893    0.740740
      6          6           0       -0.651827   -0.401287    0.307907
      7          1           0        0.126758    1.130978   -1.016604
      8          1           0        0.682733    1.512677    0.713909
      9          6           0       -1.935944    0.019150   -0.205697
     10          1           0       -0.749604   -1.150970    1.464013
     11          1           0       -0.555786   -0.919445   -0.330860
     12          1           0       -2.473737    1.262869    0.741943
     13          1           0       -2.685830   -0.826326   -0.474185
     14          1           0       -1.782778    0.233194   -0.972240
 ---------------------------------------------------------------------

 SCF Done:  E(RB2PLYPD3) =  -157.717587472     A.U. after   11 cycles
 E2(B2PLYPD3) =    -0.2550738791D+00 E(B2PLYPD3) =    -0.15797266135128D+03

 The electronic state is 1-A.
 Alpha  occ. eigenvalues --  -10.66131 -10.63940 -10.62603 -10.61335  -0.95454
 Alpha  occ. eigenvalues --   -0.84077  -0.75052  -0.67901  -0.53895  -0.50008
 Alpha  occ. eigenvalues --   -0.49153  -0.45282  -0.42874  -0.40679  -0.38518
 Alpha  occ. eigenvalues --   -0.35300  -0.33664
 Alpha virt. eigenvalues --    0.03154   0.04293   0.06548   0.07621   0.08498
 Alpha virt. eigenvalues --    0.10288   0.11350   0.12873   0.13399   0.14096
 Alpha virt. eigenvalues --    0.15666   0.16057   0.17985   0.19059   0.19570

 Mulliken charges:
               1
     1  C   -0.144486
     2  C   -0.028958
     3  H    0.064992
     4  H    0.026552
     5  H    0.053990
     6  C   -0.266303
     7  H   -0.000988
     8  H    0.037348
     9  C   -0.317180
    10  H    0.015085
    11  H    0.287776
    12  H   -0.028028
    13  H    0.056930
    14  H    0.243270
 Sum of Mulliken charges =   0.00000

 Dipole moment (field-independent basis, Debye):
    X=              0.7159    Y=             -0.5506    Z=             -0.4004  Tot=              0.9879
 Quadrupole moment (field-independent basis, Debye-Ang):
   XX=            -31.0599   YY=            -29.3686   ZZ=            -29.7613
   XY=              2.2563   XZ=              3.1613   YZ=              1.0107

 Normal termination of Gaussian 09 at Wed Aug 26 21:51:16 2020.
