 Gaussian 09, Revision D.01,
 Gaussian 09:  ES64L-G09RevD.01 24-Apr-2013

 --------------------
 #p B2PLYPD3/Def2QZVP
 --------------------

 ----------
 butane_opt
 ----------
 Symbolic Z-matrix:
 Charge =  0 Multiplicity = 1

                         Standard orientation:
 ---------------------------------------------------------------------
 Center     Atomic      Atomic             Coordinates (Angstroms)
 Number     Number       Type             X           Y           Z
 ---------------------------------------------------------------------
      1          6           0        1.993362    0.153715    0.088410
      2          6           0        0.503861   -0.537255   -0.091175
      3          1           0        2.682101   -0.611461    0.015403
      4          1           0        1.910444    1.048090    1.028135
      5          1           0        2.274619    0.572660   -0.689126
      6          6           0       -0.608735    0.434187   -0.153793
      7          1           0        0.414103   -1.151097    0.802636
      8          1           0        0.499837   -1.079812   -0.797949
      9          6           0       -1.892662   -0.080835    0.091877
     10          1           0       -0.522222    1.211541   -1.143303
     11          1           0       -0.562814    0.933575    0.618512
     12          1           0       -2.211967   -0.853478   -0.784127
     13          1           0       -2.711669    0.757517    0.328970
     14          1           0       -1.747388   -0.646407    1.008941
 ---------------------------------------------------------------------

 SCF Done:  E(RB2PLYPD3) =  -157.957051709     A.U. after   11 cycles
 E2(B2PLYPD3) =    -0.2476595777D+00 E(B2PLYPD3) =    -0.15820471128715D+03

 The electronic state is 1-A.
 Alpha  occ. eigenvalues --  -10.61389 -10.59975 -10.58666 -10.58587  -0.94234
 Alpha  occ. eigenvalues --   -0.84509  -0.74885  -0.67338  -0.55795  -0.50633
 Alpha  occ. eigenvalues --   -0.48992  -0.47873  -0.43273  -0.41105  -0.38037
 Alpha  occ. eigenvalues --   -0.37093  -0.36916
 Alpha virt. eigenvalues --    0.05511   0.06598   0.07828   0.08705   0.10909
 Alpha virt. eigenvalues --    0.11667   0.12233   0.13973   0.14378   0.15082
 Alpha virt. eigenvalues --    0.15434   0.16519   0.19291   0.19862   0.21818

 Mulliken charges:
               1
     1  C   -0.167295
     2  C   -0.080217
     3  H    0.040402
     4  H    0.035224
     5  H    0.067424
     6  C   -0.085150
     7  H    0.024164
     8  H    0.086163
     9  C   -0.148147
    10  H    0.004033
    11  H    0.105610
    12  H    0.022734
    13  H    0.043822
    14  H    0.051231
 Sum of Mulliken charges =   0.00000

 Dipole moment (field-independent basis, Debye):
    X=              0.2115    Y=             -0.1157    Z=              0.0004  Tot=              0.2411
 Quadrupole moment (field-independent basis, Debye-Ang):
   XX=            -30.2124   YY=            -28.7694   ZZ=            -28.2260
   XY=             -1.0571   XZ=             -1.5754   YZ=              0.7151

 Normal termination of Gaussian 09 at Wed Aug 26 15:31:11 2020.
