 Gaussian 09, Revision D.01,
 Gaussian 09:  ES64L-G09RevD.01 24-Apr-2013

 --------------------
 #p B2PLYPD3/Def2QZVP
 --------------------

 ----------
 butane_opt
 ----------
 Symbolic Z-matrix:
 Charge =  0 Multiplicity = 1

                         Standard orientation:
 ---------------------------------------------------------------------
 Center     Atomic      Atomic             Coordinates (Angstroms)
 Number     Number       Type             X           Y           Z
 ---------------------------------------------------------------------
      1          6           0        1.895342    0.046228   -0.075867
      2          6           0        0.548574   -0.422698    0.229631
      3          1           0        2.732035   -0.755507   -0.833265
      4          1           0        2.503479    0.915885    0.787261
      5          1           0        1.269132    0.496865   -0.932659
      6          6           0       -0.441791    0.524684    0.007798
      7          1           0        0.343157   -1.057730    1.213898
      8          1           0        0.426144   -1.136550   -0.433125
      9          6           0       -1.875225   -0.102631   -0.059972
     10          1           0       -0.423543    1.177018   -0.924641
     11          1           0       -0.634502    1.269686    0.862329
     12          1           0       -2.196042   -1.087631   -1.038771
     13          1           0       -2.589430    0.513556   -0.240471
     14          1           0       -2.191834   -0.609083    0.929899
 ---------------------------------------------------------------------

 SCF Done:  E(RB2PLYPD3) =  -157.910851225     A.U. after   11 cycles
 E2(B2PLYPD3) =    -0.2550204110D+00 E(B2PLYPD3) =    -0.15816587163575D+03

 The electronic state is 1-A.
 Alpha  occ. eigenvalues --  -10.65338 -10.62700 -10.62515 -10.60469  -0.96222
 Alpha  occ. eigenvalues --   -0.83606  -0.71737  -0.66567  -0.55527  -0.51365
 Alpha  occ. eigenvalues --   -0.49712  -0.45403  -0.41999  -0.39208  -0.37581
 Alpha  occ. eigenvalues --   -0.35936  -0.34704
 Alpha virt. eigenvalues --    0.04594   0.05297   0.07255   0.07465   0.09699
 Alpha virt. eigenvalues --    0.09969   0.12221   0.13001   0.13648   0.14202
 Alpha virt. eigenvalues --    0.15737   0.17220   0.18655   0.19592   0.21278

 Mulliken charges:
               1
     1  C   -0.190993
     2  C   -0.059090
     3  H    0.036803
     4  H    0.045095
     5  H    0.055395
     6  C   -0.002645
     7  H    0.010047
     8  H    0.103178
     9  C   -0.155451
    10  H    0.034864
    11  H    0.022858
    12  H   -0.015450
    13  H    0.075788
    14  H    0.039599
 Sum of Mulliken charges =   0.00000

 Dipole moment (field-independent basis, Debye):
    X=             -0.5567    Y=              0.3552    Z=             -0.0095  Tot=              0.6604
 Quadrupole moment (field-independent basis, Debye-Ang):
   XX=            -31.4239   YY=            -29.9003   ZZ=            -29.1944
   XY=             -1.2462   XZ=             -0.4189   YZ=              0.5424

 Normal termination of Gaussian 09 at Wed Aug 26 23:35:45 2020.
