 Gaussian 09, Revision D.01,
 Gaussian 09:  ES64L-G09RevD.01 24-Apr-2013

 --------------------
 #p B2PLYPD3/Def2QZVP
 --------------------

 ----------
 butane_opt
 ----------
 Symbolic Z-matrix:
 Charge =  0 Multiplicity = 1

                         Standard orientation:
 ---------------------------------------------------------------------
 Center     Atomic      Atomic             Coordinates (Angstroms)
 Number     Number       Type             X           Y           Z
 ---------------------------------------------------------------------
      1          6           0        1.904578    0.121215    0.055277
      2          6           0        0.542244   -0.571449   -0.088657
      3          1           0        2.679144   -0.611212    0.493362
      4          1           0        1.688209    0.549091    0.916447
      5          1           0        2.720404    0.872022   -0.986580
      6          6           0       -0.528977    0.532955   -0.049004
      7          1           0        0.294418   -1.166502    0.730850
      8          1           0        0.293265   -1.104006   -0.883185
      9          6           0       -1.929115   -0.132212   -0.006722
     10          1           0       -0.235211    1.002280   -0.767817
     11          1           0       -0.587754    1.365428    0.830343
     12          1           0       -2.039104   -0.680833   -0.763444
     13          1           0       -2.762325    0.730624    0.069022
     14          1           0       -1.983423   -0.659942    0.895635
 ---------------------------------------------------------------------

 SCF Done:  E(RB2PLYPD3) =  -157.948017794     A.U. after   11 cycles
 E2(B2PLYPD3) =    -0.2495183462D+00 E(B2PLYPD3) =    -0.15819753614006D+03

 The electronic state is 1-A.
 Alpha  occ. eigenvalues --  -10.63170 -10.59709 -10.59103 -10.59038  -0.92993
 Alpha  occ. eigenvalues --   -0.83523  -0.73911  -0.69319  -0.55781  -0.50223
 Alpha  occ. eigenvalues --   -0.48371  -0.46596  -0.42681  -0.41877  -0.38967
 Alpha  occ. eigenvalues --   -0.38296  -0.34346
 Alpha virt. eigenvalues --    0.04351   0.05867   0.08037   0.08434   0.10492
 Alpha virt. eigenvalues --    0.11221   0.12960   0.13353   0.14801   0.15783
 Alpha virt. eigenvalues --    0.16032   0.16624   0.18481   0.19396   0.21123

 Mulliken charges:
               1
     1  C   -0.203254
     2  C   -0.057263
     3  H    0.026435
     4  H    0.097335
     5  H    0.039532
     6  C   -0.089712
     7  H    0.048984
     8  H    0.054304
     9  C   -0.156836
    10  H    0.094164
    11  H   -0.004244
    12  H    0.069118
    13  H    0.027647
    14  H    0.053791
 Sum of Mulliken charges =   0.00000

 Dipole moment (field-independent basis, Debye):
    X=             -0.1726    Y=             -0.3736    Z=              0.1327  Tot=              0.4324
 Quadrupole moment (field-independent basis, Debye-Ang):
   XX=            -30.4686   YY=            -29.2141   ZZ=            -27.9720
   XY=              0.1360   XZ=              0.0228   YZ=             -0.1499

 Normal termination of Gaussian 09 at Wed Aug 26 20:59:49 2020.
