 Gaussian 09, Revision D.01,
 Gaussian 09:  ES64L-G09RevD.01 24-Apr-2013

 --------------------
 #p B2PLYPD3/Def2QZVP
 --------------------

 ----------
 butane_opt
 ----------
 Symbolic Z-matrix:
 Charge =  0 Multiplicity = 1

                         Standard orientation:
 ---------------------------------------------------------------------
 Center     Atomic      Atomic             Coordinates (Angstroms)
 Number     Number       Type             X           Y           Z
 ---------------------------------------------------------------------
      1          6           0        2.023841   -0.200455   -0.164603
      2          6           0        0.570317    0.589833    0.092137
      3          1           0        2.793023    0.460258    0.075998
      4          1           0        2.258448   -1.014986   -1.032635
      5          1           0        2.221966   -0.497345    0.558013
      6          6           0       -0.667368   -0.463709    0.296399
      7          1           0        0.152930    1.180054   -0.819328
      8          1           0        0.841847    1.214904    0.876679
      9          6           0       -1.980954    0.128745   -0.113618
     10          1           0       -0.479763   -1.008851    1.308832
     11          1           0       -0.355587   -1.036093   -0.577384
     12          1           0       -2.290720    0.749120    0.505259
     13          1           0       -3.040177   -0.948124   -0.474871
     14          1           0       -1.776986    0.574576   -1.082459
 ---------------------------------------------------------------------

 SCF Done:  E(RB2PLYPD3) =  -157.874579717     A.U. after   11 cycles
 E2(B2PLYPD3) =    -0.2510704524D+00 E(B2PLYPD3) =    -0.15812565016912D+03

 The electronic state is 1-A.
 Alpha  occ. eigenvalues --  -10.63050 -10.62519 -10.62135 -10.58411  -0.90719
 Alpha  occ. eigenvalues --   -0.86064  -0.75180  -0.67007  -0.55474  -0.50449
 Alpha  occ. eigenvalues --   -0.46599  -0.45812  -0.43576  -0.41999  -0.39054
 Alpha  occ. eigenvalues --   -0.37695  -0.33437
 Alpha virt. eigenvalues --    0.04150   0.05990   0.08141   0.08589   0.09518
 Alpha virt. eigenvalues --    0.11228   0.12396   0.13570   0.14176   0.15524
 Alpha virt. eigenvalues --    0.15721   0.16058   0.18749   0.19241   0.20249

 Mulliken charges:
               1
     1  C   -0.317884
     2  C   -0.050714
     3  H    0.026659
     4  H    0.054391
     5  H    0.211249
     6  C   -0.079790
     7  H    0.028395
     8  H    0.048645
     9  C   -0.172558
    10  H    0.038514
    11  H    0.064549
    12  H    0.098485
    13  H   -0.008936
    14  H    0.058994
 Sum of Mulliken charges =   0.00000

 Dipole moment (field-independent basis, Debye):
    X=              0.6903    Y=              0.3580    Z=              0.4833  Tot=              0.9156
 Quadrupole moment (field-independent basis, Debye-Ang):
   XX=            -30.7380   YY=            -29.5993   ZZ=            -28.0669
   XY=             -1.4125   XZ=              1.2416   YZ=              0.7968

 Normal termination of Gaussian 09 at Wed Aug 26 15:56:00 2020.
