 Gaussian 09, Revision D.01,
 Gaussian 09:  ES64L-G09RevD.01 24-Apr-2013

 --------------------
 #p B2PLYPD3/Def2QZVP
 --------------------

 ----------
 butane_opt
 ----------
 Symbolic Z-matrix:
 Charge =  0 Multiplicity = 1

                         Standard orientation:
 ---------------------------------------------------------------------
 Center     Atomic      Atomic             Coordinates (Angstroms)
 Number     Number       Type             X           Y           Z
 ---------------------------------------------------------------------
      1          6           0        1.890263    0.019955   -0.204810
      2          6           0        0.574082   -0.369648    0.327320
      3          1           0        2.694709   -0.839604   -0.585347
      4          1           0        2.140532    0.780038    0.486733
      5          1           0        1.769996    0.212436   -0.961083
      6          6           0       -0.507863    0.619485    0.146697
      7          1           0        0.506092   -0.987164    1.531482
      8          1           0        0.313114   -0.868962   -0.230251
      9          6           0       -1.898996   -0.191375   -0.171437
     10          1           0       -0.163377    1.098041   -0.862239
     11          1           0       -0.443630    1.298430    0.753098
     12          1           0       -2.126458   -1.162435   -0.953860
     13          1           0       -2.495676    0.512997   -0.356231
     14          1           0       -2.540215   -0.514274    0.591074
 ---------------------------------------------------------------------

 SCF Done:  E(RB2PLYPD3) =  -157.741967184     A.U. after   11 cycles
 E2(B2PLYPD3) =    -0.2488039805D+00 E(B2PLYPD3) =    -0.15799077116416D+03

 The electronic state is 1-A.
 Alpha  occ. eigenvalues --  -10.60967 -10.60351 -10.57907 -10.57193  -0.95572
 Alpha  occ. eigenvalues --   -0.85192  -0.77608  -0.70989  -0.57907  -0.50916
 Alpha  occ. eigenvalues --   -0.48552  -0.47550  -0.43765  -0.40622  -0.38787
 Alpha  occ. eigenvalues --   -0.37897  -0.35450
 Alpha virt. eigenvalues --    0.05599   0.06173   0.07768   0.08673   0.11275
 Alpha virt. eigenvalues --    0.11747   0.12333   0.13651   0.14447   0.15138
 Alpha virt. eigenvalues --    0.16608   0.17864   0.18449   0.19881   0.21065

 Mulliken charges:
               1
     1  C   -0.371656
     2  C   -0.310410
     3  H    0.030814
     4  H    0.066570
     5  H    0.252916
     6  C   -0.052041
     7  H    0.000057
     8  H    0.314716
     9  C   -0.150530
    10  H    0.010895
    11  H    0.088677
    12  H    0.035056
    13  H    0.064019
    14  H    0.020916
 Sum of Mulliken charges =   0.00000

 Dipole moment (field-independent basis, Debye):
    X=             -0.5546    Y=              0.4209    Z=             -0.4230  Tot=              0.8147
 Quadrupole moment (field-independent basis, Debye-Ang):
   XX=            -28.8609   YY=            -28.5763   ZZ=            -28.4045
   XY=              0.3913   XZ=             -1.1461   YZ=              1.4766

 Normal termination of Gaussian 09 at Wed Aug 26 16:17:37 2020.
