 Gaussian 09, Revision D.01,
 Gaussian 09:  ES64L-G09RevD.01 24-Apr-2013

 --------------------
 #p B2PLYPD3/Def2QZVP
 --------------------

 ----------
 butane_opt
 ----------
 Symbolic Z-matrix:
 Charge =  0 Multiplicity = 1

                         Standard orientation:
 ---------------------------------------------------------------------
 Center     Atomic      Atomic             Coordinates (Angstroms)
 Number     Number       Type             X           Y           Z
 ---------------------------------------------------------------------
      1          6           0       -1.931031    0.119143   -0.149994
      2          6           0       -0.486336   -0.525844    0.241521
      3          1           0       -2.603605   -0.441816   -0.752349
      4          1           0       -1.571420    0.382873   -0.932265
      5          1           0       -2.804629    1.042162    0.945087
      6          6           0        0.553737    0.424784    0.014886
      7          1           0       -0.455633   -1.166255   -0.575560
      8          1           0       -0.309812   -1.307245    1.308662
      9          6           0        1.956045   -0.077399   -0.097939
     10          1           0        0.379293    1.307648    1.100198
     11          1           0        0.487615    1.062228   -0.791234
     12          1           0        1.908039   -0.529396    0.754001
     13          1           0        2.692810    0.791015   -0.129269
     14          1           0        1.722850   -0.785321   -0.978112
 ---------------------------------------------------------------------

 SCF Done:  E(RB2PLYPD3) =  -157.836669095     A.U. after   11 cycles
 E2(B2PLYPD3) =    -0.2556833406D+00 E(B2PLYPD3) =    -0.15809235243515D+03

 The electronic state is 1-A.
 Alpha  occ. eigenvalues --  -10.64296 -10.63415 -10.62339 -10.60227  -0.94838
 Alpha  occ. eigenvalues --   -0.86186  -0.74934  -0.65799  -0.55376  -0.51640
 Alpha  occ. eigenvalues --   -0.48807  -0.46780  -0.43238  -0.40156  -0.37905
 Alpha  occ. eigenvalues --   -0.35654  -0.33017
 Alpha virt. eigenvalues --    0.02307   0.05337   0.06711   0.07257   0.08538
 Alpha virt. eigenvalues --    0.10705   0.12166   0.12541   0.14427   0.15215
 Alpha virt. eigenvalues --    0.15730   0.16573   0.17773   0.19251   0.20682

 Mulliken charges:
               1
     1  C   -0.259238
     2  C   -0.075803
     3  H    0.059180
     4  H    0.158198
     5  H    0.027044
     6  C   -0.044174
     7  H    0.063098
     8  H    0.024946
     9  C   -0.164500
    10  H   -0.034245
    11  H    0.055523
    12  H    0.077984
    13  H    0.066814
    14  H    0.045173
 Sum of Mulliken charges =   0.00000

 Dipole moment (field-independent basis, Debye):
    X=              0.3372    Y=             -0.4519    Z=             -1.0565  Tot=              1.1975
 Quadrupole moment (field-independent basis, Debye-Ang):
   XX=            -31.2632   YY=            -30.8020   ZZ=            -28.3287
   XY=              1.3313   XZ=              1.0958   YZ=             -0.0965

 Normal termination of Gaussian 09 at Wed Aug 26 20:52:15 2020.
