 Gaussian 09, Revision D.01,
 Gaussian 09:  ES64L-G09RevD.01 24-Apr-2013

 --------------------
 #p B2PLYPD3/Def2QZVP
 --------------------

 ----------
 butane_opt
 ----------
 Symbolic Z-matrix:
 Charge =  0 Multiplicity = 1

                         Standard orientation:
 ---------------------------------------------------------------------
 Center     Atomic      Atomic             Coordinates (Angstroms)
 Number     Number       Type             X           Y           Z
 ---------------------------------------------------------------------
      1          6           0        1.898694   -0.091994    0.064564
      2          6           0        0.511622    0.478364   -0.125125
      3          1           0        2.702150    0.766864   -0.158866
      4          1           0        2.026620   -0.483809   -0.691194
      5          1           0        2.029787   -0.978304    1.239059
      6          6           0       -0.571176   -0.548710    0.050497
      7          1           0        0.598324    1.186839   -1.077231
      8          1           0        0.420938    0.984224    0.553312
      9          6           0       -1.897410    0.115451    0.032178
     10          1           0       -0.451138   -0.885844    0.735888
     11          1           0       -0.446571   -1.440973   -0.761617
     12          1           0       -2.252989    1.325978    1.193505
     13          1           0       -2.488735   -0.544293   -0.729421
     14          1           0       -1.788769    0.350648   -0.436117
 ---------------------------------------------------------------------

 SCF Done:  E(RB2PLYPD3) =  -156.932021388     A.U. after   12 cycles
 E2(B2PLYPD3) =    -0.2543013596D+00 E(B2PLYPD3) =    -0.15718632274758D+03

 The electronic state is 1-A.
 Alpha  occ. eigenvalues --  -10.62949 -10.61537 -10.58659 -10.58538  -0.98272
 Alpha  occ. eigenvalues --   -0.89895  -0.79670  -0.71975  -0.55032  -0.49890
 Alpha  occ. eigenvalues --   -0.49535  -0.45510  -0.43296  -0.41230  -0.37719
 Alpha  occ. eigenvalues --   -0.37424  -0.36276
 Alpha virt. eigenvalues --    0.00125   0.04718   0.06155   0.07438   0.10453
 Alpha virt. eigenvalues --    0.10893   0.12054   0.12443   0.13132   0.14987
 Alpha virt. eigenvalues --    0.16095   0.17487   0.17964   0.18995   0.20984

 Mulliken charges:
               1
     1  C   -0.250595
     2  C   -0.140229
     3  H    0.028502
     4  H    0.153011
     5  H    0.022602
     6  C   -0.218900
     7  H    0.009610
     8  H    0.170973
     9  C   -1.001341
    10  H    0.286609
    11  H    0.016761
    12  H    0.041798
    13  H    0.063667
    14  H    0.817529
 Sum of Mulliken charges =   0.00000

 Dipole moment (field-independent basis, Debye):
    X=              0.3021    Y=              0.2270    Z=             -0.6631  Tot=              0.7632
 Quadrupole moment (field-independent basis, Debye-Ang):
   XX=            -32.4917   YY=            -28.3578   ZZ=            -27.3040
   XY=              0.0816   XZ=             -0.0689   YZ=              0.4608

 Normal termination of Gaussian 09 at Wed Aug 26 14:22:08 2020.
