 Gaussian 09, Revision D.01,
 Gaussian 09:  ES64L-G09RevD.01 24-Apr-2013

 --------------------
 #p B2PLYPD3/Def2QZVP
 --------------------

 ----------
 butane_opt
 ----------
 Symbolic Z-matrix:
 Charge =  0 Multiplicity = 1

                         Standard orientation:
 ---------------------------------------------------------------------
 Center     Atomic      Atomic             Coordinates (Angstroms)
 Number     Number       Type             X           Y           Z
 ---------------------------------------------------------------------
      1          6           0        1.971360    0.094986    0.106691
      2          6           0        0.602349   -0.510621   -0.140910
      3          1           0        2.749087   -0.651509   -0.119503
      4          1           0        1.896815    0.823447    1.144959
      5          1           0        2.137410    0.489316   -0.497554
      6          6           0       -0.533858    0.588818   -0.129824
      7          1           0        0.336409   -1.292923    0.791877
      8          1           0        0.470877   -1.065069   -0.999914
      9          6           0       -1.989851   -0.131204    0.094058
     10          1           0       -0.405416    1.446886   -1.090121
     11          1           0       -0.397525    1.063831    0.733369
     12          1           0       -2.423365   -0.737838   -0.902025
     13          1           0       -2.641151    0.454541    0.336864
     14          1           0       -2.023141   -0.782555    1.021953
 ---------------------------------------------------------------------

 SCF Done:  E(RB2PLYPD3) =  -157.842602406     A.U. after   11 cycles
 E2(B2PLYPD3) =    -0.2488069572D+00 E(B2PLYPD3) =    -0.15809140936306D+03

 The electronic state is 1-A.
 Alpha  occ. eigenvalues --  -10.62655 -10.61480 -10.60516 -10.58080  -0.91347
 Alpha  occ. eigenvalues --   -0.84598  -0.75639  -0.67151  -0.54033  -0.48743
 Alpha  occ. eigenvalues --   -0.48409  -0.47036  -0.42139  -0.40878  -0.38767
 Alpha  occ. eigenvalues --   -0.37555  -0.36675
 Alpha virt. eigenvalues --    0.05359   0.06477   0.07495   0.08531   0.10463
 Alpha virt. eigenvalues --    0.12132   0.12579   0.14140   0.14468   0.15386
 Alpha virt. eigenvalues --    0.15451   0.16513   0.18854   0.19335   0.21450

 Mulliken charges:
               1
     1  C   -0.463017
     2  C   -0.000407
     3  H    0.046935
     4  H    0.050628
     5  H    0.326527
     6  C   -0.096826
     7  H    0.007094
     8  H    0.051126
     9  C   -0.158745
    10  H    0.013618
    11  H    0.072293
    12  H    0.027604
    13  H    0.089125
    14  H    0.034045
 Sum of Mulliken charges =   0.00000

 Dipole moment (field-independent basis, Debye):
    X=              0.0316    Y=              0.2703    Z=             -0.1020  Tot=              0.2906
 Quadrupole moment (field-independent basis, Debye-Ang):
   XX=            -29.1187   YY=            -29.4053   ZZ=            -27.8739
   XY=             -0.1316   XZ=             -1.8104   YZ=              0.5907

 Normal termination of Gaussian 09 at Wed Aug 26 22:03:48 2020.
