 Gaussian 09, Revision D.01,
 Gaussian 09:  ES64L-G09RevD.01 24-Apr-2013

 --------------------
 #p B2PLYPD3/Def2QZVP
 --------------------

 ----------
 butane_opt
 ----------
 Symbolic Z-matrix:
 Charge =  0 Multiplicity = 1

                         Standard orientation:
 ---------------------------------------------------------------------
 Center     Atomic      Atomic             Coordinates (Angstroms)
 Number     Number       Type             X           Y           Z
 ---------------------------------------------------------------------
      1          6           0        2.070477   -0.105367   -0.057272
      2          6           0        0.521264    0.502281    0.060402
      3          1           0        2.898071    0.649566   -0.222442
      4          1           0        2.081452   -0.831310   -1.025287
      5          1           0        2.272858   -0.932508    0.959650
      6          6           0       -0.619850   -0.466685    0.098881
      7          1           0        0.480223    1.074944   -0.881739
      8          1           0        0.570120    1.359410    0.959631
      9          6           0       -1.998851    0.105228   -0.080199
     10          1           0       -0.831483   -1.441666    1.200887
     11          1           0       -0.330296   -0.916653   -0.544707
     12          1           0       -2.387961    1.083728    0.929290
     13          1           0       -2.650765   -0.740182   -0.728524
     14          1           0       -1.940466    0.481932   -0.777630
 ---------------------------------------------------------------------

 SCF Done:  E(RB2PLYPD3) =  -157.754086491     A.U. after   11 cycles
 E2(B2PLYPD3) =    -0.2546223163D+00 E(B2PLYPD3) =    -0.15800870880761D+03

 The electronic state is 1-A.
 Alpha  occ. eigenvalues --  -10.65435 -10.64291 -10.61998 -10.61949  -0.93847
 Alpha  occ. eigenvalues --   -0.83161  -0.74854  -0.66432  -0.54692  -0.49104
 Alpha  occ. eigenvalues --   -0.47553  -0.45500  -0.41624  -0.39438  -0.37741
 Alpha  occ. eigenvalues --   -0.37207  -0.34248
 Alpha virt. eigenvalues --    0.03164   0.05354   0.06546   0.07956   0.09345
 Alpha virt. eigenvalues --    0.10707   0.11277   0.11700   0.12709   0.14748
 Alpha virt. eigenvalues --    0.15696   0.16500   0.18158   0.19334   0.19914

 Mulliken charges:
               1
     1  C   -0.177181
     2  C   -0.036726
     3  H    0.076217
     4  H    0.026030
     5  H    0.043515
     6  C   -0.188613
     7  H    0.041517
     8  H    0.012530
     9  C   -0.378466
    10  H   -0.008654
    11  H    0.215977
    12  H    0.054091
    13  H    0.032348
    14  H    0.287415
 Sum of Mulliken charges =   0.00000

 Dipole moment (field-independent basis, Debye):
    X=              0.2090    Y=              0.5373    Z=             -1.1836  Tot=              1.3165
 Quadrupole moment (field-independent basis, Debye-Ang):
   XX=            -31.1018   YY=            -29.9311   ZZ=            -28.9134
   XY=              0.3268   XZ=              0.5471   YZ=              0.8573

 Normal termination of Gaussian 09 at Wed Aug 26 23:34:30 2020.
