 Gaussian 09, Revision D.01,
 Gaussian 09:  ES64L-G09RevD.01 24-Apr-2013

 --------------------
 #p B2PLYPD3/Def2QZVP
 --------------------

 ----------
 butane_opt
 ----------
 Symbolic Z-matrix:
 Charge =  0 Multiplicity = 1

                         Standard orientation:
 ---------------------------------------------------------------------
 Center     Atomic      Atomic             Coordinates (Angstroms)
 Number     Number       Type             X           Y           Z
 ---------------------------------------------------------------------
      1          6           0       -1.966061   -0.186123   -0.130954
      2          6           0       -0.482224    0.665268    0.153621
      3          1           0       -2.529205    0.250572   -0.803295
      4          1           0       -2.699442   -0.860916    0.859903
      5          1           0       -1.697809   -0.641084   -0.729065
      6          6           0        0.603637   -0.412354    0.281683
      7          1           0       -0.686122    1.572582    1.002816
      8          1           0       -0.257841    0.769263   -0.610652
      9          6           0        1.879172    0.080562   -0.197309
     10          1           0        0.184672   -1.375498   -0.625619
     11          1           0        0.857125   -0.848977    1.142373
     12          1           0        1.604002    0.649739   -1.245468
     13          1           0        2.684956   -0.893448   -0.098970
     14          1           0        2.332518    0.493645    0.465739
 ---------------------------------------------------------------------

 SCF Done:  E(RB2PLYPD3) =  -157.691656500     A.U. after   11 cycles
 E2(B2PLYPD3) =    -0.2525278428D+00 E(B2PLYPD3) =    -0.15794418434270D+03

 The electronic state is 1-A.
 Alpha  occ. eigenvalues --  -10.62200 -10.61336 -10.60854 -10.58773  -0.94545
 Alpha  occ. eigenvalues --   -0.86531  -0.78158  -0.67585  -0.56545  -0.49814
 Alpha  occ. eigenvalues --   -0.48176  -0.46701  -0.42853  -0.40728  -0.39266
 Alpha  occ. eigenvalues --   -0.36039  -0.34296
 Alpha virt. eigenvalues --    0.04591   0.05935   0.07112   0.08514   0.09986
 Alpha virt. eigenvalues --    0.11155   0.11768   0.12161   0.13718   0.15765
 Alpha virt. eigenvalues --    0.16352   0.17563   0.17686   0.18459   0.21259

 Mulliken charges:
               1
     1  C   -0.378078
     2  C   -0.378157
     3  H    0.044472
     4  H    0.043716
     5  H    0.270596
     6  C   -0.020025
     7  H    0.064653
     8  H    0.329819
     9  C   -0.175261
    10  H   -0.009360
    11  H    0.049023
    12  H    0.050465
    13  H    0.016148
    14  H    0.091989
 Sum of Mulliken charges =   0.00000

 Dipole moment (field-independent basis, Debye):
    X=              0.3959    Y=              0.2643    Z=              0.0333  Tot=              0.4772
 Quadrupole moment (field-independent basis, Debye-Ang):
   XX=            -30.2219   YY=            -29.9926   ZZ=            -27.4904
   XY=              0.0800   XZ=              2.1830   YZ=             -0.1865

 Normal termination of Gaussian 09 at Wed Aug 26 10:47:04 2020.
