 Gaussian 09, Revision D.01,
 Gaussian 09:  ES64L-G09RevD.01 24-Apr-2013

 --------------------
 #p B2PLYPD3/Def2QZVP
 --------------------

 ----------
 butane_opt
 ----------
 Symbolic Z-matrix:
 Charge =  0 Multiplicity = 1

                         Standard orientation:
 ---------------------------------------------------------------------
 Center     Atomic      Atomic             Coordinates (Angstroms)
 Number     Number       Type             X           Y           Z
 ---------------------------------------------------------------------
      1          6           0       -1.906568   -0.097340   -0.164475
      2          6           0       -0.607648    0.424204    0.217544
      3          1           0       -2.713940    0.886525   -0.889789
      4          1           0       -2.294382   -0.811828    0.692647
      5          1           0       -1.562584   -0.421271   -0.845955
      6          6           0        0.540610   -0.573839    0.138109
      7          1           0       -0.578305    1.562259    1.648504
      8          1           0       -0.437535    0.733129   -0.312843
      9          6           0        1.921213    0.144572   -0.131535
     10          1           0        0.231057   -1.102198   -0.755491
     11          1           0        0.470830   -1.518671    0.946171
     12          1           0        2.067741    1.180980   -1.087851
     13          1           0        2.571703   -0.427630   -0.360107
     14          1           0        2.559777    0.533125    0.606857
 ---------------------------------------------------------------------

 SCF Done:  E(RB2PLYPD3) =  -157.392330253     A.U. after   12 cycles
 E2(B2PLYPD3) =    -0.2555693865D+00 E(B2PLYPD3) =    -0.15764789963959D+03

 The electronic state is 1-A.
 Alpha  occ. eigenvalues --  -10.65325 -10.62463 -10.62369 -10.61894  -0.99683
 Alpha  occ. eigenvalues --   -0.86435  -0.77719  -0.71483  -0.56015  -0.50546
 Alpha  occ. eigenvalues --   -0.49214  -0.47037  -0.43229  -0.42487  -0.39060
 Alpha  occ. eigenvalues --   -0.37448  -0.31208
 Alpha virt. eigenvalues --    0.01785   0.04244   0.04870   0.06939   0.09852
 Alpha virt. eigenvalues --    0.10726   0.11375   0.12615   0.13647   0.15041
 Alpha virt. eigenvalues --    0.15835   0.16608   0.16823   0.19252   0.20180

 Mulliken charges:
               1
     1  C   -0.291705
     2  C   -0.777396
     3  H    0.029692
     4  H    0.083566
     5  H    0.247297
     6  C    0.015455
     7  H   -0.081836
     8  H    0.729450
     9  C   -0.165297
    10  H    0.042554
    11  H    0.030467
    12  H    0.003755
    13  H    0.092625
    14  H    0.041371
 Sum of Mulliken charges =   0.00000

 Dipole moment (field-independent basis, Debye):
    X=              0.6922    Y=             -1.3762    Z=             -1.0728  Tot=              1.8773
 Quadrupole moment (field-independent basis, Debye-Ang):
   XX=            -28.8038   YY=            -30.4144   ZZ=            -30.1458
   XY=              0.6137   XZ=              0.9204   YZ=             -2.0821

 Normal termination of Gaussian 09 at Wed Aug 26 19:01:55 2020.
