 Gaussian 09, Revision D.01,
 Gaussian 09:  ES64L-G09RevD.01 24-Apr-2013

 --------------------
 #p B2PLYPD3/Def2QZVP
 --------------------

 ----------
 butane_opt
 ----------
 Symbolic Z-matrix:
 Charge =  0 Multiplicity = 1

                         Standard orientation:
 ---------------------------------------------------------------------
 Center     Atomic      Atomic             Coordinates (Angstroms)
 Number     Number       Type             X           Y           Z
 ---------------------------------------------------------------------
      1          6           0        1.928426    0.100307   -0.146730
      2          6           0        0.655369   -0.487475    0.106805
      3          1           0        2.754801   -0.682523   -0.073924
      4          1           0        2.071183    0.468339    0.648883
      5          1           0        1.940448    0.788954   -1.158786
      6          6           0       -0.529780    0.612704    0.191004
      7          1           0        0.576923   -1.224752    1.007970
      8          1           0        0.336463   -0.996021   -0.530839
      9          6           0       -1.908150   -0.144604   -0.173058
     10          1           0       -0.210039    0.800629   -0.299207
     11          1           0       -0.837408    1.587918    1.346260
     12          1           0       -2.089723   -0.551368   -0.867977
     13          1           0       -2.720037    0.487382   -0.904294
     14          1           0       -2.697797   -1.164155    0.963783
 ---------------------------------------------------------------------

 SCF Done:  E(RB2PLYPD3) =  -157.259330704     A.U. after   12 cycles
 E2(B2PLYPD3) =    -0.2566278431D+00 E(B2PLYPD3) =    -0.15751595854663D+03

 The electronic state is 1-A.
 Alpha  occ. eigenvalues --  -10.64647 -10.63537 -10.59837 -10.59687  -0.97414
 Alpha  occ. eigenvalues --   -0.86855  -0.80501  -0.72223  -0.56440  -0.53335
 Alpha  occ. eigenvalues --   -0.48366  -0.46132  -0.42401  -0.39897  -0.37511
 Alpha  occ. eigenvalues --   -0.35234  -0.33569
 Alpha virt. eigenvalues --    0.00883   0.05124   0.06073   0.07751   0.08275
 Alpha virt. eigenvalues --    0.10854   0.11804   0.12640   0.13964   0.15154
 Alpha virt. eigenvalues --    0.15868   0.16052   0.18066   0.19028   0.20309

 Mulliken charges:
               1
     1  C   -0.205439
     2  C   -0.104733
     3  H    0.038207
     4  H    0.126334
     5  H    0.051823
     6  C   -0.829544
     7  H    0.025372
     8  H    0.132767
     9  C   -0.300053
    10  H    0.767842
    11  H    0.046969
    12  H    0.237322
    13  H    0.011430
    14  H    0.001704
 Sum of Mulliken charges =   0.00000

 Dipole moment (field-independent basis, Debye):
    X=              0.8680    Y=             -0.2432    Z=             -0.9196  Tot=              1.2877
 Quadrupole moment (field-independent basis, Debye-Ang):
   XX=            -31.1143   YY=            -29.8762   ZZ=            -27.7227
   XY=              0.1836   XZ=              2.1421   YZ=             -0.0961

 Normal termination of Gaussian 09 at Wed Aug 26 12:39:27 2020.
