 Gaussian 09, Revision D.01,
 Gaussian 09:  ES64L-G09RevD.01 24-Apr-2013

 --------------------
 #p B2PLYPD3/Def2QZVP
 --------------------

 ----------
 butane_opt
 ----------
 Symbolic Z-matrix:
 Charge =  0 Multiplicity = 1

                         Standard orientation:
 ---------------------------------------------------------------------
 Center     Atomic      Atomic             Coordinates (Angstroms)
 Number     Number       Type             X           Y           Z
 ---------------------------------------------------------------------
      1          6           0       -1.901907   -0.090450   -0.198607
      2          6           0       -0.614054    0.407946    0.319220
      3          1           0       -2.759241    0.807803   -0.379856
      4          1           0       -2.325206   -0.786179    0.569461
      5          1           0       -1.565208   -0.503468   -1.093102
      6          6           0        0.530334   -0.597043    0.101260
      7          1           0       -0.596681    1.084836    1.450874
      8          1           0       -0.442359    0.945411   -0.300516
      9          6           0        1.966862    0.202200   -0.131240
     10          1           0        0.228101   -1.092382   -0.853651
     11          1           0        0.670400   -1.329646    0.706079
     12          1           0        1.669190    1.525592   -1.111557
     13          1           0        2.920385   -0.508088   -0.119864
     14          1           0        2.313214    0.320201    0.588334
 ---------------------------------------------------------------------

 SCF Done:  E(RB2PLYPD3) =  -157.757667913     A.U. after   11 cycles
 E2(B2PLYPD3) =    -0.2529066502D+00 E(B2PLYPD3) =    -0.15801057456279D+03

 The electronic state is 1-A.
 Alpha  occ. eigenvalues --  -10.63417 -10.61399 -10.61252 -10.59458  -0.93677
 Alpha  occ. eigenvalues --   -0.85578  -0.75774  -0.69374  -0.54963  -0.49489
 Alpha  occ. eigenvalues --   -0.49226  -0.45863  -0.40667  -0.39279  -0.38963
 Alpha  occ. eigenvalues --   -0.36848  -0.36093
 Alpha virt. eigenvalues --    0.01548   0.06103   0.06973   0.07542   0.10065
 Alpha virt. eigenvalues --    0.11161   0.11951   0.13675   0.14051   0.15220
 Alpha virt. eigenvalues --    0.15686   0.16705   0.17917   0.19221   0.20531

 Mulliken charges:
               1
     1  C   -0.147832
     2  C   -0.231973
     3  H    0.026475
     4  H    0.047990
     5  H    0.072382
     6  C   -0.024729
     7  H    0.009715
     8  H    0.229853
     9  C   -0.349840
    10  H    0.024436
    11  H    0.051391
    12  H    0.025988
    13  H    0.021593
    14  H    0.244551
 Sum of Mulliken charges =   0.00000

 Dipole moment (field-independent basis, Debye):
    X=              0.1345    Y=             -0.3867    Z=              0.4048  Tot=              0.5758
 Quadrupole moment (field-independent basis, Debye-Ang):
   XX=            -29.9792   YY=            -29.1911   ZZ=            -29.2298
   XY=             -1.2778   XZ=              2.1102   YZ=             -1.0164

 Normal termination of Gaussian 09 at Wed Aug 26 15:00:58 2020.
