 Gaussian 09, Revision D.01,
 Gaussian 09:  ES64L-G09RevD.01 24-Apr-2013

 --------------------
 #p B2PLYPD3/Def2QZVP
 --------------------

 ----------
 butane_opt
 ----------
 Symbolic Z-matrix:
 Charge =  0 Multiplicity = 1

                         Standard orientation:
 ---------------------------------------------------------------------
 Center     Atomic      Atomic             Coordinates (Angstroms)
 Number     Number       Type             X           Y           Z
 ---------------------------------------------------------------------
      1          6           0       -1.995827    0.012585   -0.181864
      2          6           0       -0.664507   -0.407286    0.255198
      3          1           0       -2.648069   -0.618112   -0.046369
      4          1           0       -2.033246    0.534598   -1.462133
      5          1           0       -2.114278    0.652860    0.517374
      6          6           0        0.581021    0.586704    0.162124
      7          1           0       -0.524347   -0.973690   -0.464779
      8          1           0       -0.571212   -1.062873    1.402985
      9          6           0        2.047872   -0.216076   -0.171890
     10          1           0        0.474016    1.892113    1.209222
     11          1           0        0.402838    0.929752   -0.582305
     12          1           0        2.956380   -0.803908    0.897684
     13          1           0        2.797700    0.402720   -1.012133
     14          1           0        1.448864   -0.809021   -0.840950
 ---------------------------------------------------------------------

 SCF Done:  E(RB2PLYPD3) =  -157.703998448     A.U. after   12 cycles
 E2(B2PLYPD3) =    -0.2574555334D+00 E(B2PLYPD3) =    -0.15796145398137D+03

 The electronic state is 1-A.
 Alpha  occ. eigenvalues --  -10.67998 -10.65182 -10.62094 -10.59803  -0.93993
 Alpha  occ. eigenvalues --   -0.85032  -0.73093  -0.68416  -0.55423  -0.51612
 Alpha  occ. eigenvalues --   -0.47335  -0.45252  -0.40757  -0.39412  -0.38700
 Alpha  occ. eigenvalues --   -0.36461  -0.33265
 Alpha virt. eigenvalues --    0.02731   0.03954   0.05426   0.07033   0.08648
 Alpha virt. eigenvalues --    0.10178   0.11590   0.12670   0.13460   0.14527
 Alpha virt. eigenvalues --    0.15695   0.16205   0.16843   0.18827   0.19648

 Mulliken charges:
               1
     1  C   -0.161257
     2  C   -0.111084
     3  H    0.078087
     4  H    0.014007
     5  H    0.081238
     6  C   -0.264556
     7  H    0.115886
     8  H    0.015632
     9  C   -0.187692
    10  H   -0.039446
    11  H    0.265179
    12  H    0.061427
    13  H    0.044450
    14  H    0.088128
 Sum of Mulliken charges =   0.00000

 Dipole moment (field-independent basis, Debye):
    X=             -0.4375    Y=             -0.7689    Z=             -0.8854  Tot=              1.2516
 Quadrupole moment (field-independent basis, Debye-Ang):
   XX=            -29.1410   YY=            -31.7295   ZZ=            -28.9062
   XY=              0.2686   XZ=             -0.6886   YZ=             -0.9920

 Normal termination of Gaussian 09 at Wed Aug 26 16:36:15 2020.
