 Gaussian 09, Revision D.01,
 Gaussian 09:  ES64L-G09RevD.01 24-Apr-2013

 --------------------
 #p B2PLYPD3/Def2QZVP
 --------------------

 ----------
 butane_opt
 ----------
 Symbolic Z-matrix:
 Charge =  0 Multiplicity = 1

                         Standard orientation:
 ---------------------------------------------------------------------
 Center     Atomic      Atomic             Coordinates (Angstroms)
 Number     Number       Type             X           Y           Z
 ---------------------------------------------------------------------
      1          6           0       -1.919264    0.073295   -0.247085
      2          6           0       -0.539922   -0.411894    0.199421
      3          1           0       -2.918522   -0.941962   -0.048418
      4          1           0       -1.985145    0.740520   -1.223602
      5          1           0       -1.915681    0.783199    0.729565
      6          6           0        0.504938    0.550010    0.246957
      7          1           0       -0.101676   -0.955783   -0.607433
      8          1           0       -0.665508   -1.290755    1.239149
      9          6           0        1.904372   -0.219235   -0.244074
     10          1           0        0.442082    1.548500    1.426230
     11          1           0        0.426686    0.927072   -0.520898
     12          1           0        2.759224   -0.947137    0.870699
     13          1           0        2.760319    0.690683   -0.782591
     14          1           0        1.497480   -0.507394   -0.814009
 ---------------------------------------------------------------------

 SCF Done:  E(RB2PLYPD3) =  -157.606914404     A.U. after   12 cycles
 E2(B2PLYPD3) =    -0.2609145603D+00 E(B2PLYPD3) =    -0.15786782896453D+03

 The electronic state is 1-A.
 Alpha  occ. eigenvalues --  -10.66115 -10.65458 -10.63771 -10.63615  -0.97062
 Alpha  occ. eigenvalues --   -0.84538  -0.74237  -0.66128  -0.54391  -0.49477
 Alpha  occ. eigenvalues --   -0.49248  -0.45539  -0.39704  -0.38217  -0.37765
 Alpha  occ. eigenvalues --   -0.35754  -0.34351
 Alpha virt. eigenvalues --    0.02496   0.03684   0.05624   0.07125   0.07585
 Alpha virt. eigenvalues --    0.09268   0.11549   0.12248   0.12997   0.14354
 Alpha virt. eigenvalues --    0.15007   0.15957   0.17537   0.18937   0.19726

 Mulliken charges:
               1
     1  C   -0.187739
     2  C   -0.020308
     3  H    0.045966
     4  H    0.060796
     5  H    0.049752
     6  C   -0.242265
     7  H    0.034996
     8  H    0.015307
     9  C   -0.479684
    10  H   -0.005782
    11  H    0.246272
    12  H    0.049891
    13  H    0.036893
    14  H    0.395907
 Sum of Mulliken charges =   0.00000

 Dipole moment (field-independent basis, Debye):
    X=             -0.0036    Y=             -0.0425    Z=             -0.7847  Tot=              0.7859
 Quadrupole moment (field-independent basis, Debye-Ang):
   XX=            -32.0334   YY=            -31.0482   ZZ=            -29.0765
   XY=              0.4381   XZ=             -0.0125   YZ=             -1.2054

 Normal termination of Gaussian 09 at Wed Aug 26 14:26:29 2020.
