 Gaussian 09, Revision D.01,
 Gaussian 09:  ES64L-G09RevD.01 24-Apr-2013

 --------------------
 #p B2PLYPD3/Def2QZVP
 --------------------

 ----------
 butane_opt
 ----------
 Symbolic Z-matrix:
 Charge =  0 Multiplicity = 1

                         Standard orientation:
 ---------------------------------------------------------------------
 Center     Atomic      Atomic             Coordinates (Angstroms)
 Number     Number       Type             X           Y           Z
 ---------------------------------------------------------------------
      1          6           0        1.987291   -0.081565    0.041552
      2          6           0        0.601071    0.467589   -0.057964
      3          1           0        2.748499    0.643109   -0.146376
      4          1           0        2.095325   -0.649934   -0.770698
      5          1           0        1.969594   -0.818809    1.023814
      6          6           0       -0.592615   -0.550139    0.001153
      7          1           0        0.661119    1.216166   -0.918153
      8          1           0        0.392808    1.158178    0.802032
      9          6           0       -1.970752    0.114653   -0.012829
     10          1           0       -0.422096   -1.300103    1.014228
     11          1           0       -0.460173   -1.113054   -0.767354
     12          1           0       -2.474307    1.205491    1.114916
     13          1           0       -2.737606   -0.577616   -0.510140
     14          1           0       -1.923133    0.533338   -0.673747
 ---------------------------------------------------------------------

 SCF Done:  E(RB2PLYPD3) =  -157.851760802     A.U. after   11 cycles
 E2(B2PLYPD3) =    -0.2511912564D+00 E(B2PLYPD3) =    -0.15810295205800D+03

 The electronic state is 1-A.
 Alpha  occ. eigenvalues --  -10.62414 -10.61951 -10.61312 -10.59937  -0.92346
 Alpha  occ. eigenvalues --   -0.86168  -0.74918  -0.67085  -0.53371  -0.51150
 Alpha  occ. eigenvalues --   -0.48984  -0.46724  -0.41696  -0.40497  -0.37725
 Alpha  occ. eigenvalues --   -0.37265  -0.35981
 Alpha virt. eigenvalues --    0.02485   0.05862   0.07466   0.07891   0.09920
 Alpha virt. eigenvalues --    0.11247   0.12532   0.12662   0.13849   0.15381
 Alpha virt. eigenvalues --    0.15659   0.16449   0.18685   0.19234   0.19915

 Mulliken charges:
               1
     1  C   -0.146970
     2  C   -0.018903
     3  H    0.047682
     4  H    0.050566
     5  H    0.034124
     6  C   -0.036338
     7  H   -0.000722
     8  H    0.029097
     9  C   -0.423040
    10  H    0.006171
    11  H    0.079412
    12  H    0.019629
    13  H    0.047523
    14  H    0.311768
 Sum of Mulliken charges =   0.00000

 Dipole moment (field-independent basis, Debye):
    X=              0.2688    Y=             -0.0421    Z=             -1.0592  Tot=              1.0936
 Quadrupole moment (field-independent basis, Debye-Ang):
   XX=            -30.6151   YY=            -29.2634   ZZ=            -28.4909
   XY=              0.5857   XZ=              0.5733   YZ=              0.2782

 Normal termination of Gaussian 09 at Wed Aug 26 12:29:32 2020.
