 Gaussian 09, Revision D.01,
 Gaussian 09:  ES64L-G09RevD.01 24-Apr-2013

 --------------------
 #p B2PLYPD3/Def2QZVP
 --------------------

 ----------
 butane_opt
 ----------
 Symbolic Z-matrix:
 Charge =  0 Multiplicity = 1

                         Standard orientation:
 ---------------------------------------------------------------------
 Center     Atomic      Atomic             Coordinates (Angstroms)
 Number     Number       Type             X           Y           Z
 ---------------------------------------------------------------------
      1          6           0       -2.025576   -0.180952    0.025632
      2          6           0       -0.528671    0.635544   -0.112196
      3          1           0       -2.846423    0.365797    0.719449
      4          1           0       -1.954800   -0.613119    0.727988
      5          1           0       -2.526844   -0.863807   -0.890822
      6          6           0        0.677519   -0.538674   -0.101369
      7          1           0       -0.456987    1.177702    0.693256
      8          1           0       -0.385090    1.489142   -1.021002
      9          6           0        1.897677    0.084783    0.048340
     10          1           0        0.514160   -0.876110   -0.641425
     11          1           0        0.571412   -1.326707    0.819950
     12          1           0        2.228177    0.370120   -0.589073
     13          1           0        2.639168   -0.682628    0.005374
     14          1           0        2.091532    0.955404    1.013869
 ---------------------------------------------------------------------

 SCF Done:  E(RB2PLYPD3) =  -157.471723523     A.U. after   11 cycles
 E2(B2PLYPD3) =    -0.2499092607D+00 E(B2PLYPD3) =    -0.15772163278397D+03

 The electronic state is 1-A.
 Alpha  occ. eigenvalues --  -10.63126 -10.60466 -10.58389 -10.57450  -0.94939
 Alpha  occ. eigenvalues --   -0.85031  -0.78871  -0.72216  -0.58800  -0.49682
 Alpha  occ. eigenvalues --   -0.48501  -0.46478  -0.42232  -0.41631  -0.38907
 Alpha  occ. eigenvalues --   -0.38071  -0.33874
 Alpha virt. eigenvalues --    0.04986   0.06204   0.07654   0.09340   0.10389
 Alpha virt. eigenvalues --    0.11346   0.12214   0.13543   0.14539   0.16156
 Alpha virt. eigenvalues --    0.16474   0.16712   0.18447   0.18767   0.21037

 Mulliken charges:
               1
     1  C   -0.350161
     2  C   -0.067385
     3  H    0.013275
     4  H    0.235868
     5  H    0.053829
     6  C   -0.564194
     7  H    0.089407
     8  H    0.021587
     9  C   -0.266649
    10  H    0.496522
    11  H    0.046951
    12  H    0.221843
    13  H    0.030570
    14  H    0.038535
 Sum of Mulliken charges =   0.00000

 Dipole moment (field-independent basis, Debye):
    X=              0.5892    Y=             -0.3296    Z=              0.0018  Tot=              0.6752
 Quadrupole moment (field-independent basis, Debye-Ang):
   XX=            -29.6050   YY=            -28.4006   ZZ=            -27.5955
   XY=              0.7859   XZ=             -1.9643   YZ=              0.8194

 Normal termination of Gaussian 09 at Wed Aug 26 16:21:45 2020.
