 Gaussian 09, Revision D.01,
 Gaussian 09:  ES64L-G09RevD.01 24-Apr-2013

 --------------------
 #p B2PLYPD3/Def2QZVP
 --------------------

 ----------
 butane_opt
 ----------
 Symbolic Z-matrix:
 Charge =  0 Multiplicity = 1

                         Standard orientation:
 ---------------------------------------------------------------------
 Center     Atomic      Atomic             Coordinates (Angstroms)
 Number     Number       Type             X           Y           Z
 ---------------------------------------------------------------------
      1          6           0        1.961484    0.090504   -0.033470
      2          6           0        0.609968   -0.498427    0.013973
      3          1           0        2.762738   -0.742445   -0.299501
      4          1           0        2.165762    0.978209    1.043089
      5          1           0        1.972114    0.388553   -0.692338
      6          6           0       -0.570295    0.592650   -0.012784
      7          1           0        0.474782   -1.204664    1.032549
      8          1           0        0.469300   -1.033864   -0.773875
      9          6           0       -1.990470   -0.145646    0.008213
     10          1           0       -0.404719    1.264998   -0.969351
     11          1           0       -0.538585    1.366822    0.930233
     12          1           0       -2.093207   -0.725451   -0.778242
     13          1           0       -2.647807    0.403769   -0.315295
     14          1           0       -2.224500   -0.930409    0.967132
 ---------------------------------------------------------------------

 SCF Done:  E(RB2PLYPD3) =  -157.782095235     A.U. after   11 cycles
 E2(B2PLYPD3) =    -0.2496166561D+00 E(B2PLYPD3) =    -0.15803171189062D+03

 The electronic state is 1-A.
 Alpha  occ. eigenvalues --  -10.64096 -10.61007 -10.59637 -10.58936  -0.92429
 Alpha  occ. eigenvalues --   -0.85834  -0.75584  -0.66924  -0.53956  -0.50449
 Alpha  occ. eigenvalues --   -0.48456  -0.45924  -0.42586  -0.39797  -0.39065
 Alpha  occ. eigenvalues --   -0.37492  -0.36217
 Alpha virt. eigenvalues --    0.04930   0.06313   0.07681   0.08184   0.10435
 Alpha virt. eigenvalues --    0.11345   0.12330   0.12934   0.13900   0.15583
 Alpha virt. eigenvalues --    0.16017   0.16593   0.18932   0.19522   0.20504

 Mulliken charges:
               1
     1  C   -0.549400
     2  C   -0.026018
     3  H    0.050034
     4  H    0.040790
     5  H    0.402357
     6  C   -0.044194
     7  H    0.012621
     8  H    0.082537
     9  C   -0.152964
    10  H    0.015766
    11  H    0.023247
    12  H    0.033077
    13  H    0.066791
    14  H    0.045356
 Sum of Mulliken charges =   0.00000

 Dipole moment (field-independent basis, Debye):
    X=             -0.2773    Y=             -0.1190    Z=             -0.8812  Tot=              0.9314
 Quadrupole moment (field-independent basis, Debye-Ang):
   XX=            -30.0297   YY=            -29.2092   ZZ=            -27.8657
   XY=             -0.0668   XZ=             -0.2327   YZ=              0.2089

 Normal termination of Gaussian 09 at Wed Aug 26 20:04:53 2020.
