 Gaussian 09, Revision D.01,
 Gaussian 09:  ES64L-G09RevD.01 24-Apr-2013

 --------------------
 #p B2PLYPD3/Def2QZVP
 --------------------

 ----------
 butane_opt
 ----------
 Symbolic Z-matrix:
 Charge =  0 Multiplicity = 1

                         Standard orientation:
 ---------------------------------------------------------------------
 Center     Atomic      Atomic             Coordinates (Angstroms)
 Number     Number       Type             X           Y           Z
 ---------------------------------------------------------------------
      1          6           0       -2.065021   -0.250826    0.140067
      2          6           0       -0.597957    0.596760   -0.100582
      3          1           0       -2.738139    0.604817   -0.115400
      4          1           0       -2.118927   -1.167683    1.102335
      5          1           0       -2.254624   -0.507739   -0.515345
      6          6           0        0.658710   -0.417812   -0.203684
      7          1           0       -0.187265    0.914879    0.760773
      8          1           0       -0.383380    1.975810   -1.114947
      9          6           0        1.906923    0.072976    0.164560
     10          1           0        0.535037   -1.174297   -1.242262
     11          1           0        0.738279   -0.994109    0.419551
     12          1           0        2.068336    0.189508   -0.306180
     13          1           0        2.809920   -0.771382   -0.398005
     14          1           0        2.114835    0.923603    1.407312
 ---------------------------------------------------------------------

 SCF Done:  E(RB2PLYPD3) =  -156.639382082     A.U. after   13 cycles
 E2(B2PLYPD3) =    -0.2623922434D+00 E(B2PLYPD3) =    -0.15690177432582D+03

 The electronic state is 1-A.
 Alpha  occ. eigenvalues --  -10.66544 -10.64765 -10.61414 -10.59857  -0.98664
 Alpha  occ. eigenvalues --   -0.88240  -0.80687  -0.70926  -0.53650  -0.50080
 Alpha  occ. eigenvalues --   -0.47661  -0.45161  -0.42891  -0.39524  -0.37985
 Alpha  occ. eigenvalues --   -0.33706  -0.32460
 Alpha virt. eigenvalues --    0.00652   0.02923   0.04633   0.05577   0.09618
 Alpha virt. eigenvalues --    0.10196   0.12199   0.12509   0.13131   0.14108
 Alpha virt. eigenvalues --    0.15904   0.16037   0.17008   0.18753   0.19710

 Mulliken charges:
               1
     1  C   -0.509798
     2  C   -0.087511
     3  H    0.061954
     4  H    0.083658
     5  H    0.377276
     6  C   -0.109290
     7  H    0.088517
     8  H   -0.017101
     9  C   -0.997535
    10  H    0.004579
    11  H    0.212782
    12  H    0.795632
    13  H    0.010581
    14  H    0.086255
 Sum of Mulliken charges =   0.00000

 Dipole moment (field-independent basis, Debye):
    X=             -0.2535    Y=             -0.4024    Z=              0.2990  Tot=              0.5618
 Quadrupole moment (field-independent basis, Debye-Ang):
   XX=            -29.8024   YY=            -29.7425   ZZ=            -28.3514
   XY=              2.0330   XZ=              0.4750   YZ=              0.3089

 Normal termination of Gaussian 09 at Wed Aug 26 23:01:31 2020.
