 Gaussian 09, Revision D.01,
 Gaussian 09:  ES64L-G09RevD.01 24-Apr-2013

 --------------------
 #p B2PLYPD3/Def2QZVP
 --------------------

 ----------
 butane_opt
 ----------
 Symbolic Z-matrix:
 Charge =  0 Multiplicity = 1

                         Standard orientation:
 ---------------------------------------------------------------------
 Center     Atomic      Atomic             Coordinates (Angstroms)
 Number     Number       Type             X           Y           Z
 ---------------------------------------------------------------------
      1          6           0       -1.927712   -0.145275   -0.083225
      2          6           0       -0.477965    0.518471    0.121707
      3          1           0       -2.824222    0.526297   -0.228674
      4          1           0       -2.252927   -0.749554    0.829069
      5          1           0       -1.800982   -0.594722   -0.889121
      6          6           0        0.540612   -0.512337   -0.028979
      7          1           0       -0.253754    1.335156    1.317677
      8          1           0       -0.573270    1.185695   -0.718162
      9          6           0        1.929903    0.076487   -0.102321
     10          1           0        0.440541   -0.806708   -0.685961
     11          1           0        0.450733   -1.411829    0.993564
     12          1           0        1.849898    0.799022   -0.953473
     13          1           0        2.609257   -0.528990    0.114089
     14          1           0        1.965703    0.621558    0.777905
 ---------------------------------------------------------------------

 SCF Done:  E(RB2PLYPD3) =  -157.796965982     A.U. after   11 cycles
 E2(B2PLYPD3) =    -0.2495721095D+00 E(B2PLYPD3) =    -0.15804653809158D+03

 The electronic state is 1-A.
 Alpha  occ. eigenvalues --  -10.64002 -10.59837 -10.59033 -10.57607  -0.95020
 Alpha  occ. eigenvalues --   -0.84654  -0.76143  -0.68240  -0.55552  -0.53151
 Alpha  occ. eigenvalues --   -0.50735  -0.47263  -0.42113  -0.40256  -0.39827
 Alpha  occ. eigenvalues --   -0.36625  -0.35534
 Alpha virt. eigenvalues --    0.04917   0.06859   0.07305   0.08029   0.10466
 Alpha virt. eigenvalues --    0.12053   0.12351   0.14287   0.14343   0.15504
 Alpha virt. eigenvalues --    0.15744   0.16160   0.18685   0.19639   0.21502

 Mulliken charges:
               1
     1  C   -0.163310
     2  C   -0.043484
     3  H    0.030211
     4  H    0.043759
     5  H    0.097335
     6  C   -0.467116
     7  H   -0.011178
     8  H    0.054404
     9  C   -0.127705
    10  H    0.412404
    11  H    0.010479
    12  H    0.059447
    13  H    0.058905
    14  H    0.045848
 Sum of Mulliken charges =   0.00000

 Dipole moment (field-independent basis, Debye):
    X=             -0.0118    Y=             -0.1625    Z=             -0.6400  Tot=              0.6604
 Quadrupole moment (field-independent basis, Debye-Ang):
   XX=            -29.0419   YY=            -30.0056   ZZ=            -27.9477
   XY=             -0.5223   XZ=              0.9532   YZ=             -0.5935

 Normal termination of Gaussian 09 at Wed Aug 26 21:30:57 2020.
