 Gaussian 09, Revision D.01,
 Gaussian 09:  ES64L-G09RevD.01 24-Apr-2013

 --------------------
 #p B2PLYPD3/Def2QZVP
 --------------------

 ----------
 butane_opt
 ----------
 Symbolic Z-matrix:
 Charge =  0 Multiplicity = 1

                         Standard orientation:
 ---------------------------------------------------------------------
 Center     Atomic      Atomic             Coordinates (Angstroms)
 Number     Number       Type             X           Y           Z
 ---------------------------------------------------------------------
      1          6           0       -1.977411   -0.145699    0.049250
      2          6           0       -0.572495    0.536027   -0.059036
      3          1           0       -2.705817    0.576468    0.047635
      4          1           0       -2.168963   -0.813230    0.964090
      5          1           0       -2.110258   -0.672740   -0.750221
      6          6           0        0.593200   -0.492949   -0.108051
      7          1           0       -0.381035    1.192518    0.845288
      8          1           0       -0.471602    1.203942   -0.937422
      9          6           0        1.948241    0.124137    0.070472
     10          1           0        0.540008   -1.195130   -1.008587
     11          1           0        0.452985   -1.174307    0.751664
     12          1           0        2.193822    0.770719   -0.789718
     13          1           0        2.806979   -0.730235    0.213964
     14          1           0        1.894673    0.712909    0.947500
 ---------------------------------------------------------------------

 SCF Done:  E(RB2PLYPD3) =  -158.097910222     A.U. after   11 cycles
 E2(B2PLYPD3) =    -0.2465824105D+00 E(B2PLYPD3) =    -0.15834449263281D+03

 The electronic state is 1-A.
 Alpha  occ. eigenvalues --  -10.61634 -10.60843 -10.60675 -10.58600  -0.90500
 Alpha  occ. eigenvalues --   -0.83559  -0.72806  -0.65949  -0.53567  -0.49904
 Alpha  occ. eigenvalues --   -0.47820  -0.47626  -0.43111  -0.41615  -0.39004
 Alpha  occ. eigenvalues --   -0.37828  -0.36896
 Alpha virt. eigenvalues --    0.05794   0.06833   0.08069   0.08756   0.10831
 Alpha virt. eigenvalues --    0.11888   0.12914   0.14154   0.14605   0.15357
 Alpha virt. eigenvalues --    0.15872   0.16192   0.19496   0.20261   0.21812

 Mulliken charges:
               1
     1  C   -0.136892
     2  C   -0.056190
     3  H    0.044224
     4  H    0.031202
     5  H    0.061964
     6  C   -0.031098
     7  H    0.022169
     8  H    0.032770
     9  C   -0.153659
    10  H    0.019835
    11  H    0.029578
    12  H    0.045086
    13  H    0.033612
    14  H    0.057399
 Sum of Mulliken charges =   0.00000

 Dipole moment (field-independent basis, Debye):
    X=             -0.2343    Y=              0.0598    Z=             -0.0506  Tot=              0.2470
 Quadrupole moment (field-independent basis, Debye-Ang):
   XX=            -29.7080   YY=            -28.8778   ZZ=            -28.2342
   XY=             -0.1554   XZ=              0.1378   YZ=             -0.1361

 Normal termination of Gaussian 09 at Wed Aug 26 18:47:40 2020.
