 Gaussian 09, Revision D.01,
 Gaussian 09:  ES64L-G09RevD.01 24-Apr-2013

 --------------------
 #p B2PLYPD3/Def2QZVP
 --------------------

 ----------
 butane_opt
 ----------
 Symbolic Z-matrix:
 Charge =  0 Multiplicity = 1

                         Standard orientation:
 ---------------------------------------------------------------------
 Center     Atomic      Atomic             Coordinates (Angstroms)
 Number     Number       Type             X           Y           Z
 ---------------------------------------------------------------------
      1          6           0        1.920117   -0.187454   -0.186370
      2          6           0        0.561916    0.573330    0.149934
      3          1           0        2.656085    0.503074   -0.802294
      4          1           0        1.369046   -1.032393   -1.074553
      5          1           0        2.571375   -0.849523    0.931035
      6          6           0       -0.559565   -0.417940    0.226971
      7          1           0        0.193994    0.856224   -0.455476
      8          1           0        0.584040    1.651695    1.005502
      9          6           0       -1.909882    0.092877   -0.196497
     10          1           0       -0.498396   -1.107215    1.438718
     11          1           0       -0.294849   -0.775258   -0.256296
     12          1           0       -1.967472    0.765623    0.674167
     13          1           0       -2.939463   -0.911785   -0.281881
     14          1           0       -1.749873    0.534684   -1.143151
 ---------------------------------------------------------------------

 SCF Done:  E(RB2PLYPD3) =  -157.442409191     A.U. after   11 cycles
 E2(B2PLYPD3) =    -0.2561351586D+00 E(B2PLYPD3) =    -0.15769854435001D+03

 The electronic state is 1-A.
 Alpha  occ. eigenvalues --  -10.68397 -10.63635 -10.61108 -10.59718  -0.99228
 Alpha  occ. eigenvalues --   -0.82561  -0.73789  -0.71414  -0.55936  -0.49940
 Alpha  occ. eigenvalues --   -0.46376  -0.45208  -0.40926  -0.40110  -0.39753
 Alpha  occ. eigenvalues --   -0.36921  -0.34706
 Alpha virt. eigenvalues --    0.03404   0.04782   0.06582   0.07828   0.09446
 Alpha virt. eigenvalues --    0.10096   0.11415   0.12382   0.13493   0.14935
 Alpha virt. eigenvalues --    0.15332   0.16216   0.17750   0.18717   0.19530

 Mulliken charges:
               1
     1  C   -0.184225
     2  C   -0.384061
     3  H    0.071905
     4  H    0.026124
     5  H    0.058930
     6  C   -0.707266
     7  H    0.420546
     8  H    0.012244
     9  C   -0.151336
    10  H    0.010784
    11  H    0.634807
    12  H    0.086382
    13  H    0.038244
    14  H    0.066921
 Sum of Mulliken charges =   0.00000

 Dipole moment (field-independent basis, Debye):
    X=              0.1787    Y=              0.2914    Z=             -0.7445  Tot=              0.8192
 Quadrupole moment (field-independent basis, Debye-Ang):
   XX=            -30.8070   YY=            -30.4774   ZZ=            -28.8543
   XY=              0.5912   XZ=              0.4334   YZ=             -0.1620

 Normal termination of Gaussian 09 at Wed Aug 26 18:51:35 2020.
