 Gaussian 09, Revision D.01,
 Gaussian 09:  ES64L-G09RevD.01 24-Apr-2013

 --------------------
 #p B2PLYPD3/Def2QZVP
 --------------------

 ----------
 butane_opt
 ----------
 Symbolic Z-matrix:
 Charge =  0 Multiplicity = 1

                         Standard orientation:
 ---------------------------------------------------------------------
 Center     Atomic      Atomic             Coordinates (Angstroms)
 Number     Number       Type             X           Y           Z
 ---------------------------------------------------------------------
      1          6           0       -1.958381   -0.192506    0.081786
      2          6           0       -0.444220    0.642610   -0.047541
      3          1           0       -2.597616    0.462402   -0.207776
      4          1           0       -2.329718   -1.289663    1.030897
      5          1           0       -2.157105   -0.287249   -0.433987
      6          6           0        0.579472   -0.445945   -0.253885
      7          1           0       -0.358360    1.068830    0.728690
      8          1           0       -0.464129    1.317820   -1.002105
      9          6           0        1.856251    0.082127    0.161995
     10          1           0        0.537831   -0.953834   -1.143878
     11          1           0        0.469216   -1.154262    0.546373
     12          1           0        2.294648    0.279421   -0.332790
     13          1           0        2.849266   -0.765341   -0.038674
     14          1           0        1.557239    0.804159    1.199121
 ---------------------------------------------------------------------

 SCF Done:  E(RB2PLYPD3) =  -156.975888252     A.U. after   12 cycles
 E2(B2PLYPD3) =    -0.2535987814D+00 E(B2PLYPD3) =    -0.15722948703384D+03

 The electronic state is 1-A.
 Alpha  occ. eigenvalues --  -10.61347 -10.60104 -10.59513 -10.58699  -0.96426
 Alpha  occ. eigenvalues --   -0.92830  -0.82051  -0.71409  -0.58173  -0.51859
 Alpha  occ. eigenvalues --   -0.47955  -0.44598  -0.42488  -0.41268  -0.40006
 Alpha  occ. eigenvalues --   -0.35571  -0.32774
 Alpha virt. eigenvalues --    0.04194   0.04808   0.07116   0.07894   0.09727
 Alpha virt. eigenvalues --    0.10832   0.12371   0.12917   0.14649   0.15221
 Alpha virt. eigenvalues --    0.16447   0.16953   0.18225   0.19063   0.22156

 Mulliken charges:
               1
     1  C   -0.803320
     2  C   -0.107921
     3  H   -0.007274
     4  H    0.065115
     5  H    0.681452
     6  C    0.012341
     7  H    0.125020
     8  H    0.028565
     9  C   -0.576373
    10  H    0.039254
    11  H    0.068697
    12  H    0.430471
    13  H   -0.022443
    14  H    0.066416
 Sum of Mulliken charges =   0.00000

 Dipole moment (field-independent basis, Debye):
    X=             -0.2301    Y=              0.3897    Z=             -0.9000  Tot=              1.0074
 Quadrupole moment (field-independent basis, Debye-Ang):
   XX=            -30.0657   YY=            -28.8291   ZZ=            -27.4617
   XY=              0.6584   XZ=             -0.1400   YZ=             -0.1212

 Normal termination of Gaussian 09 at Wed Aug 26 16:19:10 2020.
