 Gaussian 09, Revision D.01,
 Gaussian 09:  ES64L-G09RevD.01 24-Apr-2013

 --------------------
 #p B2PLYPD3/Def2QZVP
 --------------------

 ----------
 butane_opt
 ----------
 Symbolic Z-matrix:
 Charge =  0 Multiplicity = 1

                         Standard orientation:
 ---------------------------------------------------------------------
 Center     Atomic      Atomic             Coordinates (Angstroms)
 Number     Number       Type             X           Y           Z
 ---------------------------------------------------------------------
      1          6           0       -1.990059   -0.155426   -0.166750
      2          6           0       -0.552189    0.565904    0.078373
      3          1           0       -2.678290    0.468844   -0.130827
      4          1           0       -2.404390   -0.734932    0.835046
      5          1           0       -2.087917   -0.863513   -0.971915
      6          6           0        0.603907   -0.401863    0.262046
      7          1           0       -0.678248    1.359586    0.855196
      8          1           0       -0.186743    1.215956   -0.781716
      9          6           0        1.932098    0.070631   -0.107334
     10          1           0        0.447253   -1.216651   -0.615648
     11          1           0        0.356921   -1.052719    1.267354
     12          1           0        1.763645    0.339648   -0.964876
     13          1           0        2.894277   -0.739436   -0.477672
     14          1           0        2.610954    0.747736    0.587051
 ---------------------------------------------------------------------

 SCF Done:  E(RB2PLYPD3) =  -157.986638619     A.U. after   11 cycles
 E2(B2PLYPD3) =    -0.2502154091D+00 E(B2PLYPD3) =    -0.15823685402785D+03

 The electronic state is 1-A.
 Alpha  occ. eigenvalues --  -10.63253 -10.62782 -10.61168 -10.60451  -0.91759
 Alpha  occ. eigenvalues --   -0.83864  -0.74533  -0.65295  -0.53980  -0.51059
 Alpha  occ. eigenvalues --   -0.48734  -0.46022  -0.43763  -0.41084  -0.39348
 Alpha  occ. eigenvalues --   -0.35805  -0.34635
 Alpha virt. eigenvalues --    0.05228   0.06213   0.07948   0.08455   0.09937
 Alpha virt. eigenvalues --    0.11029   0.12894   0.13457   0.14492   0.15144
 Alpha virt. eigenvalues --    0.16251   0.16496   0.18954   0.19543   0.21183

 Mulliken charges:
               1
     1  C   -0.148371
     2  C   -0.015234
     3  H    0.077517
     4  H    0.005303
     5  H    0.057386
     6  C   -0.038269
     7  H    0.025908
     8  H    0.011391
     9  C   -0.193893
    10  H    0.023037
    11  H    0.028610
    12  H    0.112166
    13  H    0.008841
    14  H    0.045608
 Sum of Mulliken charges =   0.00000

 Dipole moment (field-independent basis, Debye):
    X=             -0.3228    Y=              0.3635    Z=             -0.2958  Tot=              0.5690
 Quadrupole moment (field-independent basis, Debye-Ang):
   XX=            -28.7673   YY=            -29.8506   ZZ=            -28.8431
   XY=              0.3319   XZ=             -0.5382   YZ=              0.7511

 Normal termination of Gaussian 09 at Wed Aug 26 15:19:23 2020.
