 Gaussian 09, Revision D.01,
 Gaussian 09:  ES64L-G09RevD.01 24-Apr-2013

 --------------------
 #p B2PLYPD3/Def2QZVP
 --------------------

 ----------
 butane_opt
 ----------
 Symbolic Z-matrix:
 Charge =  0 Multiplicity = 1

                         Standard orientation:
 ---------------------------------------------------------------------
 Center     Atomic      Atomic             Coordinates (Angstroms)
 Number     Number       Type             X           Y           Z
 ---------------------------------------------------------------------
      1          6           0       -1.955101   -0.095959    0.075560
      2          6           0       -0.640706    0.549420   -0.131790
      3          1           0       -2.759778    0.755379    0.063926
      4          1           0       -1.978591   -0.755815    1.055931
      5          1           0       -2.147893   -0.714505   -0.780363
      6          6           0        0.590611   -0.573054    0.086911
      7          1           0       -0.618350    0.764833    0.491607
      8          1           0       -0.514798    1.263227   -1.146160
      9          6           0        2.058324    0.099454    0.001438
     10          1           0        0.405356   -1.355034   -0.866061
     11          1           0        0.254823   -1.043667    0.940649
     12          1           0        1.737325    0.232391   -0.546575
     13          1           0        2.749315   -0.559173   -0.508510
     14          1           0        2.553823    1.533197    1.102841
 ---------------------------------------------------------------------

 SCF Done:  E(RB2PLYPD3) =  -157.239571284     A.U. after   12 cycles
 E2(B2PLYPD3) =    -0.2567846678D+00 E(B2PLYPD3) =    -0.15749635595207D+03

 The electronic state is 1-A.
 Alpha  occ. eigenvalues --  -10.64440 -10.62050 -10.61824 -10.58944  -0.95917
 Alpha  occ. eigenvalues --   -0.91038  -0.74124  -0.69654  -0.55629  -0.50471
 Alpha  occ. eigenvalues --   -0.47745  -0.45428  -0.42603  -0.41614  -0.38732
 Alpha  occ. eigenvalues --   -0.36248  -0.33734
 Alpha virt. eigenvalues --   -0.01536   0.05362   0.07087   0.07708   0.10540
 Alpha virt. eigenvalues --    0.10688   0.11644   0.12310   0.14341   0.15025
 Alpha virt. eigenvalues --    0.15810   0.16302   0.17722   0.19212   0.20166

 Mulliken charges:
               1
     1  C   -0.107663
     2  C   -0.783877
     3  H    0.048693
     4  H    0.042507
     5  H    0.051727
     6  C   -0.041395
     7  H    0.675979
     8  H    0.065746
     9  C   -0.764582
    10  H    0.013182
    11  H    0.067812
    12  H    0.616722
    13  H    0.095092
    14  H    0.020057
 Sum of Mulliken charges =   0.00000

 Dipole moment (field-independent basis, Debye):
    X=             -0.6994    Y=             -0.1040    Z=             -0.5203  Tot=              0.8779
 Quadrupole moment (field-independent basis, Debye-Ang):
   XX=            -31.4452   YY=            -29.1938   ZZ=            -27.8388
   XY=             -0.6250   XZ=             -1.3643   YZ=              0.5035

 Normal termination of Gaussian 09 at Wed Aug 26 15:05:12 2020.
