 Gaussian 09, Revision D.01,
 Gaussian 09:  ES64L-G09RevD.01 24-Apr-2013

 --------------------
 #p B2PLYPD3/Def2QZVP
 --------------------

 ----------
 butane_opt
 ----------
 Symbolic Z-matrix:
 Charge =  0 Multiplicity = 1

                         Standard orientation:
 ---------------------------------------------------------------------
 Center     Atomic      Atomic             Coordinates (Angstroms)
 Number     Number       Type             X           Y           Z
 ---------------------------------------------------------------------
      1          6           0        1.920850    0.052273   -0.010138
      2          6           0        0.604514   -0.559500    0.001633
      3          1           0        2.819779   -0.726794    0.018258
      4          1           0        1.794816    0.583949    0.771008
      5          1           0        2.257701    0.853133   -0.953658
      6          6           0       -0.517486    0.621886    0.144426
      7          1           0        0.603606   -0.934172    0.732775
      8          1           0        0.497121   -1.108673   -0.909176
      9          6           0       -2.013238   -0.140408   -0.099751
     10          1           0       -0.092330    1.394297   -0.676830
     11          1           0       -0.303141    1.081112    1.020289
     12          1           0       -2.226586   -0.564803   -0.729220
     13          1           0       -2.706454    0.590944   -0.383296
     14          1           0       -2.612347   -1.014500    0.892831
 ---------------------------------------------------------------------

 SCF Done:  E(RB2PLYPD3) =  -157.783407335     A.U. after   11 cycles
 E2(B2PLYPD3) =    -0.2499582445D+00 E(B2PLYPD3) =    -0.15803336557960D+03

 The electronic state is 1-A.
 Alpha  occ. eigenvalues --  -10.63687 -10.61017 -10.60406 -10.57246  -0.93265
 Alpha  occ. eigenvalues --   -0.85293  -0.75423  -0.69509  -0.57192  -0.50720
 Alpha  occ. eigenvalues --   -0.47153  -0.46510  -0.44015  -0.40497  -0.39662
 Alpha  occ. eigenvalues --   -0.37428  -0.34485
 Alpha virt. eigenvalues --    0.04954   0.05629   0.08436   0.09147   0.09891
 Alpha virt. eigenvalues --    0.11228   0.12755   0.13066   0.14730   0.15417
 Alpha virt. eigenvalues --    0.15951   0.16258   0.18759   0.19560   0.20079

 Mulliken charges:
               1
     1  C   -0.171488
     2  C   -0.206884
     3  H    0.036229
     4  H    0.086439
     5  H    0.008661
     6  C   -0.080851
     7  H    0.218821
     8  H    0.048477
     9  C   -0.338206
    10  H    0.038835
    11  H    0.069766
    12  H    0.237054
    13  H    0.042089
    14  H    0.011059
 Sum of Mulliken charges =   0.00000

 Dipole moment (field-independent basis, Debye):
    X=              0.0325    Y=             -0.0522    Z=             -0.1279  Tot=              0.1419
 Quadrupole moment (field-independent basis, Debye-Ang):
   XX=            -30.2116   YY=            -29.0026   ZZ=            -28.1084
   XY=             -0.0402   XZ=              1.4599   YZ=              0.0786

 Normal termination of Gaussian 09 at Wed Aug 26 23:27:35 2020.
