 Gaussian 09, Revision D.01,
 Gaussian 09:  ES64L-G09RevD.01 24-Apr-2013

 --------------------
 #p B2PLYPD3/Def2QZVP
 --------------------

 ----------
 butane_opt
 ----------
 Symbolic Z-matrix:
 Charge =  0 Multiplicity = 1

                         Standard orientation:
 ---------------------------------------------------------------------
 Center     Atomic      Atomic             Coordinates (Angstroms)
 Number     Number       Type             X           Y           Z
 ---------------------------------------------------------------------
      1          6           0        1.994216   -0.167825   -0.132487
      2          6           0        0.509455    0.681792    0.167526
      3          1           0        2.673880    0.297580   -0.567003
      4          1           0        2.081245   -0.490652   -0.667443
      5          1           0        2.620603   -1.102553    1.070797
      6          6           0       -0.595028   -0.466817    0.091335
      7          1           0        0.254062    1.297581   -0.710608
      8          1           0        0.664467    1.343660    0.886806
      9          6           0       -2.006116    0.000415   -0.069309
     10          1           0       -0.412444   -0.958569    0.862665
     11          1           0       -0.464350   -1.397682   -0.909454
     12          1           0       -2.285313    0.722346    0.848967
     13          1           0       -2.745284   -0.812487   -0.046493
     14          1           0       -1.802029    0.815387   -1.110623
 ---------------------------------------------------------------------

 SCF Done:  E(RB2PLYPD3) =  -157.480187637     A.U. after   11 cycles
 E2(B2PLYPD3) =    -0.2532945688D+00 E(B2PLYPD3) =    -0.15773348220602D+03

 The electronic state is 1-A.
 Alpha  occ. eigenvalues --  -10.64002 -10.63213 -10.62375 -10.60149  -0.93408
 Alpha  occ. eigenvalues --   -0.88695  -0.77661  -0.68072  -0.54525  -0.49079
 Alpha  occ. eigenvalues --   -0.48332  -0.45582  -0.44123  -0.39288  -0.38184
 Alpha  occ. eigenvalues --   -0.36015  -0.34654
 Alpha virt. eigenvalues --    0.03450   0.04399   0.07226   0.08004   0.09938
 Alpha virt. eigenvalues --    0.10329   0.11923   0.12166   0.13900   0.14729
 Alpha virt. eigenvalues --    0.16321   0.16746   0.18462   0.19094   0.19757

 Mulliken charges:
               1
     1  C   -0.638030
     2  C   -0.041956
     3  H    0.038693
     4  H    0.531708
     5  H   -0.003344
     6  C   -0.046045
     7  H    0.024532
     8  H    0.073109
     9  C   -0.163385
    10  H    0.093012
    11  H   -0.004412
    12  H    0.030636
    13  H    0.076666
    14  H    0.028819
 Sum of Mulliken charges =   0.00000

 Dipole moment (field-independent basis, Debye):
    X=             -0.3057    Y=              0.2902    Z=             -0.1847  Tot=              0.4602
 Quadrupole moment (field-independent basis, Debye-Ang):
   XX=            -30.8150   YY=            -29.0387   ZZ=            -28.4638
   XY=              1.3798   XZ=             -2.4991   YZ=              0.0092

 Normal termination of Gaussian 09 at Wed Aug 26 18:35:29 2020.
