 Gaussian 09, Revision D.01,
 Gaussian 09:  ES64L-G09RevD.01 24-Apr-2013

 --------------------
 #p B2PLYPD3/Def2QZVP
 --------------------

 ----------
 butane_opt
 ----------
 Symbolic Z-matrix:
 Charge =  0 Multiplicity = 1

                         Standard orientation:
 ---------------------------------------------------------------------
 Center     Atomic      Atomic             Coordinates (Angstroms)
 Number     Number       Type             X           Y           Z
 ---------------------------------------------------------------------
      1          6           0       -1.851768    0.084839   -0.094165
      2          6           0       -0.656667   -0.459591    0.072819
      3          1           0       -2.639828   -0.770485   -0.045879
      4          1           0       -1.728689    0.661819   -0.979466
      5          1           0       -2.115047    0.623723    0.859062
      6          6           0        0.479192    0.625204   -0.012589
      7          1           0       -0.497493   -1.208546   -0.772841
      8          1           0       -0.416901   -1.256119    1.026434
      9          6           0        1.921249   -0.171242   -0.034523
     10          1           0        0.202647    1.614608    1.056951
     11          1           0        0.537023    0.959923   -0.748482
     12          1           0        2.248372   -0.917182    1.002631
     13          1           0        2.733920    0.627959   -0.122713
     14          1           0        2.323959   -0.810962   -0.864948
 ---------------------------------------------------------------------

 SCF Done:  E(RB2PLYPD3) =  -157.878008637     A.U. after   11 cycles
 E2(B2PLYPD3) =    -0.2527976287D+00 E(B2PLYPD3) =    -0.15813080626589D+03

 The electronic state is 1-A.
 Alpha  occ. eigenvalues --  -10.63767 -10.63140 -10.61715 -10.59666  -0.94342
 Alpha  occ. eigenvalues --   -0.84449  -0.71975  -0.66068  -0.54841  -0.53086
 Alpha  occ. eigenvalues --   -0.48533  -0.45472  -0.41227  -0.39671  -0.38575
 Alpha  occ. eigenvalues --   -0.36162  -0.34218
 Alpha virt. eigenvalues --    0.04509   0.05914   0.06606   0.08084   0.10181
 Alpha virt. eigenvalues --    0.11027   0.12006   0.12637   0.14311   0.15047
 Alpha virt. eigenvalues --    0.15236   0.16213   0.18520   0.19989   0.20113

 Mulliken charges:
               1
     1  C   -0.146989
     2  C   -0.005262
     3  H    0.037219
     4  H    0.072583
     5  H    0.039123
     6  C   -0.282811
     7  H    0.031914
     8  H    0.017736
     9  C   -0.157089
    10  H    0.012966
    11  H    0.272663
    12  H    0.023327
    13  H    0.036021
    14  H    0.048601
 Sum of Mulliken charges =   0.00000

 Dipole moment (field-independent basis, Debye):
    X=             -0.1181    Y=             -0.0610    Z=             -0.6644  Tot=              0.6775
 Quadrupole moment (field-independent basis, Debye-Ang):
   XX=            -30.4240   YY=            -29.5762   ZZ=            -28.8003
   XY=              0.1233   XZ=             -1.3524   YZ=             -0.3875

 Normal termination of Gaussian 09 at Wed Aug 26 13:53:38 2020.
