 Gaussian 09, Revision D.01,
 Gaussian 09:  ES64L-G09RevD.01 24-Apr-2013

 --------------------
 #p B2PLYPD3/Def2QZVP
 --------------------

 ----------
 butane_opt
 ----------
 Symbolic Z-matrix:
 Charge =  0 Multiplicity = 1

                         Standard orientation:
 ---------------------------------------------------------------------
 Center     Atomic      Atomic             Coordinates (Angstroms)
 Number     Number       Type             X           Y           Z
 ---------------------------------------------------------------------
      1          6           0       -1.832475    0.119267   -0.135570
      2          6           0       -0.594366   -0.417628    0.228943
      3          1           0       -2.800341   -0.901199   -0.688789
      4          1           0       -1.743196    0.214658   -0.917358
      5          1           0       -2.136366    1.101529    0.785874
      6          6           0        0.529518    0.510952   -0.002997
      7          1           0       -0.363542   -0.822530   -0.338075
      8          1           0       -0.969812   -1.119208    1.441498
      9          6           0        1.981810   -0.198214   -0.047508
     10          1           0        0.325992    1.187993    0.721861
     11          1           0        0.225677    0.961071   -0.942342
     12          1           0        2.138600   -0.301659    0.581766
     13          1           0        2.661721    0.576524    0.003863
     14          1           0        2.154343   -0.983445   -0.905510
 ---------------------------------------------------------------------

 SCF Done:  E(RB2PLYPD3) =  -157.306078688     A.U. after   12 cycles
 E2(B2PLYPD3) =    -0.2530842950D+00 E(B2PLYPD3) =    -0.15755916298251D+03

 The electronic state is 1-A.
 Alpha  occ. eigenvalues --  -10.62237 -10.60999 -10.58416 -10.58039  -0.98766
 Alpha  occ. eigenvalues --   -0.90400  -0.79197  -0.70339  -0.59574  -0.53480
 Alpha  occ. eigenvalues --   -0.48977  -0.47031  -0.44482  -0.41953  -0.39323
 Alpha  occ. eigenvalues --   -0.36225  -0.32268
 Alpha virt. eigenvalues --    0.02814   0.05960   0.06488   0.07932   0.09674
 Alpha virt. eigenvalues --    0.10973   0.11708   0.13769   0.14058   0.15078
 Alpha virt. eigenvalues --    0.15307   0.16865   0.18557   0.19319   0.20534

 Mulliken charges:
               1
     1  C   -0.357908
     2  C   -0.496516
     3  H   -0.022942
     4  H    0.286841
     5  H    0.053459
     6  C   -0.014525
     7  H    0.458333
     8  H    0.014057
     9  C   -0.619609
    10  H    0.055418
    11  H    0.046303
    12  H    0.464191
    13  H    0.051553
    14  H    0.081343
 Sum of Mulliken charges =   0.00000

 Dipole moment (field-independent basis, Debye):
    X=              1.1447    Y=              0.4517    Z=             -0.4881  Tot=              1.3238
 Quadrupole moment (field-independent basis, Debye-Ang):
   XX=            -31.2263   YY=            -29.6782   ZZ=            -27.6262
   XY=             -0.8091   XZ=              0.5994   YZ=              1.6885

 Normal termination of Gaussian 09 at Wed Aug 26 22:52:55 2020.
