 Gaussian 09, Revision D.01,
 Gaussian 09:  ES64L-G09RevD.01 24-Apr-2013

 --------------------
 #p B2PLYPD3/Def2QZVP
 --------------------

 ----------
 butane_opt
 ----------
 Symbolic Z-matrix:
 Charge =  0 Multiplicity = 1

                         Standard orientation:
 ---------------------------------------------------------------------
 Center     Atomic      Atomic             Coordinates (Angstroms)
 Number     Number       Type             X           Y           Z
 ---------------------------------------------------------------------
      1          6           0        2.020549    0.149140    0.045932
      2          6           0        0.542918   -0.528015   -0.203833
      3          1           0        2.887747   -0.692917    0.388980
      4          1           0        2.142627    0.910164    1.091803
      5          1           0        2.410068    0.578905   -0.651050
      6          6           0       -0.582714    0.445046   -0.157524
      7          1           0        0.390671   -1.168861    0.833403
      8          1           0        0.409208   -0.993622   -0.924433
      9          6           0       -1.993819   -0.131292    0.144418
     10          1           0       -0.904566    1.417046   -1.200685
     11          1           0       -0.375322    1.075072    0.660917
     12          1           0       -2.492115   -0.817500   -0.839178
     13          1           0       -2.752477    0.718209    0.679537
     14          1           0       -1.637438   -0.635773    0.986748
 ---------------------------------------------------------------------

 SCF Done:  E(RB2PLYPD3) =  -157.890709056     A.U. after   11 cycles
 E2(B2PLYPD3) =    -0.2527472808D+00 E(B2PLYPD3) =    -0.15814345633666D+03

 The electronic state is 1-A.
 Alpha  occ. eigenvalues --  -10.63688 -10.63633 -10.63109 -10.61931  -0.92043
 Alpha  occ. eigenvalues --   -0.82277  -0.74932  -0.65860  -0.55169  -0.48916
 Alpha  occ. eigenvalues --   -0.47664  -0.46491  -0.42420  -0.40187  -0.38304
 Alpha  occ. eigenvalues --   -0.37954  -0.33388
 Alpha virt. eigenvalues --    0.04874   0.05148   0.06620   0.08711   0.10066
 Alpha virt. eigenvalues --    0.10635   0.11225   0.13012   0.13359   0.15241
 Alpha virt. eigenvalues --    0.15958   0.16139   0.18310   0.19589   0.20249

 Mulliken charges:
               1
     1  C   -0.168872
     2  C   -0.112222
     3  H    0.022015
     4  H    0.019872
     5  H    0.112338
     6  C   -0.065181
     7  H    0.020012
     8  H    0.139017
     9  C   -0.162544
    10  H   -0.027332
    11  H    0.072329
    12  H    0.045218
    13  H    0.042671
    14  H    0.062679
 Sum of Mulliken charges =   0.00000

 Dipole moment (field-independent basis, Debye):
    X=              0.3285    Y=             -0.3096    Z=              0.3082  Tot=              0.5466
 Quadrupole moment (field-independent basis, Debye-Ang):
   XX=            -30.1527   YY=            -30.5446   ZZ=            -28.7324
   XY=             -0.0116   XZ=             -0.2117   YZ=              1.2029

 Normal termination of Gaussian 09 at Wed Aug 26 22:46:24 2020.
