 Gaussian 09, Revision D.01,
 Gaussian 09:  ES64L-G09RevD.01 24-Apr-2013

 --------------------
 #p B2PLYPD3/Def2QZVP
 --------------------

 ----------
 butane_opt
 ----------
 Symbolic Z-matrix:
 Charge =  0 Multiplicity = 1

                         Standard orientation:
 ---------------------------------------------------------------------
 Center     Atomic      Atomic             Coordinates (Angstroms)
 Number     Number       Type             X           Y           Z
 ---------------------------------------------------------------------
      1          6           0        1.903466    0.090702    0.120144
      2          6           0        0.486583   -0.515367   -0.220211
      3          1           0        2.885815   -0.822211    0.266539
      4          1           0        1.987848    1.113853    1.319267
      5          1           0        2.050107    0.584891   -0.595826
      6          6           0       -0.536728    0.533341   -0.267534
      7          1           0        0.127853   -1.318226    0.835862
      8          1           0        0.548137   -1.126089   -1.083070
      9          6           0       -1.850707   -0.129881    0.230048
     10          1           0       -0.675877    1.551529   -1.281105
     11          1           0        0.046698    0.904115    0.437609
     12          1           0       -2.618657   -0.933331   -0.829423
     13          1           0       -2.681326    0.660375    0.821804
     14          1           0       -1.686281   -0.487680    0.933665
 ---------------------------------------------------------------------

 SCF Done:  E(RB2PLYPD3) =  -157.679236816     A.U. after   11 cycles
 E2(B2PLYPD3) =    -0.2589482082D+00 E(B2PLYPD3) =    -0.15793818502413D+03

 The electronic state is 1-A.
 Alpha  occ. eigenvalues --  -10.65490 -10.64995 -10.63510 -10.63266  -0.94961
 Alpha  occ. eigenvalues --   -0.84310  -0.75324  -0.66374  -0.55494  -0.49834
 Alpha  occ. eigenvalues --   -0.47941  -0.43481  -0.41084  -0.38660  -0.37672
 Alpha  occ. eigenvalues --   -0.36026  -0.34639
 Alpha virt. eigenvalues --    0.02838   0.03707   0.05013   0.06969   0.08678
 Alpha virt. eigenvalues --    0.09777   0.10855   0.12454   0.13345   0.14362
 Alpha virt. eigenvalues --    0.15808   0.16263   0.17743   0.19103   0.19800

 Mulliken charges:
               1
     1  C   -0.262671
     2  C   -0.033016
     3  H    0.048496
     4  H    0.006739
     5  H    0.175142
     6  C   -0.082771
     7  H    0.006704
     8  H    0.062554
     9  C   -0.347065
    10  H    0.020486
    11  H    0.093683
    12  H    0.029127
    13  H    0.014222
    14  H    0.268370
 Sum of Mulliken charges =   0.00000

 Dipole moment (field-independent basis, Debye):
    X=              0.5388    Y=             -0.1913    Z=             -0.1256  Tot=              0.5854
 Quadrupole moment (field-independent basis, Debye-Ang):
   XX=            -31.7467   YY=            -30.5053   ZZ=            -29.1361
   XY=             -0.0531   XZ=             -1.2596   YZ=              0.0131

 Normal termination of Gaussian 09 at Wed Aug 26 22:34:52 2020.
