 Gaussian 09, Revision D.01,
 Gaussian 09:  ES64L-G09RevD.01 24-Apr-2013

 --------------------
 #p B2PLYPD3/Def2QZVP
 --------------------

 ----------
 butane_opt
 ----------
 Symbolic Z-matrix:
 Charge =  0 Multiplicity = 1

                         Standard orientation:
 ---------------------------------------------------------------------
 Center     Atomic      Atomic             Coordinates (Angstroms)
 Number     Number       Type             X           Y           Z
 ---------------------------------------------------------------------
      1          6           0        1.972723   -0.207376   -0.119381
      2          6           0        0.504014    0.564668    0.256048
      3          1           0        2.846943    0.668596   -0.483554
      4          1           0        1.707168   -1.029813   -1.109230
      5          1           0        2.407014   -0.811591    0.731959
      6          6           0       -0.618201   -0.348412    0.114086
      7          1           0        0.467757    1.020174   -0.559934
      8          1           0        0.433473    1.354725    1.198559
      9          6           0       -1.825453    0.076090   -0.171192
     10          1           0       -0.849466   -1.397328    1.164361
     11          1           0       -0.346397   -0.958267   -0.661480
     12          1           0       -2.224306    0.407810    0.532881
     13          1           0       -2.851764   -0.792079   -0.069229
     14          1           0       -1.788923    1.027954   -1.221693
 ---------------------------------------------------------------------

 SCF Done:  E(RB2PLYPD3) =  -157.812442989     A.U. after   12 cycles
 E2(B2PLYPD3) =    -0.2557193228D+00 E(B2PLYPD3) =    -0.15806816231168D+03

 The electronic state is 1-A.
 Alpha  occ. eigenvalues --  -10.66419 -10.62390 -10.62170 -10.61807  -0.96115
 Alpha  occ. eigenvalues --   -0.84102  -0.72420  -0.67376  -0.54673  -0.51975
 Alpha  occ. eigenvalues --   -0.48583  -0.45791  -0.41469  -0.40574  -0.38306
 Alpha  occ. eigenvalues --   -0.35228  -0.33014
 Alpha virt. eigenvalues --    0.03730   0.04610   0.05270   0.07548   0.09813
 Alpha virt. eigenvalues --    0.11055   0.11415   0.12827   0.13821   0.14013
 Alpha virt. eigenvalues --    0.15225   0.15786   0.17586   0.19161   0.19980

 Mulliken charges:
               1
     1  C   -0.172376
     2  C   -0.118415
     3  H    0.044265
     4  H    0.036937
     5  H    0.071994
     6  C   -0.005817
     7  H    0.129451
     8  H    0.037294
     9  C   -0.199451
    10  H   -0.052618
    11  H    0.073223
    12  H    0.130388
    13  H    0.019231
    14  H    0.005894
 Sum of Mulliken charges =   0.00000

 Dipole moment (field-independent basis, Debye):
    X=              0.1765    Y=              0.4535    Z=              0.0116  Tot=              0.4867
 Quadrupole moment (field-independent basis, Debye-Ang):
   XX=            -30.3428   YY=            -30.2019   ZZ=            -29.8321
   XY=              0.1429   XZ=             -1.2241   YZ=              0.2821

 Normal termination of Gaussian 09 at Wed Aug 26 12:05:00 2020.
