 Gaussian 09, Revision D.01,
 Gaussian 09:  ES64L-G09RevD.01 24-Apr-2013

 --------------------
 #p B2PLYPD3/Def2QZVP
 --------------------

 ----------
 butane_opt
 ----------
 Symbolic Z-matrix:
 Charge =  0 Multiplicity = 1

                         Standard orientation:
 ---------------------------------------------------------------------
 Center     Atomic      Atomic             Coordinates (Angstroms)
 Number     Number       Type             X           Y           Z
 ---------------------------------------------------------------------
      1          6           0       -1.935091   -0.175300    0.124579
      2          6           0       -0.501065    0.568784   -0.119531
      3          1           0       -2.665303    0.719608    0.403359
      4          1           0       -1.731996   -0.859538    1.000712
      5          1           0       -2.527334   -0.959803   -0.877523
      6          6           0        0.573894   -0.409346   -0.186913
      7          1           0       -0.443142    0.962690    0.535199
      8          1           0       -0.359363    1.483046   -1.015002
      9          6           0        1.948452    0.060878    0.103170
     10          1           0        0.251655   -0.897982   -0.955007
     11          1           0        0.352192   -1.128235    0.754119
     12          1           0        2.021650    0.408908   -0.571472
     13          1           0        2.818804   -0.826053    0.002458
     14          1           0        1.765701    0.827264    1.195334
 ---------------------------------------------------------------------

 SCF Done:  E(RB2PLYPD3) =  -157.694479457     A.U. after   11 cycles
 E2(B2PLYPD3) =    -0.2520268943D+00 E(B2PLYPD3) =    -0.15794650635118D+03

 The electronic state is 1-A.
 Alpha  occ. eigenvalues --  -10.65421 -10.60524 -10.59563 -10.59258  -0.95204
 Alpha  occ. eigenvalues --   -0.85587  -0.73288  -0.69980  -0.56459  -0.48910
 Alpha  occ. eigenvalues --   -0.48337  -0.46642  -0.42078  -0.40175  -0.38678
 Alpha  occ. eigenvalues --   -0.37798  -0.34938
 Alpha virt. eigenvalues --    0.04611   0.05580   0.07181   0.08478   0.10432
 Alpha virt. eigenvalues --    0.10757   0.12214   0.13447   0.14344   0.14723
 Alpha virt. eigenvalues --    0.15226   0.15833   0.18060   0.19689   0.21494

 Mulliken charges:
               1
     1  C   -0.171298
     2  C   -0.359211
     3  H    0.051702
     4  H    0.073054
     5  H    0.024883
     6  C   -0.018421
     7  H    0.329775
     8  H    0.012353
     9  C   -0.450808
    10  H    0.075086
    11  H   -0.006433
    12  H    0.338930
    13  H    0.051474
    14  H    0.048916
 Sum of Mulliken charges =   0.00000

 Dipole moment (field-independent basis, Debye):
    X=              0.1375    Y=              0.1864    Z=              0.0837  Tot=              0.2462
 Quadrupole moment (field-independent basis, Debye-Ang):
   XX=            -30.8641   YY=            -29.3538   ZZ=            -28.4995
   XY=             -0.5357   XZ=             -1.2125   YZ=              0.6772

 Normal termination of Gaussian 09 at Wed Aug 26 16:31:19 2020.
