 Gaussian 09, Revision D.01,
 Gaussian 09:  ES64L-G09RevD.01 24-Apr-2013

 --------------------
 #p B2PLYPD3/Def2QZVP
 --------------------

 ----------
 butane_opt
 ----------
 Symbolic Z-matrix:
 Charge =  0 Multiplicity = 1

                         Standard orientation:
 ---------------------------------------------------------------------
 Center     Atomic      Atomic             Coordinates (Angstroms)
 Number     Number       Type             X           Y           Z
 ---------------------------------------------------------------------
      1          6           0        1.908164    0.093571    0.133845
      2          6           0        0.535014   -0.435822   -0.214170
      3          1           0        2.937838   -0.904290   -0.064202
      4          1           0        1.911035    0.784192    1.355916
      5          1           0        2.162826    0.470493   -0.500077
      6          6           0       -0.506866    0.558343   -0.202794
      7          1           0        0.299774   -1.188908    0.622890
      8          1           0        0.501159   -0.758584   -0.955742
      9          6           0       -1.920443   -0.166088    0.181590
     10          1           0       -0.802560    1.575748   -1.127443
     11          1           0       -0.170647    0.919719    0.486344
     12          1           0       -2.664487   -1.021921   -0.834437
     13          1           0       -2.755098    0.467462    0.790135
     14          1           0       -1.515049   -0.643936    0.835797
 ---------------------------------------------------------------------

 SCF Done:  E(RB2PLYPD3) =  -157.589887992     A.U. after   11 cycles
 E2(B2PLYPD3) =    -0.2542669566D+00 E(B2PLYPD3) =    -0.15784415494894D+03

 The electronic state is 1-A.
 Alpha  occ. eigenvalues --  -10.63662 -10.63326 -10.61475 -10.58694  -0.96922
 Alpha  occ. eigenvalues --   -0.84977  -0.76171  -0.71488  -0.58255  -0.50170
 Alpha  occ. eigenvalues --   -0.47697  -0.45165  -0.42300  -0.41201  -0.37619
 Alpha  occ. eigenvalues --   -0.36475  -0.35490
 Alpha virt. eigenvalues --    0.03607   0.04157   0.06413   0.07812   0.09813
 Alpha virt. eigenvalues --    0.09994   0.11555   0.12677   0.13521   0.14769
 Alpha virt. eigenvalues --    0.15718   0.16551   0.17576   0.18946   0.21147

 Mulliken charges:
               1
     1  C   -0.382451
     2  C   -0.205349
     3  H    0.004619
     4  H    0.045898
     5  H    0.289111
     6  C   -0.220056
     7  H    0.051625
     8  H    0.213524
     9  C   -0.230527
    10  H    0.014858
    11  H    0.213502
    12  H    0.020255
    13  H    0.039964
    14  H    0.145026
 Sum of Mulliken charges =   0.00000

 Dipole moment (field-independent basis, Debye):
    X=              0.2214    Y=              0.1078    Z=              0.2267  Tot=              0.3347
 Quadrupole moment (field-independent basis, Debye-Ang):
   XX=            -31.4723   YY=            -30.1298   ZZ=            -28.3126
   XY=              0.1747   XZ=             -1.3796   YZ=              0.6480

 Normal termination of Gaussian 09 at Wed Aug 26 22:05:19 2020.
