 Gaussian 09, Revision D.01,
 Gaussian 09:  ES64L-G09RevD.01 24-Apr-2013

 --------------------
 #p B2PLYPD3/Def2QZVP
 --------------------

 ----------
 butane_opt
 ----------
 Symbolic Z-matrix:
 Charge =  0 Multiplicity = 1

                         Standard orientation:
 ---------------------------------------------------------------------
 Center     Atomic      Atomic             Coordinates (Angstroms)
 Number     Number       Type             X           Y           Z
 ---------------------------------------------------------------------
      1          6           0        1.979335    0.040996   -0.194923
      2          6           0        0.579027   -0.437908    0.227267
      3          1           0        2.720843   -0.628306   -0.545338
      4          1           0        2.126692    0.906756    0.825335
      5          1           0        1.836415    0.439471   -0.986308
      6          6           0       -0.505677    0.552974    0.107989
      7          1           0        0.676790   -1.283716    1.420555
      8          1           0        0.710058   -0.917806   -0.382887
      9          6           0       -2.064591   -0.133140   -0.130363
     10          1           0       -0.283782    1.076154   -0.631278
     11          1           0       -0.388709    1.489904    1.039196
     12          1           0       -1.898619   -1.035591   -1.081978
     13          1           0       -2.732554    0.574802   -0.582766
     14          1           0       -2.695698   -0.759202    0.865646
 ---------------------------------------------------------------------

 SCF Done:  E(RB2PLYPD3) =  -157.746538861     A.U. after   11 cycles
 E2(B2PLYPD3) =    -0.2540329430D+00 E(B2PLYPD3) =    -0.15800057180376D+03

 The electronic state is 1-A.
 Alpha  occ. eigenvalues --  -10.66406 -10.63713 -10.60859 -10.60453  -0.95052
 Alpha  occ. eigenvalues --   -0.82966  -0.73696  -0.69883  -0.54304  -0.50650
 Alpha  occ. eigenvalues --   -0.49822  -0.44139  -0.42761  -0.40838  -0.37824
 Alpha  occ. eigenvalues --   -0.36036  -0.33186
 Alpha virt. eigenvalues --    0.04326   0.05281   0.07297   0.07668   0.10243
 Alpha virt. eigenvalues --    0.10804   0.11826   0.12244   0.12957   0.14728
 Alpha virt. eigenvalues --    0.15956   0.16994   0.18117   0.19350   0.19413

 Mulliken charges:
               1
     1  C   -0.215214
     2  C   -0.351014
     3  H    0.054463
     4  H    0.028100
     5  H    0.107288
     6  C   -0.052558
     7  H   -0.005275
     8  H    0.354848
     9  C   -0.182337
    10  H    0.098301
    11  H    0.009345
    12  H    0.022763
    13  H    0.074875
    14  H    0.056415
 Sum of Mulliken charges =   0.00000

 Dipole moment (field-independent basis, Debye):
    X=             -0.0431    Y=              0.1221    Z=             -1.2297  Tot=              1.2364
 Quadrupole moment (field-independent basis, Debye-Ang):
   XX=            -30.0032   YY=            -30.0858   ZZ=            -28.7815
   XY=             -1.4074   XZ=             -1.5569   YZ=              0.2581

 Normal termination of Gaussian 09 at Wed Aug 26 10:44:31 2020.
