 Gaussian 09, Revision D.01,
 Gaussian 09:  ES64L-G09RevD.01 24-Apr-2013

 --------------------
 #p B2PLYPD3/Def2QZVP
 --------------------

 ----------
 butane_opt
 ----------
 Symbolic Z-matrix:
 Charge =  0 Multiplicity = 1

                         Standard orientation:
 ---------------------------------------------------------------------
 Center     Atomic      Atomic             Coordinates (Angstroms)
 Number     Number       Type             X           Y           Z
 ---------------------------------------------------------------------
      1          6           0        1.901118    0.067353   -0.113777
      2          6           0        0.636369   -0.463059    0.125763
      3          1           0        2.674889   -0.786666    0.189724
      4          1           0        2.364557    0.585813    0.609235
      5          1           0        1.992309    0.779850   -1.302551
      6          6           0       -0.565897    0.654980    0.086140
      7          1           0        0.475706   -1.317445    1.130770
      8          1           0        0.533059   -1.151410   -0.703632
      9          6           0       -2.004852   -0.218508   -0.095128
     10          1           0       -0.265449    0.865211   -0.547949
     11          1           0       -0.570397    1.897761    1.212343
     12          1           0       -1.737662   -0.588527   -0.840371
     13          1           0       -2.730753    0.266962   -0.672295
     14          1           0       -2.536687   -0.796143    0.906734
 ---------------------------------------------------------------------

 SCF Done:  E(RB2PLYPD3) =  -157.639511159     A.U. after   12 cycles
 E2(B2PLYPD3) =    -0.2561742644D+00 E(B2PLYPD3) =    -0.15789568542359D+03

 The electronic state is 1-A.
 Alpha  occ. eigenvalues --  -10.63707 -10.63557 -10.62587 -10.60788  -0.93796
 Alpha  occ. eigenvalues --   -0.85927  -0.77887  -0.67425  -0.53170  -0.49938
 Alpha  occ. eigenvalues --   -0.47756  -0.46927  -0.43208  -0.41698  -0.36424
 Alpha  occ. eigenvalues --   -0.34152  -0.33898
 Alpha virt. eigenvalues --    0.03098   0.04975   0.05894   0.06619   0.09932
 Alpha virt. eigenvalues --    0.10868   0.11973   0.12580   0.13500   0.15278
 Alpha virt. eigenvalues --    0.15619   0.16178   0.17491   0.18413   0.20857

 Mulliken charges:
               1
     1  C   -0.145046
     2  C   -0.026294
     3  H    0.033947
     4  H    0.063093
     5  H    0.025947
     6  C   -0.530942
     7  H   -0.001868
     8  H    0.065022
     9  C   -0.230540
    10  H    0.489658
    11  H   -0.014311
    12  H    0.152928
    13  H    0.041553
    14  H    0.076854
 Sum of Mulliken charges =   0.00000

 Dipole moment (field-independent basis, Debye):
    X=              0.0546    Y=             -0.6090    Z=             -0.6494  Tot=              0.8919
 Quadrupole moment (field-independent basis, Debye-Ang):
   XX=            -28.7996   YY=            -30.8044   ZZ=            -28.4178
   XY=              0.8011   XZ=              1.3651   YZ=             -0.9040

 Normal termination of Gaussian 09 at Wed Aug 26 23:06:15 2020.
