 Gaussian 09, Revision D.01,
 Gaussian 09:  ES64L-G09RevD.01 24-Apr-2013

 --------------------
 #p B2PLYPD3/Def2QZVP
 --------------------

 ----------
 butane_opt
 ----------
 Symbolic Z-matrix:
 Charge =  0 Multiplicity = 1

                         Standard orientation:
 ---------------------------------------------------------------------
 Center     Atomic      Atomic             Coordinates (Angstroms)
 Number     Number       Type             X           Y           Z
 ---------------------------------------------------------------------
      1          6           0        1.829687   -0.037063    0.117785
      2          6           0        0.639372    0.378330   -0.228409
      3          1           0        2.551890    0.646761   -0.065719
      4          1           0        2.243800   -0.405367   -0.478323
      5          1           0        1.622939   -0.687995    1.170041
      6          6           0       -0.452387   -0.540683    0.041869
      7          1           0        0.480770    0.999242   -1.212261
      8          1           0        0.352938    1.237349    0.646123
      9          6           0       -1.941991    0.164852   -0.004633
     10          1           0       -0.299131   -1.027679    1.057989
     11          1           0       -0.239306   -1.366678   -0.834697
     12          1           0       -2.463587    1.482655    1.008238
     13          1           0       -2.680284   -0.802727   -0.336383
     14          1           0       -2.018107    0.131813   -0.514683
 ---------------------------------------------------------------------

 SCF Done:  E(RB2PLYPD3) =  -156.914667206     A.U. after   13 cycles
 E2(B2PLYPD3) =    -0.2588109586D+00 E(B2PLYPD3) =    -0.15717347816464D+03

 The electronic state is 1-A.
 Alpha  occ. eigenvalues --  -10.66226 -10.63616 -10.60819 -10.56327  -0.96873
 Alpha  occ. eigenvalues --   -0.91990  -0.80399  -0.66049  -0.57557  -0.53242
 Alpha  occ. eigenvalues --   -0.48020  -0.44896  -0.41029  -0.39984  -0.37896
 Alpha  occ. eigenvalues --   -0.36390  -0.31793
 Alpha virt. eigenvalues --   -0.00197   0.05203   0.06041   0.07196   0.09183
 Alpha virt. eigenvalues --    0.10055   0.12323   0.12871   0.13995   0.15063
 Alpha virt. eigenvalues --    0.15826   0.16707   0.18462   0.19052   0.21128

 Mulliken charges:
               1
     1  C   -0.262124
     2  C    0.007705
     3  H    0.041875
     4  H    0.151882
     5  H    0.061639
     6  C   -0.008826
     7  H    0.023027
     8  H   -0.008868
     9  C   -1.012980
    10  H    0.048800
    11  H    0.009395
    12  H    0.077568
    13  H    0.033435
    14  H    0.837470
 Sum of Mulliken charges =   0.00000

 Dipole moment (field-independent basis, Debye):
    X=              0.6170    Y=             -0.0004    Z=             -0.7391  Tot=              0.9628
 Quadrupole moment (field-independent basis, Debye-Ang):
   XX=            -29.3853   YY=            -29.7460   ZZ=            -27.9549
   XY=             -0.7754   XZ=             -0.6779   YZ=              0.4687

 Normal termination of Gaussian 09 at Wed Aug 26 10:39:29 2020.
