 Gaussian 09, Revision D.01,
 Gaussian 09:  ES64L-G09RevD.01 24-Apr-2013

 --------------------
 #p B2PLYPD3/Def2QZVP
 --------------------

 ----------
 butane_opt
 ----------
 Symbolic Z-matrix:
 Charge =  0 Multiplicity = 1

                         Standard orientation:
 ---------------------------------------------------------------------
 Center     Atomic      Atomic             Coordinates (Angstroms)
 Number     Number       Type             X           Y           Z
 ---------------------------------------------------------------------
      1          6           0        1.944869   -0.135418   -0.043011
      2          6           0        0.543213    0.528683    0.014794
      3          1           0        2.752051    0.676828    0.047967
      4          1           0        2.185213   -0.929244   -0.967128
      5          1           0        1.947943   -0.669124    0.796526
      6          6           0       -0.556373   -0.490645    0.076794
      7          1           0        0.387523    1.048787   -0.813017
      8          1           0        0.534102    1.246412    0.902579
      9          6           0       -1.952613    0.101395   -0.059135
     10          1           0       -0.437542   -1.142448    0.997638
     11          1           0       -0.468005   -1.092513   -0.690899
     12          1           0       -2.040326    0.758527    0.783320
     13          1           0       -2.748177   -0.656096   -0.021961
     14          1           0       -1.987358    0.734780   -0.971670
 ---------------------------------------------------------------------

 SCF Done:  E(RB2PLYPD3) =  -158.083827864     A.U. after   11 cycles
 E2(B2PLYPD3) =    -0.2462713603D+00 E(B2PLYPD3) =    -0.15833009922468D+03

 The electronic state is 1-A.
 Alpha  occ. eigenvalues --  -10.60821 -10.59770 -10.59732 -10.59030  -0.92019
 Alpha  occ. eigenvalues --   -0.83103  -0.72673  -0.67508  -0.54964  -0.49828
 Alpha  occ. eigenvalues --   -0.48384  -0.47036  -0.43017  -0.40982  -0.38780
 Alpha  occ. eigenvalues --   -0.38491  -0.37721
 Alpha virt. eigenvalues --    0.05844   0.06796   0.08245   0.08742   0.10997
 Alpha virt. eigenvalues --    0.11966   0.12919   0.14124   0.14628   0.15244
 Alpha virt. eigenvalues --    0.15562   0.16269   0.19738   0.20292   0.21796

 Mulliken charges:
               1
     1  C   -0.167976
     2  C   -0.041340
     3  H    0.041594
     4  H    0.026140
     5  H    0.070406
     6  C   -0.054506
     7  H    0.053845
     8  H    0.017569
     9  C   -0.150044
    10  H    0.009571
    11  H    0.059240
    12  H    0.045099
    13  H    0.048791
    14  H    0.041610
 Sum of Mulliken charges =   0.00000

 Dipole moment (field-independent basis, Debye):
    X=             -0.0815    Y=             -0.0114    Z=              0.0157  Tot=              0.0838
 Quadrupole moment (field-independent basis, Debye-Ang):
   XX=            -30.2121   YY=            -28.6702   ZZ=            -28.1763
   XY=              0.6368   XZ=              0.3354   YZ=              0.1487

 Normal termination of Gaussian 09 at Wed Aug 26 10:06:23 2020.
