 Gaussian 09, Revision D.01,
 Gaussian 09:  ES64L-G09RevD.01 24-Apr-2013

 --------------------
 #p B2PLYPD3/Def2QZVP
 --------------------

 ----------
 butane_opt
 ----------
 Symbolic Z-matrix:
 Charge =  0 Multiplicity = 1

                         Standard orientation:
 ---------------------------------------------------------------------
 Center     Atomic      Atomic             Coordinates (Angstroms)
 Number     Number       Type             X           Y           Z
 ---------------------------------------------------------------------
      1          6           0       -2.002282   -0.092796   -0.106302
      2          6           0       -0.542351    0.492358    0.018473
      3          1           0       -2.676329    0.454722   -0.338126
      4          1           0       -2.063162   -0.604635    0.926158
      5          1           0       -2.260543   -0.822680   -0.929832
      6          6           0        0.573975   -0.497221    0.260704
      7          1           0       -0.456845    1.636277    1.025235
      8          1           0       -0.056314    0.925063   -0.855465
      9          6           0        1.939393    0.067822   -0.162751
     10          1           0        0.592135   -0.939450   -0.536593
     11          1           0        0.425011   -1.175213    1.319862
     12          1           0        1.781127    0.285820   -0.943789
     13          1           0        2.549061   -0.612197   -0.504567
     14          1           0        2.353449    1.031320    0.776371
 ---------------------------------------------------------------------

 SCF Done:  E(RB2PLYPD3) =  -157.802499268     A.U. after   11 cycles
 E2(B2PLYPD3) =    -0.2519682222D+00 E(B2PLYPD3) =    -0.15805446749063D+03

 The electronic state is 1-A.
 Alpha  occ. eigenvalues --  -10.65059 -10.60903 -10.60229 -10.59536  -0.95173
 Alpha  occ. eigenvalues --   -0.85809  -0.77440  -0.66074  -0.55234  -0.52854
 Alpha  occ. eigenvalues --   -0.48828  -0.45718  -0.44606  -0.40927  -0.38501
 Alpha  occ. eigenvalues --   -0.36513  -0.33607
 Alpha virt. eigenvalues --    0.04856   0.06476   0.06664   0.07994   0.09866
 Alpha virt. eigenvalues --    0.11185   0.11937   0.13361   0.13909   0.15038
 Alpha virt. eigenvalues --    0.15889   0.17359   0.18611   0.19485   0.19882

 Mulliken charges:
               1
     1  C   -0.152767
     2  C   -0.029196
     3  H    0.086888
     4  H    0.058096
     5  H    0.014489
     6  C   -0.139670
     7  H   -0.034039
     8  H    0.031024
     9  C   -0.318066
    10  H    0.156201
    11  H    0.023529
    12  H    0.204331
    13  H    0.057823
    14  H    0.041358
 Sum of Mulliken charges =   0.00000

 Dipole moment (field-independent basis, Debye):
    X=             -0.1576    Y=             -0.6762    Z=             -1.0988  Tot=              1.2998
 Quadrupole moment (field-independent basis, Debye-Ang):
   XX=            -28.9947   YY=            -30.8871   ZZ=            -27.8616
   XY=             -0.4421   XZ=             -0.5753   YZ=              0.1424

 Normal termination of Gaussian 09 at Wed Aug 26 15:52:16 2020.
