 Gaussian 09, Revision D.01,
 Gaussian 09:  ES64L-G09RevD.01 24-Apr-2013

 --------------------
 #p B2PLYPD3/Def2QZVP
 --------------------

 ----------
 butane_opt
 ----------
 Symbolic Z-matrix:
 Charge =  0 Multiplicity = 1

                         Standard orientation:
 ---------------------------------------------------------------------
 Center     Atomic      Atomic             Coordinates (Angstroms)
 Number     Number       Type             X           Y           Z
 ---------------------------------------------------------------------
      1          6           0       -1.985614   -0.200229    0.131514
      2          6           0       -0.521432    0.613453   -0.272155
      3          1           0       -2.782824    0.508285    0.856054
      4          1           0       -1.517680   -0.550766    0.964725
      5          1           0       -3.012242   -0.904560   -0.813083
      6          6           0        0.607623   -0.472030   -0.153511
      7          1           0       -0.648278    1.083500    0.603335
      8          1           0       -0.340318    1.471486   -1.187939
      9          6           0        1.899534    0.009672    0.158342
     10          1           0        0.854342   -1.138863   -1.130048
     11          1           0        0.511585   -1.129958    0.814107
     12          1           0        2.252740    0.666175   -0.729805
     13          1           0        2.591142   -0.706726    0.083482
     14          1           0        2.090871    0.996235    1.354034
 ---------------------------------------------------------------------

 SCF Done:  E(RB2PLYPD3) =  -157.842756940     A.U. after   11 cycles
 E2(B2PLYPD3) =    -0.2585785137D+00 E(B2PLYPD3) =    -0.15810133545345D+03

 The electronic state is 1-A.
 Alpha  occ. eigenvalues --  -10.66673 -10.64880 -10.63860 -10.63397  -0.92444
 Alpha  occ. eigenvalues --   -0.83811  -0.70856  -0.65031  -0.53505  -0.50641
 Alpha  occ. eigenvalues --   -0.47996  -0.45668  -0.41149  -0.38266  -0.37851
 Alpha  occ. eigenvalues --   -0.34832  -0.34026
 Alpha virt. eigenvalues --    0.03296   0.04267   0.06078   0.07026   0.07766
 Alpha virt. eigenvalues --    0.09785   0.11463   0.11940   0.13285   0.14343
 Alpha virt. eigenvalues --    0.16306   0.16516   0.17031   0.18576   0.20232

 Mulliken charges:
               1
     1  C   -0.205006
     2  C   -0.128147
     3  H    0.015522
     4  H    0.109971
     5  H    0.046712
     6  C   -0.025011
     7  H    0.115967
     8  H    0.045103
     9  C   -0.138566
    10  H    0.037912
    11  H    0.034746
    12  H    0.019771
    13  H    0.084979
    14  H   -0.013955
 Sum of Mulliken charges =   0.00000

 Dipole moment (field-independent basis, Debye):
    X=              0.4541    Y=             -0.1836    Z=             -0.0523  Tot=              0.4926
 Quadrupole moment (field-independent basis, Debye-Ang):
   XX=            -31.6987   YY=            -30.5455   ZZ=            -29.2156
   XY=             -1.6480   XZ=             -1.8221   YZ=              0.0869

 Normal termination of Gaussian 09 at Wed Aug 26 13:00:27 2020.
