 Gaussian 09, Revision D.01,
 Gaussian 09:  ES64L-G09RevD.01 24-Apr-2013

 --------------------
 #p B2PLYPD3/Def2QZVP
 --------------------

 ----------
 butane_opt
 ----------
 Symbolic Z-matrix:
 Charge =  0 Multiplicity = 1

                         Standard orientation:
 ---------------------------------------------------------------------
 Center     Atomic      Atomic             Coordinates (Angstroms)
 Number     Number       Type             X           Y           Z
 ---------------------------------------------------------------------
      1          6           0       -1.983747    0.087781   -0.150341
      2          6           0       -0.607024   -0.451374    0.107703
      3          1           0       -2.911132   -0.797337   -0.087041
      4          1           0       -1.816955    0.597669   -1.028969
      5          1           0       -2.050768    0.684746    0.781016
      6          6           0        0.494783    0.554636    0.101372
      7          1           0       -0.239729   -0.687211   -0.564625
      8          1           0       -0.655848   -1.361349    1.192172
      9          6           0        2.038218   -0.143835   -0.122801
     10          1           0        0.617006    1.445354    1.133514
     11          1           0        0.366502    1.171887   -0.791566
     12          1           0        2.196138   -0.664299    0.766169
     13          1           0        2.724316    0.307177   -0.018870
     14          1           0        2.117091   -0.979881   -0.997396
 ---------------------------------------------------------------------

 SCF Done:  E(RB2PLYPD3) =  -157.796697146     A.U. after   11 cycles
 E2(B2PLYPD3) =    -0.2518030944D+00 E(B2PLYPD3) =    -0.15804850024078D+03

 The electronic state is 1-A.
 Alpha  occ. eigenvalues --  -10.65452 -10.61705 -10.60483 -10.59199  -0.94861
 Alpha  occ. eigenvalues --   -0.84536  -0.76804  -0.66242  -0.55187  -0.50591
 Alpha  occ. eigenvalues --   -0.48003  -0.46737  -0.43959  -0.41182  -0.38530
 Alpha  occ. eigenvalues --   -0.36137  -0.35067
 Alpha virt. eigenvalues --    0.04864   0.06451   0.07052   0.07850   0.10478
 Alpha virt. eigenvalues --    0.11791   0.12299   0.14016   0.14249   0.14462
 Alpha virt. eigenvalues --    0.15195   0.16177   0.18766   0.19474   0.21147

 Mulliken charges:
               1
     1  C   -0.140890
     2  C   -0.321275
     3  H    0.042064
     4  H    0.068848
     5  H    0.064063
     6  C   -0.064710
     7  H    0.315298
     8  H    0.004338
     9  C   -0.241463
    10  H   -0.013348
    11  H    0.050947
    12  H    0.044601
    13  H    0.159540
    14  H    0.031986
 Sum of Mulliken charges =   0.00000

 Dipole moment (field-independent basis, Debye):
    X=              0.3078    Y=             -0.0141    Z=             -0.3882  Tot=              0.4957
 Quadrupole moment (field-independent basis, Debye-Ang):
   XX=            -29.0289   YY=            -30.2507   ZZ=            -28.5074
   XY=              0.5025   XZ=              0.0891   YZ=             -0.1973

 Normal termination of Gaussian 09 at Wed Aug 26 20:16:25 2020.
