 Gaussian 09, Revision D.01,
 Gaussian 09:  ES64L-G09RevD.01 24-Apr-2013

 --------------------
 #p B2PLYPD3/Def2QZVP
 --------------------

 ----------
 butane_opt
 ----------
 Symbolic Z-matrix:
 Charge =  0 Multiplicity = 1

                         Standard orientation:
 ---------------------------------------------------------------------
 Center     Atomic      Atomic             Coordinates (Angstroms)
 Number     Number       Type             X           Y           Z
 ---------------------------------------------------------------------
      1          6           0        2.030612   -0.078505   -0.110762
      2          6           0        0.592828    0.439599    0.145252
      3          1           0        3.026372    0.847589   -0.054219
      4          1           0        1.674698   -0.601051   -0.997244
      5          1           0        2.086544   -0.904888    0.767999
      6          6           0       -0.522486   -0.595930   -0.091992
      7          1           0        0.501697    1.055802   -0.544701
      8          1           0        0.647428    1.326003    1.224612
      9          6           0       -2.038290    0.134743   -0.050995
     10          1           0       -0.627978   -1.371601    0.828955
     11          1           0       -0.173374   -0.956050   -0.773009
     12          1           0       -1.994278    0.463213    0.810406
     13          1           0       -2.791086   -0.492115    0.494195
     14          1           0       -2.726004    1.233662   -1.106010
 ---------------------------------------------------------------------

 SCF Done:  E(RB2PLYPD3) =  -157.760107679     A.U. after   11 cycles
 E2(B2PLYPD3) =    -0.2565089481D+00 E(B2PLYPD3) =    -0.15801661662671D+03

 The electronic state is 1-A.
 Alpha  occ. eigenvalues --  -10.64475 -10.64366 -10.62921 -10.61965  -0.93230
 Alpha  occ. eigenvalues --   -0.83672  -0.76083  -0.67597  -0.54107  -0.48640
 Alpha  occ. eigenvalues --   -0.47361  -0.45842  -0.42283  -0.38559  -0.37945
 Alpha  occ. eigenvalues --   -0.35910  -0.35332
 Alpha virt. eigenvalues --    0.01738   0.04351   0.06638   0.07568   0.09905
 Alpha virt. eigenvalues --    0.10541   0.11829   0.12305   0.14052   0.14435
 Alpha virt. eigenvalues --    0.15260   0.16087   0.18000   0.18312   0.19754

 Mulliken charges:
               1
     1  C   -0.188206
     2  C   -0.092464
     3  H    0.066831
     4  H    0.061137
     5  H    0.042296
     6  C   -0.179916
     7  H    0.116146
     8  H   -0.029675
     9  C   -0.240412
    10  H    0.020514
    11  H    0.197280
    12  H    0.146839
    13  H    0.046164
    14  H    0.033466
 Sum of Mulliken charges =   0.00000

 Dipole moment (field-independent basis, Debye):
    X=              0.0931    Y=             -0.1974    Z=              0.1840  Tot=              0.2855
 Quadrupole moment (field-independent basis, Debye-Ang):
   XX=            -30.9934   YY=            -29.9790   ZZ=            -29.1805
   XY=              1.0149   XZ=             -1.7071   YZ=             -1.0872

 Normal termination of Gaussian 09 at Wed Aug 26 18:42:32 2020.
