 Gaussian 09, Revision D.01,
 Gaussian 09:  ES64L-G09RevD.01 24-Apr-2013

 --------------------
 #p B2PLYPD3/Def2QZVP
 --------------------

 ----------
 butane_opt
 ----------
 Symbolic Z-matrix:
 Charge =  0 Multiplicity = 1

                         Standard orientation:
 ---------------------------------------------------------------------
 Center     Atomic      Atomic             Coordinates (Angstroms)
 Number     Number       Type             X           Y           Z
 ---------------------------------------------------------------------
      1          6           0        1.989990    0.133976   -0.203590
      2          6           0        0.625023   -0.581719    0.299100
      3          1           0        2.771382   -0.672632   -0.605972
      4          1           0        2.653618    0.912939    0.682450
      5          1           0        1.908574    0.688651   -1.117528
      6          6           0       -0.618206    0.501679    0.111199
      7          1           0        0.448487   -1.248367    1.466015
      8          1           0        0.266118   -0.970466   -0.316996
      9          6           0       -1.938820   -0.113546   -0.180445
     10          1           0       -0.279747    0.926914   -0.612347
     11          1           0       -1.016602    1.730108    1.214943
     12          1           0       -2.275109   -1.024920   -1.120821
     13          1           0       -2.576755    0.644149   -0.402924
     14          1           0       -2.247883   -0.628724    0.655599
 ---------------------------------------------------------------------

 SCF Done:  E(RB2PLYPD3) =  -157.780165977     A.U. after   12 cycles
 E2(B2PLYPD3) =    -0.2549567829D+00 E(B2PLYPD3) =    -0.15803512276030D+03

 The electronic state is 1-A.
 Alpha  occ. eigenvalues --  -10.65259 -10.64638 -10.63328 -10.61368  -0.92908
 Alpha  occ. eigenvalues --   -0.83554  -0.74143  -0.68985  -0.52324  -0.51239
 Alpha  occ. eigenvalues --   -0.48499  -0.44188  -0.42940  -0.41340  -0.39763
 Alpha  occ. eigenvalues --   -0.36289  -0.32450
 Alpha virt. eigenvalues --    0.01993   0.05290   0.05778   0.07410   0.10370
 Alpha virt. eigenvalues --    0.10863   0.12144   0.12479   0.13638   0.14377
 Alpha virt. eigenvalues --    0.15377   0.16223   0.18100   0.18540   0.19714

 Mulliken charges:
               1
     1  C   -0.137566
     2  C   -0.340332
     3  H    0.038390
     4  H    0.045163
     5  H    0.059582
     6  C   -0.127990
     7  H    0.048373
     8  H    0.333250
     9  C   -0.143748
    10  H    0.130977
    11  H   -0.047889
    12  H   -0.001808
    13  H    0.071749
    14  H    0.071848
 Sum of Mulliken charges =   0.00000

 Dipole moment (field-independent basis, Debye):
    X=             -0.0257    Y=             -0.4156    Z=             -0.8438  Tot=              0.9409
 Quadrupole moment (field-independent basis, Debye-Ang):
   XX=            -29.3073   YY=            -30.5862   ZZ=            -29.3954
   XY=              0.5790   XZ=             -0.6991   YZ=             -1.0925

 Normal termination of Gaussian 09 at Wed Aug 26 11:35:36 2020.
