 Gaussian 09, Revision D.01,
 Gaussian 09:  ES64L-G09RevD.01 24-Apr-2013

 --------------------
 #p B2PLYPD3/Def2QZVP
 --------------------

 ----------
 butane_opt
 ----------
 Symbolic Z-matrix:
 Charge =  0 Multiplicity = 1

                         Standard orientation:
 ---------------------------------------------------------------------
 Center     Atomic      Atomic             Coordinates (Angstroms)
 Number     Number       Type             X           Y           Z
 ---------------------------------------------------------------------
      1          6           0       -1.958215   -0.156878   -0.023694
      2          6           0       -0.517877    0.554415    0.034791
      3          1           0       -2.730781    0.525572   -0.117249
      4          1           0       -2.162082   -0.486800    0.697192
      5          1           0       -2.090577   -1.000299   -1.044517
      6          6           0        0.622466   -0.501015    0.125340
      7          1           0       -0.430834    1.327599    0.952603
      8          1           0       -0.347768    1.138822   -0.822016
      9          6           0        1.905130    0.080346   -0.097076
     10          1           0        0.421726   -0.909144   -0.590687
     11          1           0        0.519591   -1.235525    1.181566
     12          1           0        1.725883    0.577348   -1.015468
     13          1           0        2.641140   -0.626005   -0.268471
     14          1           0        2.144674    0.827226    0.790883
 ---------------------------------------------------------------------

 SCF Done:  E(RB2PLYPD3) =  -157.910637902     A.U. after   11 cycles
 E2(B2PLYPD3) =    -0.2473384844D+00 E(B2PLYPD3) =    -0.15815797638683D+03

 The electronic state is 1-A.
 Alpha  occ. eigenvalues --  -10.62006 -10.59174 -10.59128 -10.58801  -0.93578
 Alpha  occ. eigenvalues --   -0.85221  -0.74845  -0.67697  -0.55188  -0.51164
 Alpha  occ. eigenvalues --   -0.49642  -0.46934  -0.43285  -0.41024  -0.39034
 Alpha  occ. eigenvalues --   -0.37777  -0.36545
 Alpha virt. eigenvalues --    0.05706   0.06643   0.07904   0.08331   0.10888
 Alpha virt. eigenvalues --    0.12100   0.12775   0.13883   0.14083   0.15238
 Alpha virt. eigenvalues --    0.16253   0.16685   0.19256   0.19591   0.21522

 Mulliken charges:
               1
     1  C   -0.263567
     2  C   -0.023331
     3  H    0.040385
     4  H    0.177596
     5  H    0.013661
     6  C   -0.209398
     7  H    0.005985
     8  H    0.049969
     9  C   -0.132180
    10  H    0.196876
    11  H    0.006274
    12  H    0.044737
    13  H    0.053861
    14  H    0.039134
 Sum of Mulliken charges =   0.00000

 Dipole moment (field-independent basis, Debye):
    X=             -0.0863    Y=              0.0357    Z=             -0.2143  Tot=              0.2338
 Quadrupole moment (field-independent basis, Debye-Ang):
   XX=            -29.1906   YY=            -29.4312   ZZ=            -27.8995
   XY=             -0.7635   XZ=             -0.8299   YZ=              0.2941

 Normal termination of Gaussian 09 at Wed Aug 26 23:10:55 2020.
