 Gaussian 09, Revision D.01,
 Gaussian 09:  ES64L-G09RevD.01 24-Apr-2013

 --------------------
 #p B2PLYPD3/Def2QZVP
 --------------------

 ----------
 butane_opt
 ----------
 Symbolic Z-matrix:
 Charge =  0 Multiplicity = 1

                         Standard orientation:
 ---------------------------------------------------------------------
 Center     Atomic      Atomic             Coordinates (Angstroms)
 Number     Number       Type             X           Y           Z
 ---------------------------------------------------------------------
      1          6           0        2.013292   -0.153046   -0.080384
      2          6           0        0.524821    0.663017   -0.001639
      3          1           0        2.540857    0.282058   -0.264232
      4          1           0        2.155833   -0.917498   -0.954145
      5          1           0        2.463146   -0.679873    0.753932
      6          6           0       -0.610084   -0.440849    0.188461
      7          1           0        0.195830    0.728605   -0.495010
      8          1           0        0.645244    1.588284    0.891494
      9          6           0       -1.961674    0.026001   -0.126095
     10          1           0       -0.394455   -1.113774    1.406651
     11          1           0       -0.454158   -0.981950   -0.535877
     12          1           0       -2.464690    0.744401    0.690701
     13          1           0       -2.811582   -0.704337   -0.251311
     14          1           0       -1.674157    0.483348   -1.124254
 ---------------------------------------------------------------------

 SCF Done:  E(RB2PLYPD3) =  -157.282668193     A.U. after   11 cycles
 E2(B2PLYPD3) =    -0.2510238728D+00 E(B2PLYPD3) =    -0.15753369206529D+03

 The electronic state is 1-A.
 Alpha  occ. eigenvalues --  -10.62355 -10.62071 -10.61747 -10.58010  -0.96585
 Alpha  occ. eigenvalues --   -0.86234  -0.81123  -0.67643  -0.55188  -0.50785
 Alpha  occ. eigenvalues --   -0.49328  -0.48646  -0.43974  -0.41791  -0.38639
 Alpha  occ. eigenvalues --   -0.37763  -0.33671
 Alpha virt. eigenvalues --    0.05411   0.06471   0.07633   0.08324   0.10431
 Alpha virt. eigenvalues --    0.11655   0.12420   0.13846   0.14431   0.15067
 Alpha virt. eigenvalues --    0.15894   0.16914   0.18658   0.19379   0.21614

 Mulliken charges:
               1
     1  C   -0.486130
     2  C   -0.794909
     3  H    0.393882
     4  H    0.024055
     5  H    0.065236
     6  C   -0.122903
     7  H    0.731270
     8  H    0.061075
     9  C   -0.141525
    10  H   -0.010502
    11  H    0.142076
    12  H    0.036346
    13  H    0.054295
    14  H    0.047735
 Sum of Mulliken charges =   0.00000

 Dipole moment (field-independent basis, Debye):
    X=              0.1225    Y=              0.0951    Z=             -0.4871  Tot=              0.5112
 Quadrupole moment (field-independent basis, Debye-Ang):
   XX=            -26.8646   YY=            -29.7204   ZZ=            -28.3957
   XY=              0.4143   XZ=              0.3895   YZ=              1.0655

 Normal termination of Gaussian 09 at Wed Aug 26 13:11:13 2020.
