 Gaussian 09, Revision D.01,
 Gaussian 09:  ES64L-G09RevD.01 24-Apr-2013

 --------------------
 #p B2PLYPD3/Def2QZVP
 --------------------

 ----------
 butane_opt
 ----------
 Symbolic Z-matrix:
 Charge =  0 Multiplicity = 1

                         Standard orientation:
 ---------------------------------------------------------------------
 Center     Atomic      Atomic             Coordinates (Angstroms)
 Number     Number       Type             X           Y           Z
 ---------------------------------------------------------------------
      1          6           0        1.921867    0.038207   -0.126977
      2          6           0        0.595028   -0.432692    0.130405
      3          1           0        2.574587   -0.742658   -0.179763
      4          1           0        1.902689    0.554042    0.560880
      5          1           0        1.956581    0.776067   -1.107809
      6          6           0       -0.570483    0.613457    0.217929
      7          1           0        0.454834   -1.384463    1.224149
      8          1           0        0.536197   -0.981032   -0.572692
      9          6           0       -1.917887   -0.139487   -0.194846
     10          1           0       -0.375670    1.050974   -0.484989
     11          1           0       -0.336950    1.626266    1.272340
     12          1           0       -1.561769   -0.723576   -0.901868
     13          1           0       -2.526584    0.308791   -0.969703
     14          1           0       -2.795067   -0.961323    1.000390
 ---------------------------------------------------------------------

 SCF Done:  E(RB2PLYPD3) =  -157.703689340     A.U. after   11 cycles
 E2(B2PLYPD3) =    -0.2547393553D+00 E(B2PLYPD3) =    -0.15795842869504D+03

 The electronic state is 1-A.
 Alpha  occ. eigenvalues --  -10.64957 -10.63775 -10.61362 -10.57783  -0.95399
 Alpha  occ. eigenvalues --   -0.86979  -0.74811  -0.69849  -0.56840  -0.51987
 Alpha  occ. eigenvalues --   -0.48519  -0.45475  -0.43436  -0.39913  -0.37830
 Alpha  occ. eigenvalues --   -0.35805  -0.34095
 Alpha virt. eigenvalues --    0.01774   0.05086   0.06392   0.06663   0.08559
 Alpha virt. eigenvalues --    0.11410   0.11581   0.12870   0.14408   0.15102
 Alpha virt. eigenvalues --    0.15914   0.16898   0.17598   0.18830   0.19886

 Mulliken charges:
               1
     1  C   -0.241928
     2  C   -0.115832
     3  H    0.073456
     4  H    0.166047
     5  H    0.014580
     6  C   -0.244862
     7  H   -0.024858
     8  H    0.123600
     9  C   -0.184925
    10  H    0.244050
    11  H    0.015043
    12  H    0.098920
    13  H    0.056967
    14  H    0.019741
 Sum of Mulliken charges =   0.00000

 Dipole moment (field-independent basis, Debye):
    X=              0.5170    Y=              0.1653    Z=             -1.3611  Tot=              1.4653
 Quadrupole moment (field-independent basis, Debye-Ang):
   XX=            -31.2298   YY=            -29.9523   ZZ=            -28.4693
   XY=             -0.3944   XZ=              1.0413   YZ=              0.2531

 Normal termination of Gaussian 09 at Wed Aug 26 14:39:27 2020.
