 Gaussian 09, Revision D.01,
 Gaussian 09:  ES64L-G09RevD.01 24-Apr-2013

 --------------------
 #p B2PLYPD3/Def2QZVP
 --------------------

 ----------
 butane_opt
 ----------
 Symbolic Z-matrix:
 Charge =  0 Multiplicity = 1

                         Standard orientation:
 ---------------------------------------------------------------------
 Center     Atomic      Atomic             Coordinates (Angstroms)
 Number     Number       Type             X           Y           Z
 ---------------------------------------------------------------------
      1          6           0       -2.008361    0.008118    0.114433
      2          6           0       -0.632698   -0.421119   -0.274501
      3          1           0       -2.621701   -0.773656    0.657663
      4          1           0       -2.284019    0.910374   -0.748119
      5          1           0       -1.778348    0.409856    1.024231
      6          6           0        0.535571    0.622666   -0.031561
      7          1           0       -0.584967   -1.129397   -1.279271
      8          1           0       -0.374798   -0.984447    0.344817
      9          6           0        1.993682   -0.157820    0.033086
     10          1           0        0.487537    1.299995    1.201294
     11          1           0        0.506872    1.361899   -0.760562
     12          1           0        2.288861   -1.450928    1.057899
     13          1           0        2.547449    0.329116   -0.051071
     14          1           0        2.483946   -0.283879   -0.495622
 ---------------------------------------------------------------------

 SCF Done:  E(RB2PLYPD3) =  -157.444297195     A.U. after   12 cycles
 E2(B2PLYPD3) =    -0.2545155452D+00 E(B2PLYPD3) =    -0.15769881274046D+03

 The electronic state is 1-A.
 Alpha  occ. eigenvalues --  -10.66174 -10.61184 -10.59555 -10.59131  -1.01240
 Alpha  occ. eigenvalues --   -0.90797  -0.77561  -0.68407  -0.54630  -0.48905
 Alpha  occ. eigenvalues --   -0.48321  -0.45632  -0.39938  -0.38817  -0.38022
 Alpha  occ. eigenvalues --   -0.37043  -0.34445
 Alpha virt. eigenvalues --    0.02303   0.05143   0.06389   0.07696   0.09832
 Alpha virt. eigenvalues --    0.10353   0.11786   0.12777   0.14138   0.15534
 Alpha virt. eigenvalues --    0.15775   0.16723   0.18708   0.19353   0.19907

 Mulliken charges:
               1
     1  C   -0.174694
     2  C   -0.136071
     3  H    0.050180
     4  H    0.041860
     5  H    0.060573
     6  C   -0.013383
     7  H    0.018537
     8  H    0.162472
     9  C   -0.781086
    10  H    0.011488
    11  H    0.051313
    12  H    0.009954
    13  H    0.344123
    14  H    0.354735
 Sum of Mulliken charges =   0.00000

 Dipole moment (field-independent basis, Debye):
    X=              0.5116    Y=              0.3640    Z=             -0.2723  Tot=              0.6844
 Quadrupole moment (field-independent basis, Debye-Ang):
   XX=            -28.9793   YY=            -29.0740   ZZ=            -28.7906
   XY=              1.4498   XZ=             -2.6812   YZ=             -1.6570

 Normal termination of Gaussian 09 at Wed Aug 26 10:55:36 2020.
