 Gaussian 09, Revision D.01,
 Gaussian 09:  ES64L-G09RevD.01 24-Apr-2013

 --------------------
 #p B2PLYPD3/Def2QZVP
 --------------------

 ----------
 butane_opt
 ----------
 Symbolic Z-matrix:
 Charge =  0 Multiplicity = 1

                         Standard orientation:
 ---------------------------------------------------------------------
 Center     Atomic      Atomic             Coordinates (Angstroms)
 Number     Number       Type             X           Y           Z
 ---------------------------------------------------------------------
      1          6           0       -2.008077    0.090601    0.142730
      2          6           0       -0.569040   -0.495666   -0.113268
      3          1           0       -2.843605   -0.614694   -0.290287
      4          1           0       -1.965813    0.224021   -0.389755
      5          1           0       -2.149748    0.925748    1.278143
      6          6           0        0.513721    0.629410   -0.134370
      7          1           0       -0.526059   -1.568948   -1.340192
      8          1           0       -0.400500   -0.822551    0.472254
      9          6           0        1.969799   -0.172586    0.119322
     10          1           0        0.459404    1.129179    0.656603
     11          1           0        0.591435    1.613100   -1.203907
     12          1           0        2.182105   -1.281869    1.252572
     13          1           0        2.737351    0.535639   -0.203657
     14          1           0        2.477013   -0.450174   -0.318263
 ---------------------------------------------------------------------

 SCF Done:  E(RB2PLYPD3) =  -156.637499695     A.U. after   12 cycles
 E2(B2PLYPD3) =    -0.2603017773D+00 E(B2PLYPD3) =    -0.15689780147217D+03

 The electronic state is 1-A.
 Alpha  occ. eigenvalues --  -10.66205 -10.62837 -10.61834 -10.61797  -0.96625
 Alpha  occ. eigenvalues --   -0.90419  -0.84348  -0.73738  -0.53029  -0.50310
 Alpha  occ. eigenvalues --   -0.46954  -0.45305  -0.42185  -0.40464  -0.38108
 Alpha  occ. eigenvalues --   -0.34866  -0.32691
 Alpha virt. eigenvalues --    0.01793   0.02359   0.04655   0.06189   0.09104
 Alpha virt. eigenvalues --    0.09968   0.12161   0.12442   0.13593   0.14647
 Alpha virt. eigenvalues --    0.15290   0.16329   0.16841   0.19171   0.20960

 Mulliken charges:
               1
     1  C   -0.963758
     2  C   -0.555487
     3  H    0.078757
     4  H    0.787803
     5  H    0.080245
     6  C   -0.070557
     7  H   -0.004516
     8  H    0.564041
     9  C   -0.508178
    10  H    0.146454
    11  H    0.012996
    12  H    0.015655
    13  H    0.031508
    14  H    0.385038
 Sum of Mulliken charges =   0.00000

 Dipole moment (field-independent basis, Debye):
    X=              0.1985    Y=              0.5093    Z=             -0.2560  Tot=              0.6036
 Quadrupole moment (field-independent basis, Debye-Ang):
   XX=            -29.2384   YY=            -29.4256   ZZ=            -28.8178
   XY=             -0.5438   XZ=             -1.6783   YZ=              0.0769

 Normal termination of Gaussian 09 at Wed Aug 26 15:13:17 2020.
