 Gaussian 09, Revision D.01,
 Gaussian 09:  ES64L-G09RevD.01 24-Apr-2013

 --------------------
 #p B2PLYPD3/Def2QZVP
 --------------------

 ----------
 butane_opt
 ----------
 Symbolic Z-matrix:
 Charge =  0 Multiplicity = 1

                         Standard orientation:
 ---------------------------------------------------------------------
 Center     Atomic      Atomic             Coordinates (Angstroms)
 Number     Number       Type             X           Y           Z
 ---------------------------------------------------------------------
      1          6           0        1.917420   -0.113450   -0.048219
      2          6           0        0.527713    0.451918    0.054508
      3          1           0        2.787800    0.686600   -0.210479
      4          1           0        2.083614   -0.676145   -0.909999
      5          1           0        2.086178   -0.747803    0.878853
      6          6           0       -0.547865   -0.507005    0.094649
      7          1           0        0.567249    1.136106   -0.814885
      8          1           0        0.461883    1.263884    0.990301
      9          6           0       -1.954963    0.122686   -0.050594
     10          1           0       -0.374710   -1.208714    1.014870
     11          1           0       -0.402275   -1.058960   -0.766119
     12          1           0       -2.330167    0.856922    0.837088
     13          1           0       -2.767382   -0.631284   -0.441970
     14          1           0       -1.766016    0.654496   -0.879732
 ---------------------------------------------------------------------

 SCF Done:  E(RB2PLYPD3) =  -158.065585206     A.U. after   11 cycles
 E2(B2PLYPD3) =    -0.2485726157D+00 E(B2PLYPD3) =    -0.15831415782204D+03

 The electronic state is 1-A.
 Alpha  occ. eigenvalues --  -10.61514 -10.61334 -10.60840 -10.60828  -0.92799
 Alpha  occ. eigenvalues --   -0.83266  -0.72861  -0.65497  -0.54695  -0.49462
 Alpha  occ. eigenvalues --   -0.49098  -0.47173  -0.41820  -0.40950  -0.39522
 Alpha  occ. eigenvalues --   -0.37658  -0.35927
 Alpha virt. eigenvalues --    0.05634   0.06567   0.07966   0.08197   0.10639
 Alpha virt. eigenvalues --    0.11748   0.12829   0.13056   0.14820   0.15177
 Alpha virt. eigenvalues --    0.15648   0.16528   0.19176   0.19925   0.21535

 Mulliken charges:
               1
     1  C   -0.133836
     2  C   -0.018876
     3  H    0.031278
     4  H    0.044342
     5  H    0.039631
     6  C   -0.051114
     7  H    0.014988
     8  H    0.006048
     9  C   -0.173838
    10  H    0.023824
    11  H    0.058190
    12  H    0.043571
    13  H    0.039502
    14  H    0.076289
 Sum of Mulliken charges =   0.00000

 Dipole moment (field-independent basis, Debye):
    X=              0.0720    Y=             -0.0794    Z=             -0.5368  Tot=              0.5473
 Quadrupole moment (field-independent basis, Debye-Ang):
   XX=            -30.1357   YY=            -29.5969   ZZ=            -28.2933
   XY=              0.1802   XZ=             -0.3853   YZ=              0.1352

 Normal termination of Gaussian 09 at Wed Aug 26 22:51:45 2020.
