 Gaussian 09, Revision D.01,
 Gaussian 09:  ES64L-G09RevD.01 24-Apr-2013

 --------------------
 #p B2PLYPD3/Def2QZVP
 --------------------

 ----------
 butane_opt
 ----------
 Symbolic Z-matrix:
 Charge =  0 Multiplicity = 1

                         Standard orientation:
 ---------------------------------------------------------------------
 Center     Atomic      Atomic             Coordinates (Angstroms)
 Number     Number       Type             X           Y           Z
 ---------------------------------------------------------------------
      1          6           0        1.836987   -0.085525    0.006188
      2          6           0        0.582803    0.408706   -0.022255
      3          1           0        2.737131    0.936507    0.027235
      4          1           0        2.015840   -0.560383   -0.808192
      5          1           0        1.883936   -0.726857    0.941059
      6          6           0       -0.419068   -0.597018   -0.114539
      7          1           0        0.555904    0.878034   -0.649663
      8          1           0        0.370984    1.255141    0.982794
      9          6           0       -1.984590    0.156653    0.043488
     10          1           0       -0.158662   -1.086649    0.775835
     11          1           0       -0.559628   -1.047095   -0.882809
     12          1           0       -1.975423    0.597248    0.701283
     13          1           0       -2.734696   -0.599901    0.455066
     14          1           0       -2.232174    1.057056   -1.019904
 ---------------------------------------------------------------------

 SCF Done:  E(RB2PLYPD3) =  -157.705289611     A.U. after   11 cycles
 E2(B2PLYPD3) =    -0.2497473309D+00 E(B2PLYPD3) =    -0.15795503694235D+03

 The electronic state is 1-A.
 Alpha  occ. eigenvalues --  -10.60934 -10.60435 -10.59045 -10.57117  -0.97465
 Alpha  occ. eigenvalues --   -0.84856  -0.76617  -0.70745  -0.60685  -0.52195
 Alpha  occ. eigenvalues --   -0.47923  -0.47104  -0.44377  -0.41764  -0.38479
 Alpha  occ. eigenvalues --   -0.36394  -0.34752
 Alpha virt. eigenvalues --    0.04587   0.05429   0.07965   0.08445   0.10356
 Alpha virt. eigenvalues --    0.11009   0.12344   0.12742   0.14072   0.15540
 Alpha virt. eigenvalues --    0.15763   0.16661   0.19114   0.19610   0.20710

 Mulliken charges:
               1
     1  C   -0.138319
     2  C   -0.227010
     3  H    0.006839
     4  H    0.071297
     5  H    0.041144
     6  C   -0.061290
     7  H    0.237371
     8  H   -0.003141
     9  C   -0.395812
    10  H    0.047958
    11  H    0.079222
    12  H    0.268714
    13  H    0.044381
    14  H    0.028646
 Sum of Mulliken charges =   0.00000

 Dipole moment (field-independent basis, Debye):
    X=              0.0523    Y=             -0.2395    Z=             -0.1703  Tot=              0.2985
 Quadrupole moment (field-independent basis, Debye-Ang):
   XX=            -31.7378   YY=            -29.0271   ZZ=            -27.5094
   XY=             -0.0822   XZ=             -1.5782   YZ=             -0.4543

 Normal termination of Gaussian 09 at Wed Aug 26 20:58:39 2020.
