 Gaussian 09, Revision D.01,
 Gaussian 09:  ES64L-G09RevD.01 24-Apr-2013

 --------------------
 #p B2PLYPD3/Def2QZVP
 --------------------

 ----------
 butane_opt
 ----------
 Symbolic Z-matrix:
 Charge =  0 Multiplicity = 1

                         Standard orientation:
 ---------------------------------------------------------------------
 Center     Atomic      Atomic             Coordinates (Angstroms)
 Number     Number       Type             X           Y           Z
 ---------------------------------------------------------------------
      1          6           0       -1.997536   -0.106602    0.074248
      2          6           0       -0.641714    0.478809   -0.100221
      3          1           0       -2.977482    0.758401   -0.301766
      4          1           0       -2.060542   -0.810564    1.085025
      5          1           0       -1.874423   -0.625736   -0.650914
      6          6           0        0.548823   -0.601608    0.067670
      7          1           0       -0.748744    0.969164    0.658954
      8          1           0       -0.349295    1.214457   -1.174271
      9          6           0        2.052838    0.135406    0.000033
     10          1           0        0.518739   -1.205447   -0.785954
     11          1           0        0.665882   -1.001901    0.756986
     12          1           0        1.991659    0.371464   -0.461450
     13          1           0        2.672659   -0.482140   -0.642019
     14          1           0        2.387079    1.376274    1.265027
 ---------------------------------------------------------------------

 SCF Done:  E(RB2PLYPD3) =  -156.907594772     A.U. after   12 cycles
 E2(B2PLYPD3) =    -0.2561808442D+00 E(B2PLYPD3) =    -0.15716377561588D+03

 The electronic state is 1-A.
 Alpha  occ. eigenvalues --  -10.64266 -10.61670 -10.61314 -10.59544  -0.94834
 Alpha  occ. eigenvalues --   -0.90356  -0.79758  -0.69386  -0.57198  -0.49444
 Alpha  occ. eigenvalues --   -0.48191  -0.45865  -0.43531  -0.39851  -0.37168
 Alpha  occ. eigenvalues --   -0.36542  -0.34786
 Alpha virt. eigenvalues --   -0.00505   0.04841   0.06336   0.07719   0.10155
 Alpha virt. eigenvalues --    0.10499   0.11387   0.12262   0.13719   0.15214
 Alpha virt. eigenvalues --    0.15786   0.16653   0.18610   0.19162   0.20276

 Mulliken charges:
               1
     1  C   -0.249711
     2  C   -0.105086
     3  H    0.034924
     4  H    0.056996
     5  H    0.136238
     6  C   -0.187034
     7  H    0.126912
     8  H    0.018415
     9  C   -0.923483
    10  H    0.043121
    11  H    0.224376
    12  H    0.737337
    13  H    0.062399
    14  H    0.024597
 Sum of Mulliken charges =   0.00000

 Dipole moment (field-independent basis, Debye):
    X=             -0.2890    Y=             -0.3481    Z=             -0.5941  Tot=              0.7467
 Quadrupole moment (field-independent basis, Debye-Ang):
   XX=            -32.3590   YY=            -28.8878   ZZ=            -27.2103
   XY=             -0.4790   XZ=             -1.8515   YZ=              0.2108

 Normal termination of Gaussian 09 at Wed Aug 26 14:38:48 2020.
