 Gaussian 09, Revision D.01,
 Gaussian 09:  ES64L-G09RevD.01 24-Apr-2013

 --------------------
 #p B2PLYPD3/Def2QZVP
 --------------------

 ----------
 butane_opt
 ----------
 Symbolic Z-matrix:
 Charge =  0 Multiplicity = 1

                         Standard orientation:
 ---------------------------------------------------------------------
 Center     Atomic      Atomic             Coordinates (Angstroms)
 Number     Number       Type             X           Y           Z
 ---------------------------------------------------------------------
      1          6           0        1.966182   -0.169773   -0.072196
      2          6           0        0.565708    0.551418    0.052100
      3          1           0        2.749022    0.509538   -0.133029
      4          1           0        2.103059   -0.870275   -0.974766
      5          1           0        2.462311   -0.625895    0.745968
      6          6           0       -0.636974   -0.462535    0.141349
      7          1           0        0.445325    1.078635   -0.754757
      8          1           0        0.511303    1.330493    0.924705
      9          6           0       -1.952004    0.076940   -0.094751
     10          1           0       -0.577319   -1.281611    1.195480
     11          1           0       -0.401769   -0.855228   -0.548278
     12          1           0       -2.373313    0.954204    0.820501
     13          1           0       -2.828554   -0.812150   -0.423049
     14          1           0       -1.747533    0.595981   -1.011790
 ---------------------------------------------------------------------

 SCF Done:  E(RB2PLYPD3) =  -157.935446685     A.U. after   11 cycles
 E2(B2PLYPD3) =    -0.2494660398D+00 E(B2PLYPD3) =    -0.15818491272468D+03

 The electronic state is 1-A.
 Alpha  occ. eigenvalues --  -10.63832 -10.61592 -10.60214 -10.59758  -0.93351
 Alpha  occ. eigenvalues --   -0.83944  -0.73667  -0.67942  -0.54335  -0.48707
 Alpha  occ. eigenvalues --   -0.48075  -0.47552  -0.41912  -0.41504  -0.39878
 Alpha  occ. eigenvalues --   -0.37038  -0.35498
 Alpha virt. eigenvalues --    0.05018   0.06353   0.07968   0.08701   0.10493
 Alpha virt. eigenvalues --    0.10819   0.12472   0.13278   0.14357   0.15030
 Alpha virt. eigenvalues --    0.15710   0.16420   0.19247   0.19290   0.21093

 Mulliken charges:
               1
     1  C   -0.118498
     2  C   -0.054574
     3  H    0.033395
     4  H    0.025553
     5  H    0.035275
     6  C   -0.247319
     7  H    0.071083
     8  H    0.016657
     9  C   -0.154859
    10  H    0.008714
    11  H    0.254695
    12  H    0.033399
    13  H    0.042672
    14  H    0.053806
 Sum of Mulliken charges =   0.00000

 Dipole moment (field-independent basis, Debye):
    X=              0.4955    Y=              0.1847    Z=             -0.5671  Tot=              0.7754
 Quadrupole moment (field-independent basis, Debye-Ang):
   XX=            -29.4054   YY=            -29.5336   ZZ=            -28.6233
   XY=              0.2909   XZ=              0.5929   YZ=              0.5929

 Normal termination of Gaussian 09 at Wed Aug 26 13:03:40 2020.
