 Gaussian 09, Revision D.01,
 Gaussian 09:  ES64L-G09RevD.01 24-Apr-2013

 --------------------
 #p B2PLYPD3/Def2QZVP
 --------------------

 ----------
 butane_opt
 ----------
 Symbolic Z-matrix:
 Charge =  0 Multiplicity = 1

                         Standard orientation:
 ---------------------------------------------------------------------
 Center     Atomic      Atomic             Coordinates (Angstroms)
 Number     Number       Type             X           Y           Z
 ---------------------------------------------------------------------
      1          6           0        1.910756    0.093466    0.097820
      2          6           0        0.558640   -0.458317   -0.117946
      3          1           0        2.693647   -0.695886    0.246370
      4          1           0        2.050620    1.292597    1.131333
      5          1           0        2.036152    0.304931   -0.557003
      6          6           0       -0.543146    0.488511   -0.317746
      7          1           0        0.117563   -1.131687    0.887883
      8          1           0        0.803696   -1.136494   -0.805449
      9          6           0       -1.920631   -0.112538    0.220232
     10          1           0       -0.475903    1.041561   -1.196163
     11          1           0       -0.077875    0.881348    0.371909
     12          1           0       -2.489212   -0.937152   -0.830449
     13          1           0       -2.803204    0.838021    0.420469
     14          1           0       -1.889201   -0.523973    1.036937
 ---------------------------------------------------------------------

 SCF Done:  E(RB2PLYPD3) =  -157.635673217     A.U. after   11 cycles
 E2(B2PLYPD3) =    -0.2528819948D+00 E(B2PLYPD3) =    -0.15788855521176D+03

 The electronic state is 1-A.
 Alpha  occ. eigenvalues --  -10.64569 -10.62021 -10.60953 -10.58995  -0.97065
 Alpha  occ. eigenvalues --   -0.87135  -0.76229  -0.68583  -0.58017  -0.52419
 Alpha  occ. eigenvalues --   -0.49573  -0.46271  -0.43754  -0.39868  -0.37842
 Alpha  occ. eigenvalues --   -0.36243  -0.34730
 Alpha virt. eigenvalues --    0.04041   0.05120   0.07233   0.08009   0.09654
 Alpha virt. eigenvalues --    0.10636   0.11500   0.12911   0.14230   0.15033
 Alpha virt. eigenvalues --    0.15410   0.16402   0.18503   0.19353   0.20923

 Mulliken charges:
               1
     1  C   -0.599350
     2  C    0.009404
     3  H    0.082176
     4  H   -0.010102
     5  H    0.462885
     6  C   -0.115817
     7  H   -0.009725
     8  H    0.041170
     9  C   -0.197784
    10  H    0.050495
    11  H    0.128983
    12  H    0.012787
    13  H    0.022351
    14  H    0.122527
 Sum of Mulliken charges =   0.00000

 Dipole moment (field-independent basis, Debye):
    X=              0.5592    Y=             -0.2205    Z=             -0.4592  Tot=              0.7565
 Quadrupole moment (field-independent basis, Debye-Ang):
   XX=            -30.8033   YY=            -30.0746   ZZ=            -28.3504
   XY=             -1.2404   XZ=             -2.0297   YZ=             -0.2148

 Normal termination of Gaussian 09 at Wed Aug 26 15:28:32 2020.
