 Gaussian 09, Revision D.01,
 Gaussian 09:  ES64L-G09RevD.01 24-Apr-2013

 --------------------
 #p B2PLYPD3/Def2QZVP
 --------------------

 ----------
 butane_opt
 ----------
 Symbolic Z-matrix:
 Charge =  0 Multiplicity = 1

                         Standard orientation:
 ---------------------------------------------------------------------
 Center     Atomic      Atomic             Coordinates (Angstroms)
 Number     Number       Type             X           Y           Z
 ---------------------------------------------------------------------
      1          6           0       -2.033070    0.116756    0.010567
      2          6           0       -0.523479   -0.556279    0.090007
      3          1           0       -2.627984   -0.479505   -0.566177
      4          1           0       -2.050294    0.269385   -0.571337
      5          1           0       -2.344596    1.540317    1.157538
      6          6           0        0.581446    0.405529   -0.138768
      7          1           0       -0.485909   -1.305412   -0.888461
      8          1           0       -0.330944   -1.132051    1.036734
      9          6           0        1.977946   -0.113038    0.029415
     10          1           0        0.678070    1.194572    0.668811
     11          1           0        0.488517    1.046262   -1.160347
     12          1           0        1.962803   -0.796335    1.061138
     13          1           0        2.753552    0.839594   -0.156845
     14          1           0        1.939723   -0.294631   -0.528383
 ---------------------------------------------------------------------

 SCF Done:  E(RB2PLYPD3) =  -156.872240059     A.U. after   13 cycles
 E2(B2PLYPD3) =    -0.2580704989D+00 E(B2PLYPD3) =    -0.15713031055762D+03

 The electronic state is 1-A.
 Alpha  occ. eigenvalues --  -10.64760 -10.62380 -10.61813 -10.59642  -0.96984
 Alpha  occ. eigenvalues --   -0.94264  -0.80428  -0.66033  -0.56185  -0.50270
 Alpha  occ. eigenvalues --   -0.47424  -0.46896  -0.41783  -0.39200  -0.38424
 Alpha  occ. eigenvalues --   -0.36350  -0.33490
 Alpha virt. eigenvalues --   -0.01530   0.05190   0.06174   0.07369   0.09406
 Alpha virt. eigenvalues --    0.10210   0.12065   0.12459   0.13485   0.15530
 Alpha virt. eigenvalues --    0.15909   0.16680   0.18094   0.19013   0.20798

 Mulliken charges:
               1
     1  C   -0.782697
     2  C   -0.026646
     3  H    0.034795
     4  H    0.682940
     5  H    0.029173
     6  C    0.028817
     7  H    0.000474
     8  H    0.052905
     9  C   -0.880911
    10  H    0.033829
    11  H    0.010037
    12  H    0.082485
    13  H    0.071010
    14  H    0.663790
 Sum of Mulliken charges =   0.00000

 Dipole moment (field-independent basis, Debye):
    X=              0.2663    Y=             -0.1248    Z=             -0.8131  Tot=              0.8647
 Quadrupole moment (field-independent basis, Debye-Ang):
   XX=            -31.9746   YY=            -29.4494   ZZ=            -27.2597
   XY=              0.4536   XZ=              2.3684   YZ=              0.2585

 Normal termination of Gaussian 09 at Wed Aug 26 13:49:24 2020.
