 Gaussian 09, Revision D.01,
 Gaussian 09:  ES64L-G09RevD.01 24-Apr-2013

 --------------------
 #p B2PLYPD3/Def2QZVP
 --------------------

 ----------
 butane_opt
 ----------
 Symbolic Z-matrix:
 Charge =  0 Multiplicity = 1

                         Standard orientation:
 ---------------------------------------------------------------------
 Center     Atomic      Atomic             Coordinates (Angstroms)
 Number     Number       Type             X           Y           Z
 ---------------------------------------------------------------------
      1          6           0       -1.987956   -0.101672   -0.161068
      2          6           0       -0.623444    0.446066    0.081018
      3          1           0       -2.929852    0.901454    0.066102
      4          1           0       -2.160730   -0.719473    0.792301
      5          1           0       -1.950808   -0.699269   -0.985857
      6          6           0        0.578165   -0.559252    0.220232
      7          1           0       -0.592248    1.227229    1.037997
      8          1           0       -0.395053    1.125296   -0.842346
      9          6           0        2.042314    0.103664   -0.130862
     10          1           0        0.294339   -1.322803   -0.522344
     11          1           0        0.492599   -1.154864    1.048101
     12          1           0        1.901989    0.711309   -1.069211
     13          1           0        2.612281   -0.419902   -0.593445
     14          1           0        2.673011    1.018189    1.012780
 ---------------------------------------------------------------------

 SCF Done:  E(RB2PLYPD3) =  -157.924886750     A.U. after   11 cycles
 E2(B2PLYPD3) =    -0.2527996784D+00 E(B2PLYPD3) =    -0.15817768642847D+03

 The electronic state is 1-A.
 Alpha  occ. eigenvalues --  -10.63834 -10.63017 -10.62942 -10.62288  -0.90337
 Alpha  occ. eigenvalues --   -0.83310  -0.74712  -0.65641  -0.53493  -0.49701
 Alpha  occ. eigenvalues --   -0.47069  -0.45889  -0.41580  -0.41146  -0.36863
 Alpha  occ. eigenvalues --   -0.36128  -0.35872
 Alpha virt. eigenvalues --    0.03601   0.04650   0.07522   0.08174   0.09898
 Alpha virt. eigenvalues --    0.10151   0.11427   0.12605   0.14205   0.15393
 Alpha virt. eigenvalues --    0.15631   0.15865   0.19152   0.19305   0.19958

 Mulliken charges:
               1
     1  C   -0.177967
     2  C   -0.013787
     3  H    0.041801
     4  H    0.034183
     5  H    0.079796
     6  C   -0.027743
     7  H    0.013735
     8  H    0.022010
     9  C   -0.203904
    10  H    0.005319
    11  H    0.052204
    12  H    0.038006
    13  H    0.114330
    14  H    0.022017
 Sum of Mulliken charges =   0.00000

 Dipole moment (field-independent basis, Debye):
    X=             -0.0246    Y=             -0.6187    Z=             -0.4412  Tot=              0.7603
 Quadrupole moment (field-independent basis, Debye-Ang):
   XX=            -31.4155   YY=            -29.7721   ZZ=            -28.4195
   XY=             -0.4167   XZ=             -1.4242   YZ=              0.4942

 Normal termination of Gaussian 09 at Wed Aug 26 18:39:44 2020.
