 Gaussian 09, Revision D.01,
 Gaussian 09:  ES64L-G09RevD.01 24-Apr-2013

 --------------------
 #p B2PLYPD3/Def2QZVP
 --------------------

 ----------
 butane_opt
 ----------
 Symbolic Z-matrix:
 Charge =  0 Multiplicity = 1

                         Standard orientation:
 ---------------------------------------------------------------------
 Center     Atomic      Atomic             Coordinates (Angstroms)
 Number     Number       Type             X           Y           Z
 ---------------------------------------------------------------------
      1          6           0       -1.989229   -0.121717   -0.232273
      2          6           0       -0.544134    0.501893    0.250270
      3          1           0       -2.833640    0.754557   -0.586053
      4          1           0       -2.672636   -0.975982    0.752153
      5          1           0       -1.711057   -0.379761   -0.857950
      6          6           0        0.532363   -0.560800    0.219287
      7          1           0       -0.727940    1.516015    1.257904
      8          1           0       -0.423950    0.966992   -0.465922
      9          6           0        1.990455    0.091303   -0.170984
     10          1           0        0.354692   -1.365925   -0.785861
     11          1           0        0.653538   -1.115426    1.009820
     12          1           0        2.199967    1.016778   -1.299985
     13          1           0        2.655456   -0.555709   -0.233441
     14          1           0        2.568846    0.674387    0.811537
 ---------------------------------------------------------------------

 SCF Done:  E(RB2PLYPD3) =  -157.640965159     A.U. after   11 cycles
 E2(B2PLYPD3) =    -0.2547521967D+00 E(B2PLYPD3) =    -0.15789571735549D+03

 The electronic state is 1-A.
 Alpha  occ. eigenvalues --  -10.64545 -10.64493 -10.62668 -10.62432  -0.92706
 Alpha  occ. eigenvalues --   -0.84158  -0.75492  -0.69291  -0.52889  -0.48791
 Alpha  occ. eigenvalues --   -0.48152  -0.47250  -0.40359  -0.39221  -0.38286
 Alpha  occ. eigenvalues --   -0.36851  -0.35160
 Alpha virt. eigenvalues --    0.04293   0.04506   0.05755   0.08102   0.08942
 Alpha virt. eigenvalues --    0.10279   0.11491   0.11965   0.13302   0.14858
 Alpha virt. eigenvalues --    0.15259   0.16660   0.18735   0.19364   0.19995

 Mulliken charges:
               1
     1  C   -0.540863
     2  C   -0.208789
     3  H    0.044748
     4  H    0.031620
     5  H    0.427302
     6  C   -0.032789
     7  H    0.016450
     8  H    0.221914
     9  C   -0.190379
    10  H    0.006230
    11  H    0.081956
    12  H    0.020867
    13  H    0.103114
    14  H    0.018619
 Sum of Mulliken charges =   0.00000

 Dipole moment (field-independent basis, Debye):
    X=              0.4334    Y=             -0.4019    Z=             -0.2722  Tot=              0.6507
 Quadrupole moment (field-independent basis, Debye-Ang):
   XX=            -30.4573   YY=            -29.6897   ZZ=            -29.0712
   XY=             -1.5543   XZ=              0.6966   YZ=             -0.8986

 Normal termination of Gaussian 09 at Wed Aug 26 13:48:53 2020.
