 Gaussian 09, Revision D.01,
 Gaussian 09:  ES64L-G09RevD.01 24-Apr-2013

 --------------------
 #p B2PLYPD3/Def2QZVP
 --------------------

 ----------
 butane_opt
 ----------
 Symbolic Z-matrix:
 Charge =  0 Multiplicity = 1

                         Standard orientation:
 ---------------------------------------------------------------------
 Center     Atomic      Atomic             Coordinates (Angstroms)
 Number     Number       Type             X           Y           Z
 ---------------------------------------------------------------------
      1          6           0       -1.996418    0.046417   -0.169152
      2          6           0       -0.638251   -0.437573    0.389762
      3          1           0       -3.017513   -0.964412   -0.640215
      4          1           0       -1.828792    0.404554   -1.059543
      5          1           0       -2.297008    1.204419    0.732085
      6          6           0        0.542300    0.584972    0.044168
      7          1           0       -0.260483   -1.074144   -0.361840
      8          1           0       -0.395636   -0.953012    1.305131
      9          6           0        2.063804   -0.140188   -0.126952
     10          1           0        0.629063    1.135852    0.606411
     11          1           0        0.293055    1.136767   -0.932304
     12          1           0        2.276425   -0.392929    0.585156
     13          1           0        2.643625    0.470311   -0.099311
     14          1           0        2.128657   -1.289176   -0.962524
 ---------------------------------------------------------------------

 SCF Done:  E(RB2PLYPD3) =  -157.626828548     A.U. after   11 cycles
 E2(B2PLYPD3) =    -0.2532396767D+00 E(B2PLYPD3) =    -0.15788006822508D+03

 The electronic state is 1-A.
 Alpha  occ. eigenvalues --  -10.66801 -10.61221 -10.59996 -10.58164  -0.92436
 Alpha  occ. eigenvalues --   -0.86643  -0.77578  -0.69413  -0.54876  -0.51112
 Alpha  occ. eigenvalues --   -0.47476  -0.45551  -0.43570  -0.40715  -0.39482
 Alpha  occ. eigenvalues --   -0.35997  -0.34270
 Alpha virt. eigenvalues --    0.02451   0.05218   0.07595   0.08389   0.09318
 Alpha virt. eigenvalues --    0.10243   0.11293   0.13499   0.14229   0.14616
 Alpha virt. eigenvalues --    0.15519   0.16675   0.19007   0.19090   0.19650

 Mulliken charges:
               1
     1  C   -0.185687
     2  C   -0.065235
     3  H    0.022611
     4  H    0.110565
     5  H    0.006114
     6  C   -0.235663
     7  H    0.054905
     8  H    0.054528
     9  C   -0.408920
    10  H    0.232427
    11  H    0.032003
    12  H    0.230568
    13  H    0.116529
    14  H    0.035255
 Sum of Mulliken charges =   0.00000

 Dipole moment (field-independent basis, Debye):
    X=              1.0658    Y=              0.1622    Z=              0.1402  Tot=              1.0871
 Quadrupole moment (field-independent basis, Debye-Ang):
   XX=            -31.6785   YY=            -28.9086   ZZ=            -28.2429
   XY=              0.6930   XZ=              2.6902   YZ=              0.5742

 Normal termination of Gaussian 09 at Wed Aug 26 22:59:40 2020.
