 Gaussian 09, Revision D.01,
 Gaussian 09:  ES64L-G09RevD.01 24-Apr-2013

 --------------------
 #p B2PLYPD3/Def2QZVP
 --------------------

 ----------
 butane_opt
 ----------
 Symbolic Z-matrix:
 Charge =  0 Multiplicity = 1

                         Standard orientation:
 ---------------------------------------------------------------------
 Center     Atomic      Atomic             Coordinates (Angstroms)
 Number     Number       Type             X           Y           Z
 ---------------------------------------------------------------------
      1          6           0       -1.924088   -0.133440   -0.032393
      2          6           0       -0.591254    0.564580   -0.012797
      3          1           0       -2.716013    0.627434   -0.058751
      4          1           0       -2.113279   -0.812091    0.928649
      5          1           0       -2.289088   -0.837382   -0.812188
      6          6           0        0.576141   -0.526789    0.084471
      7          1           0       -0.461050    1.318169    0.824463
      8          1           0       -0.480141    1.068282   -0.828757
      9          6           0        1.966852    0.114061   -0.066612
     10          1           0        0.428949   -1.104476   -0.695053
     11          1           0        0.513982   -1.119975    0.961560
     12          1           0        1.924983    0.514508   -0.811440
     13          1           0        2.764902   -0.681146   -0.228895
     14          1           0        2.260845    0.916203    0.884398
 ---------------------------------------------------------------------

 SCF Done:  E(RB2PLYPD3) =  -158.012786841     A.U. after   11 cycles
 E2(B2PLYPD3) =    -0.2463691599D+00 E(B2PLYPD3) =    -0.15825915600083D+03

 The electronic state is 1-A.
 Alpha  occ. eigenvalues --  -10.60958 -10.60089 -10.59178 -10.59008  -0.91348
 Alpha  occ. eigenvalues --   -0.84149  -0.73278  -0.68887  -0.54447  -0.49992
 Alpha  occ. eigenvalues --   -0.48636  -0.46736  -0.43419  -0.41677  -0.39405
 Alpha  occ. eigenvalues --   -0.38715  -0.35628
 Alpha virt. eigenvalues --    0.05693   0.06608   0.08418   0.09216   0.10832
 Alpha virt. eigenvalues --    0.11747   0.12807   0.13517   0.15037   0.15173
 Alpha virt. eigenvalues --    0.15827   0.16374   0.19271   0.20592   0.21777

 Mulliken charges:
               1
     1  C   -0.142565
     2  C   -0.055451
     3  H    0.039457
     4  H    0.026971
     5  H    0.034005
     6  C   -0.051894
     7  H    0.028989
     8  H    0.061786
     9  C   -0.267663
    10  H    0.060332
    11  H    0.042361
    12  H    0.159648
    13  H    0.037289
    14  H    0.026734
 Sum of Mulliken charges =   0.00000

 Dipole moment (field-independent basis, Debye):
    X=             -0.1247    Y=             -0.0077    Z=             -0.4763  Tot=              0.4924
 Quadrupole moment (field-independent basis, Debye-Ang):
   XX=            -30.0638   YY=            -28.3648   ZZ=            -28.1493
   XY=             -0.2288   XZ=              0.0104   YZ=              0.1099

 Normal termination of Gaussian 09 at Wed Aug 26 10:40:15 2020.
