 Gaussian 09, Revision D.01,
 Gaussian 09:  ES64L-G09RevD.01 24-Apr-2013

 --------------------
 #p B2PLYPD3/Def2QZVP
 --------------------

 ----------
 butane_opt
 ----------
 Symbolic Z-matrix:
 Charge =  0 Multiplicity = 1

                         Standard orientation:
 ---------------------------------------------------------------------
 Center     Atomic      Atomic             Coordinates (Angstroms)
 Number     Number       Type             X           Y           Z
 ---------------------------------------------------------------------
      1          6           0        1.844468    0.068113   -0.114652
      2          6           0        0.616916   -0.434739    0.144317
      3          1           0        2.508476   -0.551667   -0.619889
      4          1           0        2.536777    0.600622    0.805670
      5          1           0        1.583549    0.509975   -0.943046
      6          6           0       -0.533033    0.586312    0.072120
      7          1           0        0.581457   -1.301701    1.164037
      8          1           0        0.398138   -0.851876   -0.427881
      9          6           0       -1.892083   -0.185955   -0.119493
     10          1           0       -0.390492    0.817839   -0.613946
     11          1           0       -0.361702    1.510655    0.995745
     12          1           0       -1.909286   -0.745703   -0.928711
     13          1           0       -2.769054    0.659142   -0.185378
     14          1           0       -2.395471   -0.849674    0.859650
 ---------------------------------------------------------------------

 SCF Done:  E(RB2PLYPD3) =  -157.637749524     A.U. after   11 cycles
 E2(B2PLYPD3) =    -0.2497700441D+00 E(B2PLYPD3) =    -0.15788751956860D+03

 The electronic state is 1-A.
 Alpha  occ. eigenvalues --  -10.62782 -10.60047 -10.58861 -10.57923  -0.98629
 Alpha  occ. eigenvalues --   -0.86632  -0.74544  -0.71490  -0.56949  -0.52414
 Alpha  occ. eigenvalues --   -0.50180  -0.48204  -0.42181  -0.41426  -0.39396
 Alpha  occ. eigenvalues --   -0.36645  -0.34509
 Alpha virt. eigenvalues --    0.05195   0.06505   0.08186   0.08280   0.10701
 Alpha virt. eigenvalues --    0.11296   0.11808   0.12551   0.15061   0.15761
 Alpha virt. eigenvalues --    0.15907   0.16965   0.18802   0.19108   0.21804

 Mulliken charges:
               1
     1  C   -0.120447
     2  C   -0.432567
     3  H    0.036969
     4  H    0.047364
     5  H    0.044789
     6  C   -0.481755
     7  H   -0.002080
     8  H    0.408399
     9  C   -0.146999
    10  H    0.459546
    11  H    0.046451
    12  H    0.072767
    13  H    0.031551
    14  H    0.036012
 Sum of Mulliken charges =   0.00000

 Dipole moment (field-independent basis, Debye):
    X=              0.1512    Y=             -0.0437    Z=             -1.0378  Tot=              1.0496
 Quadrupole moment (field-independent basis, Debye-Ang):
   XX=            -29.3071   YY=            -29.8586   ZZ=            -27.8516
   XY=             -0.0164   XZ=             -0.0581   YZ=              0.9744

 Normal termination of Gaussian 09 at Wed Aug 26 18:58:30 2020.
