 Gaussian 09, Revision D.01,
 Gaussian 09:  ES64L-G09RevD.01 24-Apr-2013

 --------------------
 #p B2PLYPD3/Def2QZVP
 --------------------

 ----------
 butane_opt
 ----------
 Symbolic Z-matrix:
 Charge =  0 Multiplicity = 1

                         Standard orientation:
 ---------------------------------------------------------------------
 Center     Atomic      Atomic             Coordinates (Angstroms)
 Number     Number       Type             X           Y           Z
 ---------------------------------------------------------------------
      1          6           0        1.949275    0.102497   -0.060192
      2          6           0        0.607536   -0.499789    0.046848
      3          1           0        2.772237   -0.704556    0.086830
      4          1           0        2.102386    0.459300    0.581465
      5          1           0        2.108969    0.841822   -1.066278
      6          6           0       -0.557503    0.606300    0.109137
      7          1           0        0.380479   -1.174527    1.022062
      8          1           0        0.605369   -1.019765   -0.691891
      9          6           0       -1.980866   -0.186994   -0.099288
     10          1           0       -0.513806    1.033551   -0.660548
     11          1           0       -0.543229    1.465712    1.144250
     12          1           0       -2.062705   -0.703469   -0.945587
     13          1           0       -2.676422    0.440071   -0.313815
     14          1           0       -2.283931   -0.770221    0.864476
 ---------------------------------------------------------------------

 SCF Done:  E(RB2PLYPD3) =  -157.803046938     A.U. after   11 cycles
 E2(B2PLYPD3) =    -0.2474240870D+00 E(B2PLYPD3) =    -0.15805047102548D+03

 The electronic state is 1-A.
 Alpha  occ. eigenvalues --  -10.61686 -10.59506 -10.58521 -10.57913  -0.92155
 Alpha  occ. eigenvalues --   -0.85316  -0.76040  -0.70229  -0.55152  -0.49044
 Alpha  occ. eigenvalues --   -0.47926  -0.47631  -0.43285  -0.42106  -0.39433
 Alpha  occ. eigenvalues --   -0.37972  -0.35510
 Alpha virt. eigenvalues --    0.05488   0.06692   0.08066   0.08391   0.10839
 Alpha virt. eigenvalues --    0.11845   0.12652   0.13998   0.14619   0.15527
 Alpha virt. eigenvalues --    0.15909   0.16582   0.18865   0.19759   0.21784

 Mulliken charges:
               1
     1  C   -0.428556
     2  C   -0.058690
     3  H    0.035189
     4  H    0.300905
     5  H    0.040356
     6  C   -0.177463
     7  H    0.015293
     8  H    0.112596
     9  C   -0.128959
    10  H    0.140762
    11  H    0.021470
    12  H    0.039809
    13  H    0.047253
    14  H    0.040038
 Sum of Mulliken charges =   0.00000

 Dipole moment (field-independent basis, Debye):
    X=             -0.1197    Y=              0.1278    Z=             -0.3168  Tot=              0.3620
 Quadrupole moment (field-independent basis, Debye-Ang):
   XX=            -29.2424   YY=            -29.0037   ZZ=            -27.3812
   XY=             -0.1810   XZ=              1.0947   YZ=             -0.1869

 Normal termination of Gaussian 09 at Wed Aug 26 21:53:19 2020.
