 Gaussian 09, Revision D.01,
 Gaussian 09:  ES64L-G09RevD.01 24-Apr-2013

 --------------------
 #p B2PLYPD3/Def2QZVP
 --------------------

 ----------
 butane_opt
 ----------
 Symbolic Z-matrix:
 Charge =  0 Multiplicity = 1

                         Standard orientation:
 ---------------------------------------------------------------------
 Center     Atomic      Atomic             Coordinates (Angstroms)
 Number     Number       Type             X           Y           Z
 ---------------------------------------------------------------------
      1          6           0       -1.971329    0.079572   -0.110857
      2          6           0       -0.565351   -0.494956    0.064200
      3          1           0       -2.777434   -0.714997   -0.179936
      4          1           0       -2.052228    0.800538   -1.002361
      5          1           0       -2.162312    0.715120    0.730261
      6          6           0        0.546545    0.530110    0.166694
      7          1           0       -0.479230   -0.940706   -0.651960
      8          1           0       -0.653016   -1.183786    1.000632
      9          6           0        2.001751   -0.152652   -0.124288
     10          1           0        0.395008    1.358804    1.172051
     11          1           0        0.425384    1.099649   -0.562649
     12          1           0        2.410865   -0.967869    0.880645
     13          1           0        2.814958    0.673863   -0.492396
     14          1           0        2.008308   -0.613063   -0.868781
 ---------------------------------------------------------------------

 SCF Done:  E(RB2PLYPD3) =  -157.923785730     A.U. after   11 cycles
 E2(B2PLYPD3) =    -0.2482135187D+00 E(B2PLYPD3) =    -0.15817199924817D+03

 The electronic state is 1-A.
 Alpha  occ. eigenvalues --  -10.62388 -10.62013 -10.60557 -10.58599  -0.92308
 Alpha  occ. eigenvalues --   -0.83272  -0.74193  -0.69315  -0.54823  -0.49730
 Alpha  occ. eigenvalues --   -0.48149  -0.45793  -0.42754  -0.40377  -0.38985
 Alpha  occ. eigenvalues --   -0.38151  -0.37047
 Alpha virt. eigenvalues --    0.05021   0.06294   0.08284   0.08600   0.10959
 Alpha virt. eigenvalues --    0.11254   0.12508   0.12812   0.14526   0.15182
 Alpha virt. eigenvalues --    0.15608   0.16613   0.19199   0.19576   0.20554

 Mulliken charges:
               1
     1  C   -0.140573
     2  C   -0.169635
     3  H    0.047846
     4  H    0.022293
     5  H    0.050283
     6  C   -0.071189
     7  H    0.165874
     8  H    0.024461
     9  C   -0.236207
    10  H    0.011300
    11  H    0.094296
    12  H    0.032218
    13  H    0.029791
    14  H    0.139241
 Sum of Mulliken charges =   0.00000

 Dipole moment (field-independent basis, Debye):
    X=             -0.2227    Y=             -0.0863    Z=             -0.6713  Tot=              0.7125
 Quadrupole moment (field-independent basis, Debye-Ang):
   XX=            -30.6052   YY=            -28.8376   ZZ=            -28.2758
   XY=              0.2727   XZ=             -1.2571   YZ=             -0.2082

 Normal termination of Gaussian 09 at Wed Aug 26 21:50:12 2020.
