 Gaussian 09, Revision D.01,
 Gaussian 09:  ES64L-G09RevD.01 24-Apr-2013

 --------------------
 #p B2PLYPD3/Def2QZVP
 --------------------

 ----------
 butane_opt
 ----------
 Symbolic Z-matrix:
 Charge =  0 Multiplicity = 1

                         Standard orientation:
 ---------------------------------------------------------------------
 Center     Atomic      Atomic             Coordinates (Angstroms)
 Number     Number       Type             X           Y           Z
 ---------------------------------------------------------------------
      1          6           0       -1.972025   -0.108150   -0.194957
      2          6           0       -0.635884    0.518522    0.070926
      3          1           0       -2.763031    0.680579   -0.072525
      4          1           0       -2.130559   -0.565799    0.612701
      5          1           0       -2.113378   -0.910491   -1.108121
      6          6           0        0.516364   -0.549929    0.296443
      7          1           0       -0.794344    1.397317    0.996827
      8          1           0        0.010254    0.882205   -0.454820
      9          6           0        2.074614    0.090662   -0.208738
     10          1           0        0.301563   -0.966590   -0.320546
     11          1           0        0.450948   -1.305016    1.370201
     12          1           0        1.646639    0.650266   -0.993391
     13          1           0        2.888431   -0.662360   -0.603266
     14          1           0        2.605070    1.093258    0.790899
 ---------------------------------------------------------------------

 SCF Done:  E(RB2PLYPD3) =  -157.771002315     A.U. after   11 cycles
 E2(B2PLYPD3) =    -0.2537565659D+00 E(B2PLYPD3) =    -0.15802475888114D+03

 The electronic state is 1-A.
 Alpha  occ. eigenvalues --  -10.66369 -10.61666 -10.61381 -10.60921  -0.93831
 Alpha  occ. eigenvalues --   -0.83315  -0.73933  -0.70157  -0.52719  -0.50089
 Alpha  occ. eigenvalues --   -0.48182  -0.46981  -0.44788  -0.39086  -0.37518
 Alpha  occ. eigenvalues --   -0.36897  -0.34762
 Alpha virt. eigenvalues --    0.04109   0.05649   0.07731   0.08279   0.10047
 Alpha virt. eigenvalues --    0.11009   0.12414   0.12906   0.14296   0.15067
 Alpha virt. eigenvalues --    0.15701   0.15967   0.17815   0.18862   0.19802

 Mulliken charges:
               1
     1  C   -0.146008
     2  C   -0.107524
     3  H    0.046249
     4  H    0.104431
     5  H    0.033515
     6  C   -0.410689
     7  H    0.000631
     8  H    0.111408
     9  C   -0.212555
    10  H    0.377149
    11  H    0.025700
    12  H    0.081395
    13  H    0.074975
    14  H    0.021323
 Sum of Mulliken charges =   0.00000

 Dipole moment (field-independent basis, Debye):
    X=             -0.4021    Y=             -0.3456    Z=             -0.5581  Tot=              0.7698
 Quadrupole moment (field-independent basis, Debye-Ang):
   XX=            -29.3806   YY=            -29.5967   ZZ=            -29.3306
   XY=             -0.3675   XZ=             -1.6956   YZ=              0.9144

 Normal termination of Gaussian 09 at Wed Aug 26 12:00:49 2020.
