 Gaussian 09, Revision D.01,
 Gaussian 09:  ES64L-G09RevD.01 24-Apr-2013

 --------------------
 #p B2PLYPD3/Def2QZVP
 --------------------

 ----------
 butane_opt
 ----------
 Symbolic Z-matrix:
 Charge =  0 Multiplicity = 1

                         Standard orientation:
 ---------------------------------------------------------------------
 Center     Atomic      Atomic             Coordinates (Angstroms)
 Number     Number       Type             X           Y           Z
 ---------------------------------------------------------------------
      1          6           0       -1.935978   -0.206234   -0.107680
      2          6           0       -0.539155    0.542052    0.261542
      3          1           0       -2.734848    0.501123   -1.091230
      4          1           0       -2.627228   -0.732352    0.806154
      5          1           0       -1.487046   -0.869304   -0.894527
      6          6           0        0.559654   -0.422061    0.163426
      7          1           0       -0.374079    1.450190    1.338418
      8          1           0       -0.362392    1.112143   -0.638026
      9          6           0        1.883715    0.110848   -0.172430
     10          1           0        0.327779   -1.041713   -0.586368
     11          1           0        0.743716   -0.958440    1.121755
     12          1           0        1.732154    0.907598   -1.169166
     13          1           0        2.911878   -0.976399   -0.060097
     14          1           0        2.060647    0.459518    0.303940
 ---------------------------------------------------------------------

 SCF Done:  E(RB2PLYPD3) =  -157.496556419     A.U. after   12 cycles
 E2(B2PLYPD3) =    -0.2557319122D+00 E(B2PLYPD3) =    -0.15775228833076D+03

 The electronic state is 1-A.
 Alpha  occ. eigenvalues --  -10.66983 -10.64879 -10.61764 -10.59665  -0.95341
 Alpha  occ. eigenvalues --   -0.85448  -0.74237  -0.66610  -0.56223  -0.50448
 Alpha  occ. eigenvalues --   -0.47106  -0.46127  -0.42088  -0.38510  -0.38133
 Alpha  occ. eigenvalues --   -0.37243  -0.35540
 Alpha virt. eigenvalues --    0.03474   0.04257   0.06191   0.07550   0.09018
 Alpha virt. eigenvalues --    0.10534   0.11641   0.12181   0.14059   0.14582
 Alpha virt. eigenvalues --    0.15347   0.16212   0.17572   0.18938   0.20996

 Mulliken charges:
               1
     1  C   -0.182348
     2  C   -0.084635
     3  H    0.015582
     4  H    0.073340
     5  H    0.070608
     6  C    0.048447
     7  H    0.010449
     8  H    0.069733
     9  C   -0.733554
    10  H    0.077373
    11  H    0.019731
    12  H    0.049587
    13  H    0.020965
    14  H    0.544721
 Sum of Mulliken charges =   0.00000

 Dipole moment (field-independent basis, Debye):
    X=              0.0461    Y=             -0.1929    Z=              0.0875  Tot=              0.2168
 Quadrupole moment (field-independent basis, Debye-Ang):
   XX=            -32.4812   YY=            -30.0865   ZZ=            -28.6205
   XY=              0.9969   XZ=              0.9925   YZ=             -0.4694

 Normal termination of Gaussian 09 at Wed Aug 26 22:34:59 2020.
