 Gaussian 09, Revision D.01,
 Gaussian 09:  ES64L-G09RevD.01 24-Apr-2013

 --------------------
 #p B2PLYPD3/Def2QZVP
 --------------------

 ----------
 butane_opt
 ----------
 Symbolic Z-matrix:
 Charge =  0 Multiplicity = 1

                         Standard orientation:
 ---------------------------------------------------------------------
 Center     Atomic      Atomic             Coordinates (Angstroms)
 Number     Number       Type             X           Y           Z
 ---------------------------------------------------------------------
      1          6           0        1.960463    0.011647   -0.203241
      2          6           0        0.648554   -0.407165    0.366743
      3          1           0        2.867829   -0.762345   -0.538273
      4          1           0        2.326041    0.957778    0.533584
      5          1           0        1.419597    0.177121   -1.072007
      6          6           0       -0.556712    0.605438    0.028930
      7          1           0        0.569929   -0.874761    1.467109
      8          1           0        0.434875   -0.997522   -0.209529
      9          6           0       -1.985472   -0.184248   -0.189307
     10          1           0       -0.139623    1.009373   -0.797331
     11          1           0       -0.602465    1.689155    0.771355
     12          1           0       -2.247165   -1.017566   -0.932709
     13          1           0       -2.576659    0.295143   -0.032527
     14          1           0       -2.453359   -0.630405    0.791579
 ---------------------------------------------------------------------

 SCF Done:  E(RB2PLYPD3) =  -157.791719891     A.U. after   11 cycles
 E2(B2PLYPD3) =    -0.2519258019D+00 E(B2PLYPD3) =    -0.15804364569245D+03

 The electronic state is 1-A.
 Alpha  occ. eigenvalues --  -10.64220 -10.62449 -10.59566 -10.59285  -0.93289
 Alpha  occ. eigenvalues --   -0.86386  -0.74834  -0.67759  -0.54583  -0.51028
 Alpha  occ. eigenvalues --   -0.49256  -0.44837  -0.42335  -0.41082  -0.38923
 Alpha  occ. eigenvalues --   -0.36868  -0.34791
 Alpha virt. eigenvalues --    0.05230   0.06003   0.07780   0.08786   0.10231
 Alpha virt. eigenvalues --    0.11189   0.12508   0.13838   0.14497   0.14959
 Alpha virt. eigenvalues --    0.16485   0.16824   0.18278   0.19177   0.20273

 Mulliken charges:
               1
     1  C   -0.178632
     2  C   -0.204042
     3  H    0.049535
     4  H    0.041148
     5  H    0.058172
     6  C   -0.045105
     7  H    0.023998
     8  H    0.211346
     9  C   -0.379147
    10  H    0.065782
    11  H    0.004626
    12  H    0.062880
    13  H    0.277848
    14  H    0.011591
 Sum of Mulliken charges =   0.00000

 Dipole moment (field-independent basis, Debye):
    X=             -0.5309    Y=             -0.2150    Z=             -0.3889  Tot=              0.6923
 Quadrupole moment (field-independent basis, Debye-Ang):
   XX=            -28.3647   YY=            -29.3237   ZZ=            -29.1421
   XY=             -0.2405   XZ=             -0.4350   YZ=              1.4266

 Normal termination of Gaussian 09 at Wed Aug 26 10:42:34 2020.
