 Gaussian 09, Revision D.01,
 Gaussian 09:  ES64L-G09RevD.01 24-Apr-2013

 --------------------
 #p B2PLYPD3/Def2QZVP
 --------------------

 ----------
 butane_opt
 ----------
 Symbolic Z-matrix:
 Charge =  0 Multiplicity = 1

                         Standard orientation:
 ---------------------------------------------------------------------
 Center     Atomic      Atomic             Coordinates (Angstroms)
 Number     Number       Type             X           Y           Z
 ---------------------------------------------------------------------
      1          6           0        1.980170   -0.148392   -0.170901
      2          6           0        0.492458    0.646864    0.072374
      3          1           0        2.620589    0.269570   -0.288807
      4          1           0        2.039864   -0.734512   -0.779226
      5          1           0        2.599318   -0.774389    0.796294
      6          6           0       -0.570032   -0.406056    0.297184
      7          1           0        0.242185    1.068050   -0.764030
      8          1           0        0.807004    1.282058    0.859635
      9          6           0       -1.993578    0.006264   -0.166643
     10          1           0       -0.551496   -1.029886    1.195027
     11          1           0       -0.417632   -1.281920   -0.529826
     12          1           0       -2.471057    0.912502    0.736772
     13          1           0       -2.678286   -0.678736   -0.516670
     14          1           0       -1.644601    0.375181   -0.901253
 ---------------------------------------------------------------------

 SCF Done:  E(RB2PLYPD3) =  -157.785448020     A.U. after   11 cycles
 E2(B2PLYPD3) =    -0.2484522939D+00 E(B2PLYPD3) =    -0.15803390031415D+03

 The electronic state is 1-A.
 Alpha  occ. eigenvalues --  -10.62315 -10.61493 -10.59814 -10.56318  -0.92175
 Alpha  occ. eigenvalues --   -0.86647  -0.78417  -0.67870  -0.56100  -0.52376
 Alpha  occ. eigenvalues --   -0.49610  -0.47810  -0.43817  -0.40377  -0.39724
 Alpha  occ. eigenvalues --   -0.38627  -0.33917
 Alpha virt. eigenvalues --    0.05418   0.06233   0.08149   0.09022   0.10131
 Alpha virt. eigenvalues --    0.11600   0.12635   0.13591   0.14053   0.15718
 Alpha virt. eigenvalues --    0.17092   0.17471   0.18928   0.19602   0.20886

 Mulliken charges:
               1
     1  C   -0.425819
     2  C   -0.078120
     3  H    0.249500
     4  H    0.119687
     5  H   -0.000057
     6  C   -0.026074
     7  H    0.084677
     8  H    0.055003
     9  C   -0.231839
    10  H    0.051072
    11  H    0.001505
    12  H    0.009587
    13  H    0.062342
    14  H    0.128535
 Sum of Mulliken charges =   0.00000

 Dipole moment (field-independent basis, Debye):
    X=              0.3150    Y=              0.0953    Z=             -0.6252  Tot=              0.7065
 Quadrupole moment (field-independent basis, Debye-Ang):
   XX=            -29.2060   YY=            -28.9803   ZZ=            -27.9885
   XY=              1.4456   XZ=              0.1557   YZ=              0.5440

 Normal termination of Gaussian 09 at Wed Aug 26 16:30:26 2020.
