 Gaussian 09, Revision D.01,
 Gaussian 09:  ES64L-G09RevD.01 24-Apr-2013

 --------------------
 #p B2PLYPD3/Def2QZVP
 --------------------

 ----------
 butane_opt
 ----------
 Symbolic Z-matrix:
 Charge =  0 Multiplicity = 1

                         Standard orientation:
 ---------------------------------------------------------------------
 Center     Atomic      Atomic             Coordinates (Angstroms)
 Number     Number       Type             X           Y           Z
 ---------------------------------------------------------------------
      1          6           0        1.946780   -0.235978   -0.129452
      2          6           0        0.616167    0.670830    0.016684
      3          1           0        2.616829    0.391368   -0.121197
      4          1           0        2.109714   -0.946750   -0.967660
      5          1           0        2.533056   -0.604299    0.723208
      6          6           0       -0.596334   -0.446673    0.383961
      7          1           0        0.043050    0.990045   -0.865106
      8          1           0        0.713323    1.470400    0.778497
      9          6           0       -1.954520    0.058002   -0.176598
     10          1           0       -0.754012   -0.890252    1.313806
     11          1           0       -0.350114   -1.093357   -0.443703
     12          1           0       -2.582505    0.973035    0.676705
     13          1           0       -2.888575   -0.996983   -0.603097
     14          1           0       -1.513323    0.429701   -1.059024
 ---------------------------------------------------------------------

 SCF Done:  E(RB2PLYPD3) =  -157.923153353     A.U. after   11 cycles
 E2(B2PLYPD3) =    -0.2542031322D+00 E(B2PLYPD3) =    -0.15817735648540D+03

 The electronic state is 1-A.
 Alpha  occ. eigenvalues --  -10.65637 -10.64037 -10.60941 -10.59428  -0.90151
 Alpha  occ. eigenvalues --   -0.84044  -0.72723  -0.66181  -0.55440  -0.48940
 Alpha  occ. eigenvalues --   -0.47255  -0.44909  -0.42741  -0.40806  -0.39825
 Alpha  occ. eigenvalues --   -0.36016  -0.32952
 Alpha virt. eigenvalues --    0.04142   0.06006   0.08308   0.08818   0.09318
 Alpha virt. eigenvalues --    0.09818   0.12512   0.13627   0.14547   0.14911
 Alpha virt. eigenvalues --    0.15462   0.16464   0.17907   0.19154   0.20429

 Mulliken charges:
               1
     1  C   -0.171576
     2  C   -0.081474
     3  H    0.086697
     4  H    0.049175
     5  H    0.026815
     6  C   -0.094083
     7  H    0.072319
     8  H    0.047069
     9  C   -0.180889
    10  H    0.062416
    11  H    0.074388
    12  H    0.027434
    13  H    0.015150
    14  H    0.066560
 Sum of Mulliken charges =   0.00000

 Dipole moment (field-independent basis, Debye):
    X=              1.1248    Y=              0.1825    Z=              0.0353  Tot=              1.1401
 Quadrupole moment (field-independent basis, Debye-Ang):
   XX=            -30.3468   YY=            -29.7793   ZZ=            -28.6762
   XY=              0.1971   XZ=              0.1501   YZ=              1.0758

 Normal termination of Gaussian 09 at Wed Aug 26 15:56:53 2020.
