 Gaussian 09, Revision D.01,
 Gaussian 09:  ES64L-G09RevD.01 24-Apr-2013

 --------------------
 #p B2PLYPD3/Def2QZVP
 --------------------

 ----------
 butane_opt
 ----------
 Symbolic Z-matrix:
 Charge =  0 Multiplicity = 1

                         Standard orientation:
 ---------------------------------------------------------------------
 Center     Atomic      Atomic             Coordinates (Angstroms)
 Number     Number       Type             X           Y           Z
 ---------------------------------------------------------------------
      1          6           0        1.964122    0.064483    0.003858
      2          6           0        0.623456   -0.497458    0.108823
      3          1           0        2.603031   -0.711594   -0.604548
      4          1           0        2.155968    0.951079    1.087957
      5          1           0        1.706450    0.392273   -0.645413
      6          6           0       -0.545312    0.624949   -0.055464
      7          1           0        0.232137   -0.932431    0.760408
      8          1           0        0.475301   -1.282142   -0.698079
      9          6           0       -1.934985   -0.159206    0.015374
     10          1           0       -0.352911    1.423113   -1.062120
     11          1           0       -0.550517    1.115407    0.784692
     12          1           0       -2.116804   -0.760894   -0.740505
     13          1           0       -2.543932    0.413070   -0.189104
     14          1           0       -2.252409   -0.804490    0.871170
 ---------------------------------------------------------------------

 SCF Done:  E(RB2PLYPD3) =  -157.746037159     A.U. after   11 cycles
 E2(B2PLYPD3) =    -0.2498251391D+00 E(B2PLYPD3) =    -0.15799586229825D+03

 The electronic state is 1-A.
 Alpha  occ. eigenvalues --  -10.62136 -10.59690 -10.58629 -10.56586  -0.94105
 Alpha  occ. eigenvalues --   -0.87067  -0.77108  -0.69637  -0.52754  -0.50464
 Alpha  occ. eigenvalues --   -0.49494  -0.46487  -0.44621  -0.41403  -0.40226
 Alpha  occ. eigenvalues --   -0.37011  -0.34925
 Alpha virt. eigenvalues --    0.04746   0.06469   0.07775   0.07974   0.10808
 Alpha virt. eigenvalues --    0.12135   0.12174   0.13791   0.14057   0.15187
 Alpha virt. eigenvalues --    0.16423   0.17300   0.18690   0.19976   0.21036

 Mulliken charges:
               1
     1  C   -0.450387
     2  C   -0.117218
     3  H    0.051059
     4  H    0.047435
     5  H    0.366218
     6  C   -0.076209
     7  H    0.113439
     8  H    0.005027
     9  C   -0.195223
    10  H    0.008456
    11  H    0.072354
    12  H    0.028589
    13  H    0.112548
    14  H    0.033912
 Sum of Mulliken charges =   0.00000

 Dipole moment (field-independent basis, Debye):
    X=             -0.6245    Y=             -0.1189    Z=             -0.1593  Tot=              0.6554
 Quadrupole moment (field-independent basis, Debye-Ang):
   XX=            -30.1501   YY=            -28.5927   ZZ=            -27.6043
   XY=              0.2092   XZ=             -0.8247   YZ=              0.5654

 Normal termination of Gaussian 09 at Wed Aug 26 19:42:02 2020.
