 Gaussian 09, Revision D.01,
 Gaussian 09:  ES64L-G09RevD.01 24-Apr-2013

 --------------------
 #p B2PLYPD3/Def2QZVP
 --------------------

 ----------
 butane_opt
 ----------
 Symbolic Z-matrix:
 Charge =  0 Multiplicity = 1

                         Standard orientation:
 ---------------------------------------------------------------------
 Center     Atomic      Atomic             Coordinates (Angstroms)
 Number     Number       Type             X           Y           Z
 ---------------------------------------------------------------------
      1          6           0        2.007337    0.111058    0.094414
      2          6           0        0.604295   -0.499239   -0.074643
      3          1           0        2.740629   -0.622164   -0.408132
      4          1           0        2.337042    1.048354    1.219834
      5          1           0        1.835876    0.333577   -0.657916
      6          6           0       -0.621238    0.591588   -0.133115
      7          1           0        0.580190   -1.343961    0.867821
      8          1           0        0.353098   -1.189125   -1.066553
      9          6           0       -1.964532   -0.143981    0.035744
     10          1           0       -0.500370    1.224233   -0.992207
     11          1           0       -0.534568    1.269451    0.667835
     12          1           0       -2.302139   -0.424972   -0.607552
     13          1           0       -2.601960    0.388318    0.287630
     14          1           0       -2.062974   -1.040260    1.154833
 ---------------------------------------------------------------------

 SCF Done:  E(RB2PLYPD3) =  -157.658638644     A.U. after   11 cycles
 E2(B2PLYPD3) =    -0.2533804601D+00 E(B2PLYPD3) =    -0.15791201910395D+03

 The electronic state is 1-A.
 Alpha  occ. eigenvalues --  -10.64930 -10.61640 -10.60596 -10.57312  -0.92331
 Alpha  occ. eigenvalues --   -0.88653  -0.76854  -0.65431  -0.54620  -0.49414
 Alpha  occ. eigenvalues --   -0.49156  -0.47028  -0.42743  -0.40642  -0.38206
 Alpha  occ. eigenvalues --   -0.35442  -0.33286
 Alpha virt. eigenvalues --    0.04020   0.05305   0.06687   0.07801   0.10177
 Alpha virt. eigenvalues --    0.10573   0.12040   0.12701   0.14380   0.15218
 Alpha virt. eigenvalues --    0.15798   0.16426   0.18370   0.19941   0.21888

 Mulliken charges:
               1
     1  C   -0.449325
     2  C   -0.060798
     3  H    0.053070
     4  H    0.077028
     5  H    0.312020
     6  C    0.008076
     7  H    0.017761
     8  H    0.024536
     9  C   -0.359413
    10  H    0.031362
    11  H    0.033298
    12  H    0.204018
    13  H    0.092597
    14  H    0.015771
 Sum of Mulliken charges =   0.00000

 Dipole moment (field-independent basis, Debye):
    X=             -0.4607    Y=              0.7013    Z=             -0.6690  Tot=              1.0732
 Quadrupole moment (field-independent basis, Debye-Ang):
   XX=            -29.2407   YY=            -29.5439   ZZ=            -27.8418
   XY=             -0.5955   XZ=              0.3358   YZ=              1.0554

 Normal termination of Gaussian 09 at Wed Aug 26 23:20:31 2020.
