 Gaussian 09, Revision D.01,
 Gaussian 09:  ES64L-G09RevD.01 24-Apr-2013

 --------------------
 #p B2PLYPD3/Def2QZVP
 --------------------

 ----------
 butane_opt
 ----------
 Symbolic Z-matrix:
 Charge =  0 Multiplicity = 1

                         Standard orientation:
 ---------------------------------------------------------------------
 Center     Atomic      Atomic             Coordinates (Angstroms)
 Number     Number       Type             X           Y           Z
 ---------------------------------------------------------------------
      1          6           0       -2.000867   -0.201307   -0.128054
      2          6           0       -0.533241    0.654550   -0.014523
      3          1           0       -2.605665    0.387089    0.049310
      4          1           0       -2.063967   -0.503334    0.653695
      5          1           0       -2.488558   -1.222866   -0.925159
      6          6           0        0.620085   -0.409610    0.318481
      7          1           0       -0.690396    1.690186    0.961593
      8          1           0       -0.526267    0.762590   -0.701750
      9          6           0        1.907758    0.006975   -0.226730
     10          1           0        0.476735   -0.911723   -0.332168
     11          1           0        0.668955   -1.102910    1.416437
     12          1           0        1.942745    0.608928   -1.203594
     13          1           0        2.869026   -0.883133   -0.249835
     14          1           0        2.454980    0.871530    0.636429
 ---------------------------------------------------------------------

 SCF Done:  E(RB2PLYPD3) =  -157.489586396     A.U. after   11 cycles
 E2(B2PLYPD3) =    -0.2538876673D+00 E(B2PLYPD3) =    -0.15774347406303D+03

 The electronic state is 1-A.
 Alpha  occ. eigenvalues --  -10.64965 -10.62817 -10.60630 -10.57576  -0.94705
 Alpha  occ. eigenvalues --   -0.87093  -0.78620  -0.68210  -0.54184  -0.50311
 Alpha  occ. eigenvalues --   -0.47399  -0.46228  -0.43279  -0.40629  -0.38355
 Alpha  occ. eigenvalues --   -0.36637  -0.34266
 Alpha virt. eigenvalues --    0.04261   0.05549   0.06376   0.07734   0.09986
 Alpha virt. eigenvalues --    0.10715   0.11658   0.13189   0.13550   0.14897
 Alpha virt. eigenvalues --    0.15349   0.16716   0.18341   0.19949   0.20811

 Mulliken charges:
               1
     1  C   -0.356669
     2  C   -0.601906
     3  H    0.115102
     4  H    0.169674
     5  H    0.042518
     6  C   -0.240543
     7  H    0.038171
     8  H    0.567258
     9  C   -0.174727
    10  H    0.298887
    11  H    0.044592
    12  H    0.062392
    13  H    0.035176
    14  H    0.000076
 Sum of Mulliken charges =   0.00000

 Dipole moment (field-independent basis, Debye):
    X=             -0.4344    Y=             -0.2586    Z=             -0.0471  Tot=              0.5078
 Quadrupole moment (field-independent basis, Debye-Ang):
   XX=            -30.3173   YY=            -29.1010   ZZ=            -28.1813
   XY=             -0.6324   XZ=             -1.2686   YZ=              0.0257

 Normal termination of Gaussian 09 at Wed Aug 26 23:51:08 2020.
