 Gaussian 09, Revision D.01,
 Gaussian 09:  ES64L-G09RevD.01 24-Apr-2013

 --------------------
 #p B2PLYPD3/Def2QZVP
 --------------------

 ----------
 butane_opt
 ----------
 Symbolic Z-matrix:
 Charge =  0 Multiplicity = 1

                         Standard orientation:
 ---------------------------------------------------------------------
 Center     Atomic      Atomic             Coordinates (Angstroms)
 Number     Number       Type             X           Y           Z
 ---------------------------------------------------------------------
      1          6           0       -1.885374    0.026108   -0.181780
      2          6           0       -0.667918   -0.441258    0.137067
      3          1           0       -2.659399   -0.816304   -0.065987
      4          1           0       -2.137278    0.861619   -1.155410
      5          1           0       -1.817035    0.681546    0.584159
      6          6           0        0.513180    0.560585    0.195766
      7          1           0       -0.325383   -0.930567   -0.419912
      8          1           0       -0.669951   -1.157144    1.136335
      9          6           0        1.957791   -0.159231   -0.194632
     10          1           0        0.428567    1.609114    1.275473
     11          1           0        0.367711    1.009928   -0.528109
     12          1           0        2.508226   -0.982659    0.877851
     13          1           0        2.723811    0.471438   -0.528473
     14          1           0        2.074661   -0.664193   -0.914453
 ---------------------------------------------------------------------

 SCF Done:  E(RB2PLYPD3) =  -157.733071011     A.U. after   11 cycles
 E2(B2PLYPD3) =    -0.2521725322D+00 E(B2PLYPD3) =    -0.15798524354268D+03

 The electronic state is 1-A.
 Alpha  occ. eigenvalues --  -10.63643 -10.62164 -10.60619 -10.58508  -0.96315
 Alpha  occ. eigenvalues --   -0.85633  -0.76776  -0.70444  -0.55036  -0.51880
 Alpha  occ. eigenvalues --   -0.49513  -0.46207  -0.43066  -0.40919  -0.36913
 Alpha  occ. eigenvalues --   -0.36443  -0.35272
 Alpha virt. eigenvalues --    0.03966   0.05793   0.07011   0.07256   0.10334
 Alpha virt. eigenvalues --    0.11537   0.12265   0.12486   0.14269   0.14706
 Alpha virt. eigenvalues --    0.15640   0.16264   0.18903   0.19189   0.20132

 Mulliken charges:
               1
     1  C   -0.165185
     2  C   -0.194435
     3  H    0.062856
     4  H    0.018064
     5  H    0.077001
     6  C   -0.203646
     7  H    0.212221
     8  H    0.020300
     9  C   -0.196174
    10  H   -0.001527
    11  H    0.213674
    12  H    0.003518
    13  H    0.046216
    14  H    0.107117
 Sum of Mulliken charges =   0.00000

 Dipole moment (field-independent basis, Debye):
    X=             -0.1129    Y=             -0.1810    Z=             -0.9164  Tot=              0.9409
 Quadrupole moment (field-independent basis, Debye-Ang):
   XX=            -30.2476   YY=            -29.1868   ZZ=            -28.9203
   XY=              0.5195   XZ=             -2.0218   YZ=             -0.4316

 Normal termination of Gaussian 09 at Wed Aug 26 22:32:29 2020.
