 Gaussian 09, Revision D.01,
 Gaussian 09:  ES64L-G09RevD.01 24-Apr-2013

 --------------------
 #p B2PLYPD3/Def2QZVP
 --------------------

 ----------
 butane_opt
 ----------
 Symbolic Z-matrix:
 Charge =  0 Multiplicity = 1

                         Standard orientation:
 ---------------------------------------------------------------------
 Center     Atomic      Atomic             Coordinates (Angstroms)
 Number     Number       Type             X           Y           Z
 ---------------------------------------------------------------------
      1          6           0       -1.898817    0.119306    0.081668
      2          6           0       -0.581337   -0.497253   -0.120188
      3          1           0       -2.692723   -0.689284    0.065628
      4          1           0       -2.170391    0.466970   -0.657500
      5          1           0       -1.884764    0.892913    1.063077
      6          6           0        0.551390    0.527484   -0.067679
      7          1           0       -0.504896   -1.206089   -0.978286
      8          1           0       -0.389092   -1.031516    0.630462
      9          6           0        1.901079   -0.125877    0.073818
     10          1           0        0.432394    1.151489    0.814959
     11          1           0        0.374349    1.200944   -0.952408
     12          1           0        2.242522   -1.037513    1.099659
     13          1           0        2.626751    0.586141   -0.331045
     14          1           0        2.131968   -0.476019   -0.560262
 ---------------------------------------------------------------------

 SCF Done:  E(RB2PLYPD3) =  -157.816171953     A.U. after   11 cycles
 E2(B2PLYPD3) =    -0.2483679228D+00 E(B2PLYPD3) =    -0.15806453987633D+03

 The electronic state is 1-A.
 Alpha  occ. eigenvalues --  -10.60712 -10.58949 -10.58519 -10.57843  -0.93324
 Alpha  occ. eigenvalues --   -0.87345  -0.76887  -0.68868  -0.54728  -0.51867
 Alpha  occ. eigenvalues --   -0.48341  -0.45567  -0.42019  -0.41784  -0.40007
 Alpha  occ. eigenvalues --   -0.37848  -0.35266
 Alpha virt. eigenvalues --    0.05132   0.06140   0.07961   0.08145   0.10766
 Alpha virt. eigenvalues --    0.11720   0.12648   0.13474   0.14592   0.15653
 Alpha virt. eigenvalues --    0.16011   0.16653   0.19190   0.19432   0.22180

 Mulliken charges:
               1
     1  C   -0.216403
     2  C   -0.046090
     3  H    0.022078
     4  H    0.113102
     5  H    0.043621
     6  C    0.000393
     7  H    0.011567
     8  H    0.076036
     9  C   -0.423611
    10  H    0.041498
    11  H    0.017893
    12  H    0.044266
    13  H    0.028237
    14  H    0.287414
 Sum of Mulliken charges =   0.00000

 Dipole moment (field-independent basis, Debye):
    X=              0.0284    Y=             -0.1685    Z=             -0.6461  Tot=              0.6683
 Quadrupole moment (field-independent basis, Debye-Ang):
   XX=            -29.6903   YY=            -28.7171   ZZ=            -27.8552
   XY=             -0.4139   XZ=             -0.4574   YZ=             -0.2199

 Normal termination of Gaussian 09 at Wed Aug 26 11:33:50 2020.
