 Gaussian 09, Revision D.01,
 Gaussian 09:  ES64L-G09RevD.01 24-Apr-2013

 --------------------
 #p B2PLYPD3/Def2QZVP
 --------------------

 ----------
 butane_opt
 ----------
 Symbolic Z-matrix:
 Charge =  0 Multiplicity = 1

                         Standard orientation:
 ---------------------------------------------------------------------
 Center     Atomic      Atomic             Coordinates (Angstroms)
 Number     Number       Type             X           Y           Z
 ---------------------------------------------------------------------
      1          6           0        1.989511   -0.132618   -0.064169
      2          6           0        0.566211    0.570721    0.074226
      3          1           0        2.632243    0.457796   -0.213846
      4          1           0        2.119741   -0.948187   -1.041927
      5          1           0        2.175493   -0.597372    0.754305
      6          6           0       -0.585624   -0.513456    0.212844
      7          1           0        0.407922    1.142323   -0.755920
      8          1           0        0.530908    1.220313    0.810946
      9          6           0       -1.959851    0.106660   -0.156505
     10          1           0       -0.691575   -1.227930    1.158096
     11          1           0       -0.407212   -1.041433   -0.571368
     12          1           0       -2.274580    1.047395    0.823396
     13          1           0       -2.764252   -0.783278   -0.443993
     14          1           0       -1.790171    0.542529   -0.918067
 ---------------------------------------------------------------------

 SCF Done:  E(RB2PLYPD3) =  -157.934900231     A.U. after   11 cycles
 E2(B2PLYPD3) =    -0.2472707125D+00 E(B2PLYPD3) =    -0.15818217094372D+03

 The electronic state is 1-A.
 Alpha  occ. eigenvalues --  -10.61906 -10.60353 -10.59621 -10.58292  -0.91285
 Alpha  occ. eigenvalues --   -0.84457  -0.74779  -0.68771  -0.54375  -0.52354
 Alpha  occ. eigenvalues --   -0.47416  -0.46239  -0.43895  -0.40430  -0.40160
 Alpha  occ. eigenvalues --   -0.36976  -0.36825
 Alpha virt. eigenvalues --    0.05097   0.06347   0.08173   0.09063   0.10998
 Alpha virt. eigenvalues --    0.11280   0.12559   0.13543   0.14245   0.15147
 Alpha virt. eigenvalues --    0.15992   0.16642   0.18975   0.19950   0.21163

 Mulliken charges:
               1
     1  C   -0.176417
     2  C   -0.045827
     3  H    0.088106
     4  H    0.003772
     5  H    0.062822
     6  C   -0.084208
     7  H    0.036268
     8  H    0.043554
     9  C   -0.227397
    10  H    0.031928
    11  H    0.089743
    12  H    0.011062
    13  H    0.039918
    14  H    0.126675
 Sum of Mulliken charges =   0.00000

 Dipole moment (field-independent basis, Debye):
    X=              0.5285    Y=              0.1350    Z=             -0.2733  Tot=              0.6102
 Quadrupole moment (field-independent basis, Debye-Ang):
   XX=            -30.5459   YY=            -28.4925   ZZ=            -27.9924
   XY=              1.2756   XZ=              0.9231   YZ=              0.0711

 Normal termination of Gaussian 09 at Wed Aug 26 21:16:49 2020.
