 Gaussian 09, Revision D.01,
 Gaussian 09:  ES64L-G09RevD.01 24-Apr-2013

 --------------------
 #p B2PLYPD3/Def2QZVP
 --------------------

 ----------
 butane_opt
 ----------
 Symbolic Z-matrix:
 Charge =  0 Multiplicity = 1

                         Standard orientation:
 ---------------------------------------------------------------------
 Center     Atomic      Atomic             Coordinates (Angstroms)
 Number     Number       Type             X           Y           Z
 ---------------------------------------------------------------------
      1          6           0        1.824111    0.009972   -0.151491
      2          6           0        0.563279   -0.410756    0.351219
      3          1           0        2.558141   -0.946559   -0.616528
      4          1           0        2.653363    0.987111    0.599654
      5          1           0        1.513310    0.256764   -0.986684
      6          6           0       -0.489181    0.597903   -0.007129
      7          1           0        0.618798   -0.763786    1.345926
      8          1           0        0.405000   -1.016011   -0.239166
      9          6           0       -1.979319   -0.118929   -0.135312
     10          1           0        0.218701    0.885902   -0.995880
     11          1           0       -0.547316    1.370188    0.696308
     12          1           0       -2.111455   -1.190691   -0.981572
     13          1           0       -2.546608    0.578447   -0.039765
     14          1           0       -2.275274   -0.630502    0.873982
 ---------------------------------------------------------------------

 SCF Done:  E(RB2PLYPD3) =  -157.818838687     A.U. after   11 cycles
 E2(B2PLYPD3) =    -0.2536863618D+00 E(B2PLYPD3) =    -0.15807252504912D+03

 The electronic state is 1-A.
 Alpha  occ. eigenvalues --  -10.62787 -10.62757 -10.62606 -10.56857  -0.96562
 Alpha  occ. eigenvalues --   -0.83675  -0.73373  -0.68648  -0.57915  -0.49795
 Alpha  occ. eigenvalues --   -0.49425  -0.44300  -0.43247  -0.40562  -0.37918
 Alpha  occ. eigenvalues --   -0.36445  -0.35355
 Alpha virt. eigenvalues --    0.04564   0.05503   0.07726   0.08574   0.09293
 Alpha virt. eigenvalues --    0.10156   0.11993   0.13443   0.14170   0.14517
 Alpha virt. eigenvalues --    0.16256   0.16459   0.18387   0.19140   0.20142

 Mulliken charges:
               1
     1  C   -0.206611
     2  C   -0.185323
     3  H    0.018265
     4  H    0.018402
     5  H    0.122543
     6  C   -0.062490
     7  H    0.042507
     8  H    0.195384
     9  C   -0.198595
    10  H    0.022971
    11  H    0.051910
    12  H    0.043982
    13  H    0.112262
    14  H    0.024793
 Sum of Mulliken charges =   0.00000

 Dipole moment (field-independent basis, Debye):
    X=             -0.5238    Y=             -0.2244    Z=              0.1402  Tot=              0.5868
 Quadrupole moment (field-independent basis, Debye-Ang):
   XX=            -31.1983   YY=            -29.2086   ZZ=            -28.7877
   XY=             -0.2396   XZ=             -1.2986   YZ=              1.4416

 Normal termination of Gaussian 09 at Wed Aug 26 22:19:34 2020.
