 Gaussian 09, Revision D.01,
 Gaussian 09:  ES64L-G09RevD.01 24-Apr-2013

 --------------------
 #p B2PLYPD3/Def2QZVP
 --------------------

 ----------
 butane_opt
 ----------
 Symbolic Z-matrix:
 Charge =  0 Multiplicity = 1

                         Standard orientation:
 ---------------------------------------------------------------------
 Center     Atomic      Atomic             Coordinates (Angstroms)
 Number     Number       Type             X           Y           Z
 ---------------------------------------------------------------------
      1          6           0        1.982289   -0.119356    0.026702
      2          6           0        0.543531    0.552049   -0.123812
      3          1           0        2.741399    0.514079   -0.052446
      4          1           0        2.123248   -0.723506   -0.789236
      5          1           0        2.318038   -0.993858    1.107649
      6          6           0       -0.558556   -0.442952    0.023941
      7          1           0        0.485709    1.118952   -0.942662
      8          1           0        0.407492    1.303159    0.842883
      9          6           0       -1.965849    0.093142    0.027547
     10          1           0       -0.530125   -1.082120    0.970183
     11          1           0       -0.534299   -1.157168   -0.846046
     12          1           0       -2.356626    0.976403    0.981924
     13          1           0       -2.826340   -0.875389   -0.404024
     14          1           0       -1.836992    0.422153   -0.594490
 ---------------------------------------------------------------------

 SCF Done:  E(RB2PLYPD3) =  -157.770856244     A.U. after   11 cycles
 E2(B2PLYPD3) =    -0.2509685520D+00 E(B2PLYPD3) =    -0.15802182479641D+03

 The electronic state is 1-A.
 Alpha  occ. eigenvalues --  -10.62524 -10.61973 -10.61542 -10.60634  -0.93701
 Alpha  occ. eigenvalues --   -0.85354  -0.74842  -0.67151  -0.53895  -0.50788
 Alpha  occ. eigenvalues --   -0.48354  -0.47016  -0.41688  -0.39924  -0.38130
 Alpha  occ. eigenvalues --   -0.37201  -0.36194
 Alpha virt. eigenvalues --    0.04761   0.05323   0.07507   0.08126   0.09702
 Alpha virt. eigenvalues --    0.11163   0.11928   0.12591   0.14272   0.15120
 Alpha virt. eigenvalues --    0.15541   0.16298   0.18491   0.19956   0.20765

 Mulliken charges:
               1
     1  C   -0.149132
     2  C   -0.051392
     3  H    0.060788
     4  H    0.047387
     5  H    0.015212
     6  C    0.005491
     7  H    0.063591
     8  H    0.007219
     9  C   -0.630670
    10  H    0.041398
    11  H    0.025615
    12  H    0.049216
    13  H    0.038508
    14  H    0.476769
 Sum of Mulliken charges =   0.00000

 Dipole moment (field-independent basis, Debye):
    X=              0.4147    Y=              0.3156    Z=             -0.8091  Tot=              0.9624
 Quadrupole moment (field-independent basis, Debye-Ang):
   XX=            -30.7382   YY=            -29.2484   ZZ=            -28.4331
   XY=              0.2948   XZ=             -0.4073   YZ=              0.1806

 Normal termination of Gaussian 09 at Wed Aug 26 20:53:33 2020.
