 Gaussian 09, Revision D.01,
 Gaussian 09:  ES64L-G09RevD.01 24-Apr-2013

 --------------------
 #p B2PLYPD3/Def2QZVP
 --------------------

 ----------
 butane_opt
 ----------
 Symbolic Z-matrix:
 Charge =  0 Multiplicity = 1

                         Standard orientation:
 ---------------------------------------------------------------------
 Center     Atomic      Atomic             Coordinates (Angstroms)
 Number     Number       Type             X           Y           Z
 ---------------------------------------------------------------------
      1          6           0        2.017866   -0.124460    0.093989
      2          6           0        0.536088    0.571162   -0.051522
      3          1           0        2.702405    0.556621   -0.411312
      4          1           0        1.941522   -0.459723   -0.716240
      5          1           0        2.375352   -1.121348    1.193750
      6          6           0       -0.606611   -0.538898   -0.149258
      7          1           0        0.417391    1.304105   -0.929665
      8          1           0        0.379097    1.297476    0.900784
      9          6           0       -1.938184    0.085366    0.076782
     10          1           0       -0.409155   -1.196794    0.595930
     11          1           0       -0.539763   -1.202823   -1.070460
     12          1           0       -2.021248    0.886474    1.081228
     13          1           0       -2.689922   -0.665145    0.174549
     14          1           0       -2.210636    0.642144   -0.638514
 ---------------------------------------------------------------------

 SCF Done:  E(RB2PLYPD3) =  -157.918770683     A.U. after   11 cycles
 E2(B2PLYPD3) =    -0.2515414220D+00 E(B2PLYPD3) =    -0.15817031210503D+03

 The electronic state is 1-A.
 Alpha  occ. eigenvalues --  -10.63833 -10.61658 -10.60557 -10.59536  -0.90574
 Alpha  occ. eigenvalues --   -0.84668  -0.73785  -0.66993  -0.52409  -0.48864
 Alpha  occ. eigenvalues --   -0.48138  -0.45563  -0.42604  -0.39522  -0.38003
 Alpha  occ. eigenvalues --   -0.37151  -0.36062
 Alpha virt. eigenvalues --    0.03724   0.05919   0.07499   0.07752   0.10527
 Alpha virt. eigenvalues --    0.11081   0.12271   0.13270   0.14335   0.15281
 Alpha virt. eigenvalues --    0.15969   0.16244   0.18652   0.19172   0.20929

 Mulliken charges:
               1
     1  C   -0.314027
     2  C   -0.050736
     3  H    0.049784
     4  H    0.180743
     5  H    0.063438
     6  C   -0.025998
     7  H    0.027552
     8  H    0.024621
     9  C   -0.148978
    10  H    0.052815
    11  H    0.015459
    12  H    0.016708
    13  H    0.043796
    14  H    0.064822
 Sum of Mulliken charges =   0.00000

 Dipole moment (field-independent basis, Debye):
    X=             -0.1948    Y=             -0.2768    Z=             -0.6636  Tot=              0.7449
 Quadrupole moment (field-independent basis, Debye-Ang):
   XX=            -30.3811   YY=            -28.7100   ZZ=            -28.3579
   XY=             -0.1890   XZ=             -0.3772   YZ=             -0.9590

 Normal termination of Gaussian 09 at Wed Aug 26 13:46:39 2020.
