 Gaussian 09, Revision D.01,
 Gaussian 09:  ES64L-G09RevD.01 24-Apr-2013

 --------------------
 #p B2PLYPD3/Def2QZVP
 --------------------

 ----------
 butane_opt
 ----------
 Symbolic Z-matrix:
 Charge =  0 Multiplicity = 1

                         Standard orientation:
 ---------------------------------------------------------------------
 Center     Atomic      Atomic             Coordinates (Angstroms)
 Number     Number       Type             X           Y           Z
 ---------------------------------------------------------------------
      1          6           0        1.960109   -0.116448   -0.140610
      2          6           0        0.484505    0.597713    0.147862
      3          1           0        2.571460    0.479463   -0.490361
      4          1           0        1.814167   -0.507105   -0.877620
      5          1           0        2.509914   -1.124829    0.924047
      6          6           0       -0.553416   -0.511088    0.156955
      7          1           0        0.075652    1.026102   -0.504490
      8          1           0        0.322740    1.467441    1.118153
      9          6           0       -1.856694    0.061889   -0.120997
     10          1           0       -0.618434   -0.884993    0.827856
     11          1           0       -0.310306   -1.187604   -0.707568
     12          1           0       -2.053528    0.619834    0.734502
     13          1           0       -2.688705   -0.923109   -0.069410
     14          1           0       -1.829983    0.842402   -1.214374
 ---------------------------------------------------------------------

 SCF Done:  E(RB2PLYPD3) =  -157.697880402     A.U. after   11 cycles
 E2(B2PLYPD3) =    -0.2511100308D+00 E(B2PLYPD3) =    -0.15794899043247D+03

 The electronic state is 1-A.
 Alpha  occ. eigenvalues --  -10.63237 -10.61278 -10.60770 -10.56793  -0.95054
 Alpha  occ. eigenvalues --   -0.85973  -0.75702  -0.70441  -0.56522  -0.50729
 Alpha  occ. eigenvalues --   -0.48606  -0.45945  -0.41804  -0.40944  -0.38100
 Alpha  occ. eigenvalues --   -0.37708  -0.36527
 Alpha virt. eigenvalues --    0.03812   0.05041   0.07519   0.08424   0.10162
 Alpha virt. eigenvalues --    0.10866   0.12155   0.12734   0.14797   0.15244
 Alpha virt. eigenvalues --    0.16065   0.16591   0.18285   0.19603   0.20471

 Mulliken charges:
               1
     1  C   -0.279516
     2  C   -0.163213
     3  H    0.071599
     4  H    0.175855
     5  H    0.025552
     6  C   -0.278493
     7  H    0.173610
     8  H    0.000725
     9  C   -0.158345
    10  H    0.266558
    11  H    0.041444
    12  H    0.070137
    13  H    0.028423
    14  H    0.025665
 Sum of Mulliken charges =   0.00000

 Dipole moment (field-independent basis, Debye):
    X=              0.0164    Y=             -0.0979    Z=             -0.3696  Tot=              0.3827
 Quadrupole moment (field-independent basis, Debye-Ang):
   XX=            -31.0771   YY=            -29.0580   ZZ=            -28.0378
   XY=              0.2775   XZ=             -2.0838   YZ=             -0.6918

 Normal termination of Gaussian 09 at Wed Aug 26 11:14:03 2020.
