 Gaussian 09, Revision D.01,
 Gaussian 09:  ES64L-G09RevD.01 24-Apr-2013

 --------------------
 #p B2PLYPD3/Def2QZVP
 --------------------

 ----------
 butane_opt
 ----------
 Symbolic Z-matrix:
 Charge =  0 Multiplicity = 1

                         Standard orientation:
 ---------------------------------------------------------------------
 Center     Atomic      Atomic             Coordinates (Angstroms)
 Number     Number       Type             X           Y           Z
 ---------------------------------------------------------------------
      1          6           0        1.983470    0.112933    0.107187
      2          6           0        0.594440   -0.493888   -0.089721
      3          1           0        2.750862   -0.694112   -0.034659
      4          1           0        2.078303    0.898944    1.038089
      5          1           0        2.068179    0.544273   -0.608342
      6          6           0       -0.532768    0.497368   -0.181825
      7          1           0        0.413650   -1.090742    0.852113
      8          1           0        0.548659   -1.120140   -0.970040
      9          6           0       -1.999969   -0.138342    0.064526
     10          1           0       -0.408720    1.289368   -1.128875
     11          1           0       -0.568848    1.137767    0.713474
     12          1           0       -2.461182   -0.734134   -0.729669
     13          1           0       -2.744272    0.625335    0.478379
     14          1           0       -1.947672   -0.724987    0.988533
 ---------------------------------------------------------------------

 SCF Done:  E(RB2PLYPD3) =  -158.015662998     A.U. after   11 cycles
 E2(B2PLYPD3) =    -0.2481621575D+00 E(B2PLYPD3) =    -0.15826382515585D+03

 The electronic state is 1-A.
 Alpha  occ. eigenvalues --  -10.62710 -10.61191 -10.60763 -10.58534  -0.91247
 Alpha  occ. eigenvalues --   -0.83369  -0.73969  -0.65614  -0.54202  -0.49204
 Alpha  occ. eigenvalues --   -0.48270  -0.46982  -0.42535  -0.41561  -0.38312
 Alpha  occ. eigenvalues --   -0.37384  -0.36967
 Alpha virt. eigenvalues --    0.05720   0.06595   0.08073   0.08427   0.10691
 Alpha virt. eigenvalues --    0.11816   0.12527   0.13917   0.14492   0.15079
 Alpha virt. eigenvalues --    0.15765   0.16355   0.19185   0.19940   0.21452

 Mulliken charges:
               1
     1  C   -0.277580
     2  C   -0.027038
     3  H    0.043791
     4  H    0.040948
     5  H    0.172423
     6  C   -0.063922
     7  H    0.027525
     8  H    0.040281
     9  C   -0.136447
    10  H    0.014424
    11  H    0.034799
    12  H    0.052197
    13  H    0.032996
    14  H    0.045603
 Sum of Mulliken charges =   0.00000

 Dipole moment (field-independent basis, Debye):
    X=              0.0497    Y=             -0.0278    Z=             -0.0349  Tot=              0.0667
 Quadrupole moment (field-independent basis, Debye-Ang):
   XX=            -29.6827   YY=            -29.2851   ZZ=            -28.0545
   XY=             -0.0353   XZ=             -1.1830   YZ=              0.6628

 Normal termination of Gaussian 09 at Wed Aug 26 21:32:22 2020.
