 Gaussian 09, Revision D.01,
 Gaussian 09:  ES64L-G09RevD.01 24-Apr-2013

 --------------------
 #p B2PLYPD3/Def2QZVP
 --------------------

 ----------
 butane_opt
 ----------
 Symbolic Z-matrix:
 Charge =  0 Multiplicity = 1

                         Standard orientation:
 ---------------------------------------------------------------------
 Center     Atomic      Atomic             Coordinates (Angstroms)
 Number     Number       Type             X           Y           Z
 ---------------------------------------------------------------------
      1          6           0        1.940124    0.155194    0.062862
      2          6           0        0.495761   -0.576466    0.000647
      3          1           0        2.530644   -0.478299   -0.679184
      4          1           0        2.672017    1.196003    1.089026
      5          1           0        1.713236    0.371136   -0.555814
      6          6           0       -0.568655    0.486398   -0.089783
      7          1           0        0.268121   -0.993997    0.657798
      8          1           0        0.572483   -1.333915   -0.966434
      9          6           0       -1.827886   -0.111223    0.113812
     10          1           0       -0.734066    1.251794   -1.049773
     11          1           0       -0.377648    0.801441    0.698612
     12          1           0       -2.051465   -0.513024   -0.699522
     13          1           0       -2.979946    0.990209   -0.191922
     14          1           0       -1.849444   -1.014764    1.171988
 ---------------------------------------------------------------------

 SCF Done:  E(RB2PLYPD3) =  -157.408391731     A.U. after   12 cycles
 E2(B2PLYPD3) =    -0.2580249199D+00 E(B2PLYPD3) =    -0.15766641665100D+03

 The electronic state is 1-A.
 Alpha  occ. eigenvalues --  -10.64922 -10.61555 -10.61073 -10.59526  -0.97972
 Alpha  occ. eigenvalues --   -0.89694  -0.77778  -0.70146  -0.56216  -0.50061
 Alpha  occ. eigenvalues --   -0.48269  -0.45527  -0.41934  -0.40962  -0.39387
 Alpha  occ. eigenvalues --   -0.36480  -0.32818
 Alpha virt. eigenvalues --    0.01211   0.02473   0.05895   0.06349   0.09756
 Alpha virt. eigenvalues --    0.10294   0.11433   0.12264   0.13505   0.15185
 Alpha virt. eigenvalues --    0.15983   0.16456   0.17514   0.18177   0.19825

 Mulliken charges:
               1
     1  C   -0.715163
     2  C   -0.223135
     3  H    0.044279
     4  H    0.071470
     5  H    0.567601
     6  C   -0.168406
     7  H    0.239248
     8  H    0.015419
     9  C   -0.168596
    10  H    0.043197
    11  H    0.195381
    12  H    0.099855
    13  H   -0.037140
    14  H    0.035990
 Sum of Mulliken charges =   0.00000

 Dipole moment (field-independent basis, Debye):
    X=              0.3843    Y=             -0.2644    Z=             -0.5933  Tot=              0.7547
 Quadrupole moment (field-independent basis, Debye-Ang):
   XX=            -34.3438   YY=            -29.5151   ZZ=            -27.5219
   XY=              1.7388   XZ=              0.5344   YZ=              0.1729

 Normal termination of Gaussian 09 at Wed Aug 26 15:45:28 2020.
