 Gaussian 09, Revision D.01,
 Gaussian 09:  ES64L-G09RevD.01 24-Apr-2013

 --------------------
 #p B2PLYPD3/Def2QZVP
 --------------------

 ----------
 butane_opt
 ----------
 Symbolic Z-matrix:
 Charge =  0 Multiplicity = 1

                         Standard orientation:
 ---------------------------------------------------------------------
 Center     Atomic      Atomic             Coordinates (Angstroms)
 Number     Number       Type             X           Y           Z
 ---------------------------------------------------------------------
      1          6           0        1.788611    0.055446    0.161076
      2          6           0        0.588657   -0.427263   -0.261873
      3          1           0        2.603327   -0.875301    0.293199
      4          1           0        1.794465    0.695059    1.415681
      5          1           0        2.351372    0.571153   -0.538898
      6          6           0       -0.527376    0.592725   -0.249099
      7          1           0        0.402142   -1.152241    0.620496
      8          1           0        0.779560   -0.887485   -1.154714
      9          6           0       -1.917499   -0.201457    0.185237
     10          1           0       -0.627029    1.645669   -1.129867
     11          1           0        0.050934    1.058032    0.715526
     12          1           0       -2.419740   -0.953127   -0.983384
     13          1           0       -2.683347    0.497018    0.884594
     14          1           0       -1.846036   -0.715483    0.865320
 ---------------------------------------------------------------------

 SCF Done:  E(RB2PLYPD3) =  -157.831765770     A.U. after   11 cycles
 E2(B2PLYPD3) =    -0.2565635099D+00 E(B2PLYPD3) =    -0.15808832928032D+03

 The electronic state is 1-A.
 Alpha  occ. eigenvalues --  -10.65740 -10.63773 -10.63086 -10.60535  -0.94555
 Alpha  occ. eigenvalues --   -0.83341  -0.73094  -0.65133  -0.56738  -0.50863
 Alpha  occ. eigenvalues --   -0.47847  -0.43793  -0.40851  -0.39790  -0.36469
 Alpha  occ. eigenvalues --   -0.35805  -0.35093
 Alpha virt. eigenvalues --    0.04244   0.05101   0.06513   0.07359   0.09487
 Alpha virt. eigenvalues --    0.10325   0.10775   0.12189   0.13196   0.14920
 Alpha virt. eigenvalues --    0.15601   0.16979   0.18162   0.18830   0.19955

 Mulliken charges:
               1
     1  C   -0.152151
     2  C    0.008748
     3  H    0.023306
     4  H    0.010911
     5  H    0.057786
     6  C   -0.091787
     7  H    0.051348
     8  H    0.049215
     9  C   -0.258794
    10  H    0.041403
    11  H    0.029300
    12  H    0.027727
    13  H    0.025262
    14  H    0.177724
 Sum of Mulliken charges =   0.00000

 Dipole moment (field-independent basis, Debye):
    X=              0.5864    Y=             -0.3969    Z=              0.0595  Tot=              0.7106
 Quadrupole moment (field-independent basis, Debye-Ang):
   XX=            -31.9082   YY=            -30.3146   ZZ=            -28.3466
   XY=              0.0778   XZ=             -1.8497   YZ=             -0.3511

 Normal termination of Gaussian 09 at Wed Aug 26 23:21:20 2020.
