 Gaussian 09, Revision D.01,
 Gaussian 09:  ES64L-G09RevD.01 24-Apr-2013

 --------------------
 #p B2PLYPD3/Def2QZVP
 --------------------

 ----------
 butane_opt
 ----------
 Symbolic Z-matrix:
 Charge =  0 Multiplicity = 1

                         Standard orientation:
 ---------------------------------------------------------------------
 Center     Atomic      Atomic             Coordinates (Angstroms)
 Number     Number       Type             X           Y           Z
 ---------------------------------------------------------------------
      1          6           0       -1.895462    0.074809    0.030948
      2          6           0       -0.678444   -0.421332   -0.149680
      3          1           0       -2.707710   -0.825754    0.062047
      4          1           0       -2.011962    0.708812   -0.683371
      5          1           0       -1.778689    0.720617    1.021603
      6          6           0        0.501776    0.567344    0.026060
      7          1           0       -0.477415   -0.949811   -1.163075
      8          1           0       -0.560497   -1.276160    0.638856
      9          6           0        1.982548   -0.199481    0.054248
     10          1           0        0.135106    1.289928    1.235980
     11          1           0        0.495941    1.162194   -0.750238
     12          1           0        2.461057   -1.247849    1.153745
     13          1           0        2.986494    0.852919   -0.644226
     14          1           0        1.995166   -0.562938   -0.640776
 ---------------------------------------------------------------------

 SCF Done:  E(RB2PLYPD3) =  -157.718930210     A.U. after   12 cycles
 E2(B2PLYPD3) =    -0.2575110060D+00 E(B2PLYPD3) =    -0.15797644121642D+03

 The electronic state is 1-A.
 Alpha  occ. eigenvalues --  -10.66724 -10.65372 -10.61476 -10.59797  -0.94788
 Alpha  occ. eigenvalues --   -0.85643  -0.74352  -0.66094  -0.55581  -0.51859
 Alpha  occ. eigenvalues --   -0.49372  -0.45733  -0.39585  -0.39322  -0.37591
 Alpha  occ. eigenvalues --   -0.36570  -0.34135
 Alpha virt. eigenvalues --    0.00129   0.05125   0.05660   0.06428   0.08804
 Alpha virt. eigenvalues --    0.09557   0.11689   0.12287   0.13707   0.14943
 Alpha virt. eigenvalues --    0.15416   0.15544   0.17650   0.19007   0.19750

 Mulliken charges:
               1
     1  C   -0.163433
     2  C   -0.008015
     3  H    0.055392
     4  H    0.066688
     5  H    0.042519
     6  C   -0.053530
     7  H    0.013169
     8  H    0.022725
     9  C   -0.440424
    10  H   -0.012982
    11  H    0.101198
    12  H    0.060337
    13  H   -0.020881
    14  H    0.337239
 Sum of Mulliken charges =   0.00000

 Dipole moment (field-independent basis, Debye):
    X=             -0.7465    Y=             -0.5733    Z=             -0.8070  Tot=              1.2398
 Quadrupole moment (field-independent basis, Debye-Ang):
   XX=            -33.4729   YY=            -29.6568   ZZ=            -28.8467
   XY=             -1.1461   XZ=             -0.5537   YZ=             -1.2272

 Normal termination of Gaussian 09 at Wed Aug 26 11:54:50 2020.
