 Gaussian 09, Revision D.01,
 Gaussian 09:  ES64L-G09RevD.01 24-Apr-2013

 --------------------
 #p B2PLYPD3/Def2QZVP
 --------------------

 ----------
 butane_opt
 ----------
 Symbolic Z-matrix:
 Charge =  0 Multiplicity = 1

                         Standard orientation:
 ---------------------------------------------------------------------
 Center     Atomic      Atomic             Coordinates (Angstroms)
 Number     Number       Type             X           Y           Z
 ---------------------------------------------------------------------
      1          6           0       -1.920339   -0.156218   -0.071445
      2          6           0       -0.459440    0.560876    0.090839
      3          1           0       -2.732048    0.590912   -0.353080
      4          1           0       -2.222229   -0.997953    0.902052
      5          1           0       -2.044728   -0.638470   -0.846763
      6          6           0        0.536670   -0.416498    0.069851
      7          1           0       -0.402570    1.615926    1.161382
      8          1           0       -0.212263    0.914437   -0.589594
      9          6           0        1.886689    0.033499   -0.118257
     10          1           0        0.256656   -1.187318   -0.868560
     11          1           0        0.785140   -1.028023    1.099701
     12          1           0        1.891123    0.807221   -1.130398
     13          1           0        2.493328   -0.656937    0.263589
     14          1           0        1.926111    0.450247    0.535747
 ---------------------------------------------------------------------

 SCF Done:  E(RB2PLYPD3) =  -157.694932014     A.U. after   11 cycles
 E2(B2PLYPD3) =    -0.2519696657D+00 E(B2PLYPD3) =    -0.15794690167980D+03

 The electronic state is 1-A.
 Alpha  occ. eigenvalues --  -10.62389 -10.61835 -10.61679 -10.56718  -0.97627
 Alpha  occ. eigenvalues --   -0.87396  -0.77664  -0.66349  -0.55734  -0.52216
 Alpha  occ. eigenvalues --   -0.49236  -0.47811  -0.42187  -0.40497  -0.39679
 Alpha  occ. eigenvalues --   -0.36177  -0.34816
 Alpha virt. eigenvalues --    0.04478   0.05801   0.06393   0.07646   0.10438
 Alpha virt. eigenvalues --    0.11555   0.12032   0.13128   0.14172   0.15118
 Alpha virt. eigenvalues --    0.15447   0.16964   0.18510   0.19483   0.20280

 Mulliken charges:
               1
     1  C   -0.158943
     2  C   -0.294670
     3  H    0.029746
     4  H    0.040352
     5  H    0.087733
     6  C    0.003917
     7  H   -0.010624
     8  H    0.297033
     9  C   -0.405358
    10  H    0.022563
    11  H   -0.003226
    12  H    0.033890
    13  H    0.050071
    14  H    0.307514
 Sum of Mulliken charges =   0.00000

 Dipole moment (field-independent basis, Debye):
    X=              0.1953    Y=             -0.0662    Z=             -0.3663  Tot=              0.4204
 Quadrupole moment (field-independent basis, Debye-Ang):
   XX=            -29.8465   YY=            -29.8587   ZZ=            -28.3061
   XY=              0.0683   XZ=              2.5593   YZ=             -0.7248

 Normal termination of Gaussian 09 at Wed Aug 26 22:33:26 2020.
