 Gaussian 09, Revision D.01,
 Gaussian 09:  ES64L-G09RevD.01 24-Apr-2013

 --------------------
 #p B2PLYPD3/Def2QZVP
 --------------------

 ----------
 butane_opt
 ----------
 Symbolic Z-matrix:
 Charge =  0 Multiplicity = 1

                         Standard orientation:
 ---------------------------------------------------------------------
 Center     Atomic      Atomic             Coordinates (Angstroms)
 Number     Number       Type             X           Y           Z
 ---------------------------------------------------------------------
      1          6           0       -1.955649   -0.150713    0.118792
      2          6           0       -0.607345    0.592442   -0.087704
      3          1           0       -2.712162    0.499380   -0.601187
      4          1           0       -2.317812   -0.964556    1.188668
      5          1           0       -1.963285   -0.289235   -0.470376
      6          6           0        0.592783   -0.585929   -0.063400
      7          1           0       -0.655572    1.041285    0.671585
      8          1           0       -0.530722    1.312942   -0.992440
      9          6           0        2.001504    0.122721    0.116201
     10          1           0        0.479449   -1.232215   -1.023866
     11          1           0        0.163431   -1.014666    0.702589
     12          1           0        1.855712    0.275723   -0.586271
     13          1           0        2.858147   -0.637208   -0.533381
     14          1           0        2.635059    1.137423    1.141338
 ---------------------------------------------------------------------

 SCF Done:  E(RB2PLYPD3) =  -157.128996065     A.U. after   12 cycles
 E2(B2PLYPD3) =    -0.2589088630D+00 E(B2PLYPD3) =    -0.15738790492823D+03

 The electronic state is 1-A.
 Alpha  occ. eigenvalues --  -10.62642 -10.62442 -10.60568 -10.60125  -0.95544
 Alpha  occ. eigenvalues --   -0.90323  -0.78310  -0.70185  -0.54393  -0.48902
 Alpha  occ. eigenvalues --   -0.45334  -0.45039  -0.43718  -0.40282  -0.37800
 Alpha  occ. eigenvalues --   -0.36143  -0.31999
 Alpha virt. eigenvalues --    0.02379   0.04511   0.05720   0.07121   0.09468
 Alpha virt. eigenvalues --    0.10581   0.12237   0.12517   0.14384   0.15295
 Alpha virt. eigenvalues --    0.16377   0.16837   0.17618   0.18560   0.18993

 Mulliken charges:
               1
     1  C   -0.935676
     2  C   -0.089411
     3  H    0.025734
     4  H    0.105392
     5  H    0.731846
     6  C   -0.085419
     7  H    0.142109
     8  H    0.029100
     9  C   -0.643732
    10  H    0.039962
    11  H    0.079637
    12  H    0.506571
    13  H    0.007016
    14  H    0.086869
 Sum of Mulliken charges =   0.00000

 Dipole moment (field-independent basis, Debye):
    X=             -0.3803    Y=             -0.0034    Z=             -0.5244  Tot=              0.6478
 Quadrupole moment (field-independent basis, Debye-Ang):
   XX=            -31.8087   YY=            -29.4838   ZZ=            -26.5686
   XY=              2.4725   XZ=             -0.0390   YZ=              0.2596

 Normal termination of Gaussian 09 at Wed Aug 26 22:21:36 2020.
