 Gaussian 09, Revision D.01,
 Gaussian 09:  ES64L-G09RevD.01 24-Apr-2013

 --------------------
 #p B2PLYPD3/Def2QZVP
 --------------------

 ----------
 butane_opt
 ----------
 Symbolic Z-matrix:
 Charge =  0 Multiplicity = 1

                         Standard orientation:
 ---------------------------------------------------------------------
 Center     Atomic      Atomic             Coordinates (Angstroms)
 Number     Number       Type             X           Y           Z
 ---------------------------------------------------------------------
      1          6           0       -2.061931    0.145175    0.051175
      2          6           0       -0.491555   -0.605148   -0.067186
      3          1           0       -2.623663   -0.451714   -0.564302
      4          1           0       -2.041202    0.176838   -0.584562
      5          1           0       -2.614877    1.201790    1.178776
      6          6           0        0.649672    0.476226   -0.082146
      7          1           0       -0.501810   -1.057383   -0.660575
      8          1           0       -0.273850   -1.353019    0.905946
      9          6           0        1.902471   -0.047685    0.110973
     10          1           0        0.458599    0.937293    0.724899
     11          1           0        0.484911    1.301658   -1.163289
     12          1           0        2.171143   -0.664741    0.896000
     13          1           0        2.655146    0.758498   -0.118056
     14          1           0        2.293661   -0.660628   -0.691726
 ---------------------------------------------------------------------

 SCF Done:  E(RB2PLYPD3) =  -157.299945665     A.U. after   12 cycles
 E2(B2PLYPD3) =    -0.2549393526D+00 E(B2PLYPD3) =    -0.15755488501743D+03

 The electronic state is 1-A.
 Alpha  occ. eigenvalues --  -10.61048 -10.60900 -10.60777 -10.58545  -0.97633
 Alpha  occ. eigenvalues --   -0.91926  -0.80489  -0.70352  -0.54705  -0.49796
 Alpha  occ. eigenvalues --   -0.49333  -0.47100  -0.41928  -0.39331  -0.37105
 Alpha  occ. eigenvalues --   -0.35516  -0.33567
 Alpha virt. eigenvalues --    0.01643   0.05604   0.06664   0.07153   0.10067
 Alpha virt. eigenvalues --    0.10939   0.12296   0.12942   0.14705   0.15476
 Alpha virt. eigenvalues --    0.16699   0.17372   0.18559   0.18652   0.20242

 Mulliken charges:
               1
     1  C   -0.837809
     2  C   -0.404256
     3  H    0.019544
     4  H    0.705400
     5  H    0.091168
     6  C   -0.059122
     7  H    0.361168
     8  H    0.024969
     9  C   -0.110890
    10  H    0.113085
    11  H   -0.000634
    12  H    0.053851
    13  H    0.034744
    14  H    0.008781
 Sum of Mulliken charges =   0.00000

 Dipole moment (field-independent basis, Debye):
    X=              0.1765    Y=             -0.0345    Z=             -0.5652  Tot=              0.5932
 Quadrupole moment (field-independent basis, Debye-Ang):
   XX=            -29.1944   YY=            -29.3120   ZZ=            -27.1485
   XY=             -1.3687   XZ=              1.4716   YZ=              1.4407

 Normal termination of Gaussian 09 at Wed Aug 26 22:22:34 2020.
