 Gaussian 09, Revision D.01,
 Gaussian 09:  ES64L-G09RevD.01 24-Apr-2013

 --------------------
 #p B2PLYPD3/Def2QZVP
 --------------------

 ----------
 butane_opt
 ----------
 Symbolic Z-matrix:
 Charge =  0 Multiplicity = 1

                         Standard orientation:
 ---------------------------------------------------------------------
 Center     Atomic      Atomic             Coordinates (Angstroms)
 Number     Number       Type             X           Y           Z
 ---------------------------------------------------------------------
      1          6           0       -1.961894   -0.168754   -0.058936
      2          6           0       -0.506517    0.523568    0.096205
      3          1           0       -2.835302    0.575323   -0.364418
      4          1           0       -2.343127   -0.832597    0.785709
      5          1           0       -1.864336   -0.653360   -0.839136
      6          6           0        0.646714   -0.419696    0.017265
      7          1           0       -0.267286    1.292597    1.196710
      8          1           0       -0.295758    0.896552   -0.463524
      9          6           0        1.861756    0.045818   -0.098909
     10          1           0        0.455888   -0.875721   -0.589302
     11          1           0        0.633475   -1.228815    0.920066
     12          1           0        1.538643    1.041263   -1.072392
     13          1           0        2.636692   -0.780400   -0.105226
     14          1           0        2.100759    0.679539    0.797768
 ---------------------------------------------------------------------

 SCF Done:  E(RB2PLYPD3) =  -157.627987347     A.U. after   11 cycles
 E2(B2PLYPD3) =    -0.2502486016D+00 E(B2PLYPD3) =    -0.15787823594850D+03

 The electronic state is 1-A.
 Alpha  occ. eigenvalues --  -10.62753 -10.60996 -10.59931 -10.56587  -0.98494
 Alpha  occ. eigenvalues --   -0.86101  -0.77020  -0.70673  -0.56186  -0.52702
 Alpha  occ. eigenvalues --   -0.49397  -0.48032  -0.43738  -0.43295  -0.39083
 Alpha  occ. eigenvalues --   -0.36632  -0.33688
 Alpha virt. eigenvalues --    0.04697   0.06166   0.07093   0.08272   0.10690
 Alpha virt. eigenvalues --    0.11610   0.12087   0.13040   0.14210   0.15141
 Alpha virt. eigenvalues --    0.15516   0.16596   0.18541   0.19508   0.21212

 Mulliken charges:
               1
     1  C   -0.167077
     2  C   -0.538348
     3  H    0.034264
     4  H    0.057042
     5  H    0.099765
     6  C   -0.214252
     7  H    0.008097
     8  H    0.493828
     9  C   -0.120193
    10  H    0.263445
    11  H   -0.008399
    12  H   -0.027828
    13  H    0.068706
    14  H    0.050948
 Sum of Mulliken charges =   0.00000

 Dipole moment (field-independent basis, Debye):
    X=             -0.1821    Y=             -0.7451    Z=             -0.3047  Tot=              0.8253
 Quadrupole moment (field-independent basis, Debye-Ang):
   XX=            -29.1611   YY=            -29.4314   ZZ=            -28.9203
   XY=             -0.8405   XZ=              1.6479   YZ=              0.0348

 Normal termination of Gaussian 09 at Wed Aug 26 22:53:29 2020.
