 Gaussian 09, Revision D.01,
 Gaussian 09:  ES64L-G09RevD.01 24-Apr-2013

 --------------------
 #p B2PLYPD3/Def2QZVP
 --------------------

 ----------
 butane_opt
 ----------
 Symbolic Z-matrix:
 Charge =  0 Multiplicity = 1

                         Standard orientation:
 ---------------------------------------------------------------------
 Center     Atomic      Atomic             Coordinates (Angstroms)
 Number     Number       Type             X           Y           Z
 ---------------------------------------------------------------------
      1          6           0       -1.895521   -0.245725   -0.215342
      2          6           0       -0.531326    0.570088    0.113604
      3          1           0       -2.587633    0.481323   -0.391436
      4          1           0       -2.245334   -0.574435    0.848702
      5          1           0       -2.040553   -0.940254   -0.824495
      6          6           0        0.511337   -0.343817    0.339239
      7          1           0       -0.673889    1.581063    0.958295
      8          1           0       -0.061213    0.983436   -0.992931
      9          6           0        1.911841    0.061898   -0.175422
     10          1           0        0.517055   -1.157856   -0.345532
     11          1           0        0.542004   -0.890185    1.413569
     12          1           0        1.578928    0.431194   -1.166196
     13          1           0        2.892729   -0.901351   -0.421514
     14          1           0        2.099921    0.732394    0.549067
 ---------------------------------------------------------------------

 SCF Done:  E(RB2PLYPD3) =  -157.943966887     A.U. after   11 cycles
 E2(B2PLYPD3) =    -0.2535603483D+00 E(B2PLYPD3) =    -0.15819752723500D+03

 The electronic state is 1-A.
 Alpha  occ. eigenvalues --  -10.65401 -10.62125 -10.60602 -10.59264  -0.93080
 Alpha  occ. eigenvalues --   -0.83427  -0.74009  -0.64120  -0.55597  -0.52150
 Alpha  occ. eigenvalues --   -0.47712  -0.45553  -0.44344  -0.41064  -0.38115
 Alpha  occ. eigenvalues --   -0.35362  -0.33416
 Alpha virt. eigenvalues --    0.04973   0.06185   0.07325   0.07570   0.09777
 Alpha virt. eigenvalues --    0.11754   0.12479   0.13015   0.14274   0.15229
 Alpha virt. eigenvalues --    0.15636   0.16217   0.18807   0.19819   0.20572

 Mulliken charges:
               1
     1  C   -0.136150
     2  C   -0.068615
     3  H    0.045683
     4  H    0.024182
     5  H    0.072137
     6  C   -0.049058
     7  H    0.039388
     8  H    0.010238
     9  C   -0.170407
    10  H    0.055319
    11  H    0.014106
    12  H    0.056701
    13  H    0.025431
    14  H    0.081046
 Sum of Mulliken charges =   0.00000

 Dipole moment (field-independent basis, Debye):
    X=             -0.3806    Y=             -0.1059    Z=             -0.1428  Tot=              0.4201
 Quadrupole moment (field-independent basis, Debye-Ang):
   XX=            -30.6443   YY=            -29.7014   ZZ=            -28.5937
   XY=             -0.4365   XZ=              0.1402   YZ=              1.3545

 Normal termination of Gaussian 09 at Wed Aug 26 11:23:19 2020.
