 Gaussian 09, Revision D.01,
 Gaussian 09:  ES64L-G09RevD.01 24-Apr-2013

 --------------------
 #p B2PLYPD3/Def2QZVP
 --------------------

 ----------
 butane_opt
 ----------
 Symbolic Z-matrix:
 Charge =  0 Multiplicity = 1

                         Standard orientation:
 ---------------------------------------------------------------------
 Center     Atomic      Atomic             Coordinates (Angstroms)
 Number     Number       Type             X           Y           Z
 ---------------------------------------------------------------------
      1          6           0       -1.943266   -0.188170   -0.087367
      2          6           0       -0.530558    0.613544    0.028805
      3          1           0       -2.638967    0.211280   -0.214589
      4          1           0       -2.283723   -0.449817    0.701649
      5          1           0       -1.942881   -1.161418   -1.008532
      6          6           0        0.548339   -0.432780    0.327116
      7          1           0       -0.397062    1.543918    0.978593
      8          1           0       -0.434188    1.191870   -1.053767
      9          6           0        1.905854    0.081336   -0.156400
     10          1           0        0.591081   -1.131574   -0.400642
     11          1           0        0.600921   -0.927795    1.318693
     12          1           0        1.570148    0.415531   -1.040147
     13          1           0        2.772606   -0.932962   -0.474804
     14          1           0        2.279848    0.797387    0.520616
 ---------------------------------------------------------------------

 SCF Done:  E(RB2PLYPD3) =  -157.853802283     A.U. after   11 cycles
 E2(B2PLYPD3) =    -0.2508469984D+00 E(B2PLYPD3) =    -0.15810464928138D+03

 The electronic state is 1-A.
 Alpha  occ. eigenvalues --  -10.66119 -10.60865 -10.59820 -10.57926  -0.91823
 Alpha  occ. eigenvalues --   -0.86779  -0.74215  -0.66152  -0.55405  -0.49575
 Alpha  occ. eigenvalues --   -0.49056  -0.45825  -0.42545  -0.39871  -0.39029
 Alpha  occ. eigenvalues --   -0.36692  -0.35714
 Alpha virt. eigenvalues --    0.05166   0.05912   0.07092   0.07998   0.10370
 Alpha virt. eigenvalues --    0.11490   0.12065   0.13890   0.14633   0.15489
 Alpha virt. eigenvalues --    0.15897   0.16856   0.18800   0.19082   0.20930

 Mulliken charges:
               1
     1  C   -0.260560
     2  C   -0.073512
     3  H    0.171636
     4  H    0.058814
     5  H    0.019921
     6  C   -0.066248
     7  H    0.017078
     8  H    0.033922
     9  C   -0.175827
    10  H    0.075378
    11  H    0.045880
    12  H    0.085099
    13  H    0.006996
    14  H    0.061423
 Sum of Mulliken charges =   0.00000

 Dipole moment (field-independent basis, Debye):
    X=             -0.6043    Y=              0.0823    Z=              0.0917  Tot=              0.6168
 Quadrupole moment (field-independent basis, Debye-Ang):
   XX=            -29.7378   YY=            -29.6329   ZZ=            -28.1333
   XY=             -0.3371   XZ=             -0.0949   YZ=              0.4224

 Normal termination of Gaussian 09 at Wed Aug 26 18:56:36 2020.
