 Gaussian 09, Revision D.01,
 Gaussian 09:  ES64L-G09RevD.01 24-Apr-2013

 --------------------
 #p B2PLYPD3/Def2QZVP
 --------------------

 ----------
 butane_opt
 ----------
 Symbolic Z-matrix:
 Charge =  0 Multiplicity = 1

                         Standard orientation:
 ---------------------------------------------------------------------
 Center     Atomic      Atomic             Coordinates (Angstroms)
 Number     Number       Type             X           Y           Z
 ---------------------------------------------------------------------
      1          6           0       -1.967818    0.127951   -0.070797
      2          6           0       -0.525093   -0.517916    0.018799
      3          1           0       -2.713018   -0.629505    0.284884
      4          1           0       -2.134741    1.175393   -1.158583
      5          1           0       -2.107218    0.453491    0.555463
      6          6           0        0.556486    0.474054    0.139149
      7          1           0       -0.388474   -1.092228   -0.853065
      8          1           0       -0.380316   -1.379876    0.905942
      9          6           0        1.962403   -0.113835   -0.104194
     10          1           0        0.405733    1.327161    1.290465
     11          1           0        0.573123    0.961356   -0.508574
     12          1           0        1.977741   -0.703009    0.715266
     13          1           0        2.777093    0.662601   -0.112535
     14          1           0        1.834209   -0.596914   -1.017006
 ---------------------------------------------------------------------

 SCF Done:  E(RB2PLYPD3) =  -157.685843763     A.U. after   11 cycles
 E2(B2PLYPD3) =    -0.2507151889D+00 E(B2PLYPD3) =    -0.15793655895217D+03

 The electronic state is 1-A.
 Alpha  occ. eigenvalues --  -10.62514 -10.60701 -10.59921 -10.59161  -0.93880
 Alpha  occ. eigenvalues --   -0.87179  -0.76355  -0.69214  -0.55502  -0.50479
 Alpha  occ. eigenvalues --   -0.48450  -0.47059  -0.43396  -0.40112  -0.38989
 Alpha  occ. eigenvalues --   -0.36424  -0.36018
 Alpha virt. eigenvalues --    0.03886   0.05652   0.07054   0.07489   0.10481
 Alpha virt. eigenvalues --    0.11524   0.12201   0.13035   0.14578   0.15402
 Alpha virt. eigenvalues --    0.15629   0.16613   0.18389   0.19463   0.20666

 Mulliken charges:
               1
     1  C   -0.526526
     2  C    0.033926
     3  H    0.047898
     4  H    0.034833
     5  H    0.390834
     6  C   -0.277139
     7  H    0.047063
     8  H   -0.003512
     9  C   -0.158643
    10  H   -0.018148
    11  H    0.246678
    12  H    0.071786
    13  H    0.047135
    14  H    0.063816
 Sum of Mulliken charges =   0.00000

 Dipole moment (field-independent basis, Debye):
    X=              0.1005    Y=             -0.0961    Z=             -0.0936  Tot=              0.1677
 Quadrupole moment (field-independent basis, Debye-Ang):
   XX=            -30.0625   YY=            -29.2758   ZZ=            -28.3910
   XY=              0.4590   XZ=             -1.8849   YZ=             -0.8706

 Normal termination of Gaussian 09 at Wed Aug 26 12:46:33 2020.
