 Gaussian 09, Revision D.01,
 Gaussian 09:  ES64L-G09RevD.01 24-Apr-2013

 --------------------
 #p B2PLYPD3/Def2QZVP
 --------------------

 ----------
 butane_opt
 ----------
 Symbolic Z-matrix:
 Charge =  0 Multiplicity = 1

                         Standard orientation:
 ---------------------------------------------------------------------
 Center     Atomic      Atomic             Coordinates (Angstroms)
 Number     Number       Type             X           Y           Z
 ---------------------------------------------------------------------
      1          6           0        1.941895   -0.111853   -0.164814
      2          6           0        0.624719    0.473769    0.125594
      3          1           0        2.849578    0.869822   -0.094069
      4          1           0        2.083037   -0.861535   -1.036032
      5          1           0        2.248570   -0.717184    0.722197
      6          6           0       -0.600145   -0.608854    0.209269
      7          1           0        0.665262    1.229995   -0.702679
      8          1           0        0.607751    1.166941    1.110052
      9          6           0       -2.048310    0.176079   -0.096101
     10          1           0       -0.334493   -1.189624    1.171676
     11          1           0       -0.416573   -1.094338   -0.616038
     12          1           0       -2.730695    0.866435    0.783682
     13          1           0       -2.752803   -0.663553   -0.792044
     14          1           0       -1.728588    0.818195   -0.990428
 ---------------------------------------------------------------------

 SCF Done:  E(RB2PLYPD3) =  -157.982404343     A.U. after   11 cycles
 E2(B2PLYPD3) =    -0.2534392319D+00 E(B2PLYPD3) =    -0.15823584357461D+03

 The electronic state is 1-A.
 Alpha  occ. eigenvalues --  -10.66224 -10.63170 -10.62891 -10.62317  -0.89733
 Alpha  occ. eigenvalues --   -0.81212  -0.70173  -0.65629  -0.53422  -0.47084
 Alpha  occ. eigenvalues --   -0.46627  -0.45731  -0.41415  -0.40739  -0.39375
 Alpha  occ. eigenvalues --   -0.35937  -0.34256
 Alpha virt. eigenvalues --    0.04871   0.05343   0.07929   0.08204   0.09992
 Alpha virt. eigenvalues --    0.10424   0.11867   0.12482   0.13773   0.15145
 Alpha virt. eigenvalues --    0.15443   0.15866   0.18218   0.18384   0.20829

 Mulliken charges:
               1
     1  C   -0.153190
     2  C   -0.015310
     3  H    0.028358
     4  H    0.050858
     5  H    0.031565
     6  C   -0.108808
     7  H    0.024652
     8  H    0.023584
     9  C   -0.199346
    10  H    0.053495
    11  H    0.096784
    12  H    0.067600
    13  H    0.030885
    14  H    0.068872
 Sum of Mulliken charges =   0.00000

 Dipole moment (field-independent basis, Debye):
    X=              0.0807    Y=             -0.1300    Z=             -0.1501  Tot=              0.2144
 Quadrupole moment (field-independent basis, Debye-Ang):
   XX=            -31.9152   YY=            -29.5293   ZZ=            -28.6408
   XY=             -0.6422   XZ=              0.0412   YZ=              0.6396

 Normal termination of Gaussian 09 at Wed Aug 26 12:22:41 2020.
