 Gaussian 09, Revision D.01,
 Gaussian 09:  ES64L-G09RevD.01 24-Apr-2013

 --------------------
 #p B2PLYPD3/Def2QZVP
 --------------------

 ----------
 butane_opt
 ----------
 Symbolic Z-matrix:
 Charge =  0 Multiplicity = 1

                         Standard orientation:
 ---------------------------------------------------------------------
 Center     Atomic      Atomic             Coordinates (Angstroms)
 Number     Number       Type             X           Y           Z
 ---------------------------------------------------------------------
      1          6           0        1.931149    0.063177   -0.164251
      2          6           0        0.632877   -0.480374    0.194782
      3          1           0        2.521748   -0.468090   -0.598144
      4          1           0        2.524861    1.041965    0.894629
      5          1           0        1.976675    0.224054   -0.692708
      6          6           0       -0.586927    0.581645    0.024485
      7          1           0        0.645819   -1.436866    1.318518
      8          1           0        0.315652   -0.965278   -0.549233
      9          6           0       -2.019495   -0.122996   -0.137715
     10          1           0       -0.383519    1.123602   -0.936420
     11          1           0       -0.518457    1.387162    1.011070
     12          1           0       -2.042697   -0.982995   -0.990607
     13          1           0       -2.599747    0.592173    0.157905
     14          1           0       -2.185961   -0.764444    0.881178
 ---------------------------------------------------------------------

 SCF Done:  E(RB2PLYPD3) =  -157.194125237     A.U. after   12 cycles
 E2(B2PLYPD3) =    -0.2548487481D+00 E(B2PLYPD3) =    -0.15744897398548D+03

 The electronic state is 1-A.
 Alpha  occ. eigenvalues --  -10.64478 -10.62941 -10.62217 -10.60055  -0.99582
 Alpha  occ. eigenvalues --   -0.87285  -0.78337  -0.66228  -0.55653  -0.50472
 Alpha  occ. eigenvalues --   -0.48686  -0.47503  -0.40256  -0.38784  -0.38326
 Alpha  occ. eigenvalues --   -0.35851  -0.34572
 Alpha virt. eigenvalues --    0.03857   0.05793   0.06957   0.07270   0.08746
 Alpha virt. eigenvalues --    0.10275   0.11922   0.12728   0.14297   0.14633
 Alpha virt. eigenvalues --    0.15868   0.16138   0.18972   0.19239   0.20011

 Mulliken charges:
               1
     1  C   -0.746286
     2  C   -0.051094
     3  H   -0.005096
     4  H    0.017914
     5  H    0.666800
     6  C   -0.045661
     7  H    0.008141
     8  H    0.092741
     9  C   -0.174937
    10  H    0.051063
    11  H    0.015066
    12  H    0.065240
    13  H    0.085707
    14  H    0.020401
 Sum of Mulliken charges =   0.00000

 Dipole moment (field-independent basis, Debye):
    X=             -0.1674    Y=             -0.1534    Z=             -1.1250  Tot=              1.1477
 Quadrupole moment (field-independent basis, Debye-Ang):
   XX=            -30.1049   YY=            -29.7768   ZZ=            -27.8606
   XY=             -0.4156   XZ=             -2.1015   YZ=              1.2684

 Normal termination of Gaussian 09 at Wed Aug 26 19:39:39 2020.
