 Gaussian 09, Revision D.01,
 Gaussian 09:  ES64L-G09RevD.01 24-Apr-2013

 --------------------
 #p B2PLYPD3/Def2QZVP
 --------------------

 ----------
 butane_opt
 ----------
 Symbolic Z-matrix:
 Charge =  0 Multiplicity = 1

                         Standard orientation:
 ---------------------------------------------------------------------
 Center     Atomic      Atomic             Coordinates (Angstroms)
 Number     Number       Type             X           Y           Z
 ---------------------------------------------------------------------
      1          6           0       -2.039731   -0.113594   -0.101850
      2          6           0       -0.559034    0.595290    0.091945
      3          1           0       -2.647842    0.419115   -0.726897
      4          1           0       -2.388551   -0.762799    0.818996
      5          1           0       -2.049189   -0.568467   -0.776032
      6          6           0        0.597427   -0.558400    0.176839
      7          1           0       -0.364445    1.572569    1.131985
      8          1           0       -0.185363    0.851398   -0.540784
      9          6           0        1.981789    0.090307   -0.166823
     10          1           0        0.621132   -1.231646   -0.425093
     11          1           0        0.408878   -1.272954    1.213408
     12          1           0        1.723319    0.605488   -1.025869
     13          1           0        2.588399   -0.601971   -0.527685
     14          1           0        2.410957    0.907652    0.857303
 ---------------------------------------------------------------------

 SCF Done:  E(RB2PLYPD3) =  -157.703406263     A.U. after   11 cycles
 E2(B2PLYPD3) =    -0.2511602463D+00 E(B2PLYPD3) =    -0.15795456650948D+03

 The electronic state is 1-A.
 Alpha  occ. eigenvalues --  -10.62137 -10.61585 -10.61026 -10.58575  -0.92378
 Alpha  occ. eigenvalues --   -0.86598  -0.78248  -0.69857  -0.54060  -0.50788
 Alpha  occ. eigenvalues --   -0.48411  -0.44882  -0.44014  -0.40140  -0.39129
 Alpha  occ. eigenvalues --   -0.37411  -0.33979
 Alpha virt. eigenvalues --    0.04560   0.06389   0.07532   0.08396   0.10601
 Alpha virt. eigenvalues --    0.11783   0.12266   0.12982   0.14271   0.15766
 Alpha virt. eigenvalues --    0.15963   0.17398   0.17738   0.18700   0.19907

 Mulliken charges:
               1
     1  C   -0.287115
     2  C   -0.398756
     3  H    0.030681
     4  H    0.073546
     5  H    0.206385
     6  C   -0.084341
     7  H    0.021640
     8  H    0.367537
     9  C   -0.183643
    10  H    0.094228
    11  H   -0.001651
    12  H    0.064312
    13  H    0.060310
    14  H    0.036868
 Sum of Mulliken charges =   0.00000

 Dipole moment (field-independent basis, Debye):
    X=             -0.1608    Y=             -0.6146    Z=             -1.2597  Tot=              1.4109
 Quadrupole moment (field-independent basis, Debye-Ang):
   XX=            -29.8166   YY=            -29.3341   ZZ=            -27.6224
   XY=              0.5767   XZ=              0.3057   YZ=              0.3558

 Normal termination of Gaussian 09 at Wed Aug 26 22:57:26 2020.
