 Gaussian 09, Revision D.01,
 Gaussian 09:  ES64L-G09RevD.01 24-Apr-2013

 --------------------
 #p B2PLYPD3/Def2QZVP
 --------------------

 ----------
 butane_opt
 ----------
 Symbolic Z-matrix:
 Charge =  0 Multiplicity = 1

                         Standard orientation:
 ---------------------------------------------------------------------
 Center     Atomic      Atomic             Coordinates (Angstroms)
 Number     Number       Type             X           Y           Z
 ---------------------------------------------------------------------
      1          6           0       -1.834717   -0.089891    0.155650
      2          6           0       -0.604549    0.387472   -0.267792
      3          1           0       -2.605300    0.748383   -0.056182
      4          1           0       -1.852000   -0.518019    1.034919
      5          1           0       -1.988957   -0.561364   -0.464832
      6          6           0        0.485184   -0.527727   -0.003585
      7          1           0       -0.456251    0.970871    0.413730
      8          1           0       -0.750904    0.984065   -1.250117
      9          6           0        1.982859    0.161577    0.081617
     10          1           0        0.585375   -1.208797   -0.611499
     11          1           0        0.051691   -1.087452    0.929296
     12          1           0        2.065338    0.126765   -0.554883
     13          1           0        2.703860   -0.631682   -0.400580
     14          1           0        2.074488    1.588648    1.164804
 ---------------------------------------------------------------------

 SCF Done:  E(RB2PLYPD3) =  -157.336262312     A.U. after   13 cycles
 E2(B2PLYPD3) =    -0.2550546274D+00 E(B2PLYPD3) =    -0.15759131693903D+03

 The electronic state is 1-A.
 Alpha  occ. eigenvalues --  -10.62848 -10.60400 -10.56659 -10.54394  -0.97613
 Alpha  occ. eigenvalues --   -0.92812  -0.79836  -0.70338  -0.59018  -0.51445
 Alpha  occ. eigenvalues --   -0.49936  -0.47248  -0.41476  -0.39489  -0.38300
 Alpha  occ. eigenvalues --   -0.35986  -0.34610
 Alpha virt. eigenvalues --   -0.01432   0.05818   0.06571   0.07844   0.10666
 Alpha virt. eigenvalues --    0.11194   0.12429   0.13176   0.14829   0.15546
 Alpha virt. eigenvalues --    0.16245   0.17632   0.18306   0.19411   0.21365

 Mulliken charges:
               1
     1  C   -0.338000
     2  C   -0.079057
     3  H    0.027838
     4  H    0.050619
     5  H    0.227616
     6  C   -0.057938
     7  H    0.111139
     8  H    0.017453
     9  C   -0.810618
    10  H    0.063210
    11  H    0.013429
    12  H    0.684039
    13  H    0.030868
    14  H    0.059402
 Sum of Mulliken charges =   0.00000

 Dipole moment (field-independent basis, Debye):
    X=             -0.3339    Y=             -0.1417    Z=             -0.8003  Tot=              0.8786
 Quadrupole moment (field-independent basis, Debye-Ang):
   XX=            -30.9320   YY=            -28.3559   ZZ=            -27.4553
   XY=             -0.0757   XZ=             -2.0698   YZ=              1.5214

 Normal termination of Gaussian 09 at Wed Aug 26 13:47:47 2020.
