 Gaussian 09, Revision D.01,
 Gaussian 09:  ES64L-G09RevD.01 24-Apr-2013

 --------------------
 #p B2PLYPD3/Def2QZVP
 --------------------

 ----------
 butane_opt
 ----------
 Symbolic Z-matrix:
 Charge =  0 Multiplicity = 1

                         Standard orientation:
 ---------------------------------------------------------------------
 Center     Atomic      Atomic             Coordinates (Angstroms)
 Number     Number       Type             X           Y           Z
 ---------------------------------------------------------------------
      1          6           0        1.804755    0.008970    0.130329
      2          6           0        0.613444    0.360281   -0.335730
      3          1           0        2.569528    0.781959   -0.055505
      4          1           0        1.850954   -0.635728   -0.540719
      5          1           0        2.057065   -0.537101    1.495847
      6          6           0       -0.424776   -0.579124   -0.012883
      7          1           0        0.442210    0.842471   -1.304886
      8          1           0        0.456034    1.053263    0.439269
      9          6           0       -1.983748    0.147370    0.099858
     10          1           0       -0.110347   -1.019210    1.029516
     11          1           0       -0.489981   -1.341459   -0.673615
     12          1           0       -2.271026    1.664345    1.071635
     13          1           0       -2.658690   -0.607989   -0.279272
     14          1           0       -1.903801    0.174462   -0.471711
 ---------------------------------------------------------------------

 SCF Done:  E(RB2PLYPD3) =  -157.210926490     A.U. after   13 cycles
 E2(B2PLYPD3) =    -0.2589696683D+00 E(B2PLYPD3) =    -0.15746989615781D+03

 The electronic state is 1-A.
 Alpha  occ. eigenvalues --  -10.62522 -10.61898 -10.60420 -10.58511  -0.98350
 Alpha  occ. eigenvalues --   -0.92384  -0.77516  -0.66931  -0.57771  -0.53547
 Alpha  occ. eigenvalues --   -0.48502  -0.45559  -0.42124  -0.38777  -0.37242
 Alpha  occ. eigenvalues --   -0.36098  -0.32164
 Alpha virt. eigenvalues --   -0.01174   0.04534   0.06205   0.07367   0.09324
 Alpha virt. eigenvalues --    0.10450   0.11639   0.12788   0.13753   0.15565
 Alpha virt. eigenvalues --    0.16235   0.16526   0.17640   0.19391   0.21044

 Mulliken charges:
               1
     1  C   -0.181001
     2  C   -0.065903
     3  H    0.053030
     4  H    0.083766
     5  H    0.020507
     6  C   -0.026249
     7  H    0.045907
     8  H    0.043692
     9  C   -0.927451
    10  H    0.039698
    11  H    0.036121
    12  H    0.049707
    13  H    0.061928
    14  H    0.766248
 Sum of Mulliken charges =   0.00000

 Dipole moment (field-independent basis, Debye):
    X=              0.3322    Y=              0.1194    Z=             -1.1251  Tot=              1.1792
 Quadrupole moment (field-independent basis, Debye-Ang):
   XX=            -31.7221   YY=            -28.8315   ZZ=            -27.7663
   XY=              0.7748   XZ=              1.4223   YZ=              1.1883

 Normal termination of Gaussian 09 at Wed Aug 26 20:50:58 2020.
