 Gaussian 09, Revision D.01,
 Gaussian 09:  ES64L-G09RevD.01 24-Apr-2013

 --------------------
 #p B2PLYPD3/Def2QZVP
 --------------------

 ----------
 butane_opt
 ----------
 Symbolic Z-matrix:
 Charge =  0 Multiplicity = 1

                         Standard orientation:
 ---------------------------------------------------------------------
 Center     Atomic      Atomic             Coordinates (Angstroms)
 Number     Number       Type             X           Y           Z
 ---------------------------------------------------------------------
      1          6           0       -1.893380   -0.106525    0.077573
      2          6           0       -0.581376    0.468128   -0.125011
      3          1           0       -2.692007    0.870575    0.133835
      4          1           0       -1.762412   -0.700668    1.077601
      5          1           0       -2.051525   -0.662688   -0.718557
      6          6           0        0.511490   -0.502436   -0.046540
      7          1           0       -0.265678    0.874880    0.590804
      8          1           0       -0.696804    1.313605   -1.046069
      9          6           0        2.022411    0.111096    0.011906
     10          1           0        0.219213   -1.166341   -0.798103
     11          1           0        0.202447   -1.448811    0.993744
     12          1           0        1.753687    0.288454   -0.505226
     13          1           0        2.694125   -0.576987   -0.441529
     14          1           0        2.244088    1.386407    1.205940
 ---------------------------------------------------------------------

 SCF Done:  E(RB2PLYPD3) =  -157.358261952     A.U. after   12 cycles
 E2(B2PLYPD3) =    -0.2577772506D+00 E(B2PLYPD3) =    -0.15761603920216D+03

 The electronic state is 1-A.
 Alpha  occ. eigenvalues --  -10.64851 -10.62756 -10.61058 -10.58925  -0.97364
 Alpha  occ. eigenvalues --   -0.90327  -0.75888  -0.67666  -0.54696  -0.52411
 Alpha  occ. eigenvalues --   -0.48138  -0.47615  -0.42262  -0.39168  -0.38475
 Alpha  occ. eigenvalues --   -0.36638  -0.33215
 Alpha virt. eigenvalues --   -0.00520   0.05362   0.05798   0.07484   0.10471
 Alpha virt. eigenvalues --    0.10732   0.11653   0.12766   0.14333   0.14513
 Alpha virt. eigenvalues --    0.15557   0.16120   0.17336   0.19914   0.20665

 Mulliken charges:
               1
     1  C   -0.146954
     2  C   -0.132967
     3  H    0.030399
     4  H    0.056992
     5  H    0.071725
     6  C   -0.067887
     7  H    0.148362
     8  H    0.008116
     9  C   -0.836721
    10  H    0.053878
    11  H   -0.023447
    12  H    0.682046
    13  H    0.110364
    14  H    0.046094
 Sum of Mulliken charges =   0.00000

 Dipole moment (field-independent basis, Debye):
    X=             -0.0431    Y=              0.2014    Z=             -0.7569  Tot=              0.7844
 Quadrupole moment (field-independent basis, Debye-Ang):
   XX=            -31.0694   YY=            -29.2990   ZZ=            -28.6488
   XY=             -0.3707   XZ=             -0.3575   YZ=              1.4486

 Normal termination of Gaussian 09 at Wed Aug 26 12:47:30 2020.
