 Gaussian 09, Revision D.01,
 Gaussian 09:  ES64L-G09RevD.01 24-Apr-2013

 --------------------
 #p B2PLYPD3/Def2QZVP
 --------------------

 ----------
 butane_opt
 ----------
 Symbolic Z-matrix:
 Charge =  0 Multiplicity = 1

                         Standard orientation:
 ---------------------------------------------------------------------
 Center     Atomic      Atomic             Coordinates (Angstroms)
 Number     Number       Type             X           Y           Z
 ---------------------------------------------------------------------
      1          6           0       -2.059364   -0.125483    0.000258
      2          6           0       -0.602243    0.510229   -0.050433
      3          1           0       -2.741736    0.718841   -0.102798
      4          1           0       -2.286097   -1.227233    1.106641
      5          1           0       -1.985076   -0.473300   -0.599089
      6          6           0        0.561501   -0.476399   -0.157044
      7          1           0       -0.221976    1.315852    1.037161
      8          1           0       -0.488554    1.126189   -0.684007
      9          6           0        1.976734    0.077657    0.096882
     10          1           0        0.532065   -0.990122   -0.925324
     11          1           0        0.578997   -1.095277    0.688622
     12          1           0        2.286108    0.776965   -0.769514
     13          1           0        2.827963   -0.709106   -0.049497
     14          1           0        2.238538    0.641168    0.959831
 ---------------------------------------------------------------------

 SCF Done:  E(RB2PLYPD3) =  -157.705625366     A.U. after   11 cycles
 E2(B2PLYPD3) =    -0.2500945209D+00 E(B2PLYPD3) =    -0.15795571988705D+03

 The electronic state is 1-A.
 Alpha  occ. eigenvalues --  -10.62119 -10.61552 -10.61078 -10.58723  -0.93149
 Alpha  occ. eigenvalues --   -0.86421  -0.75655  -0.69785  -0.55166  -0.53543
 Alpha  occ. eigenvalues --   -0.48438  -0.46660  -0.44639  -0.39024  -0.38581
 Alpha  occ. eigenvalues --   -0.36549  -0.35530
 Alpha virt. eigenvalues --    0.03293   0.05954   0.07999   0.08520   0.10100
 Alpha virt. eigenvalues --    0.11300   0.12195   0.12802   0.14378   0.15095
 Alpha virt. eigenvalues --    0.15217   0.16320   0.18436   0.20036   0.21260

 Mulliken charges:
               1
     1  C   -0.616867
     2  C   -0.093643
     3  H    0.093153
     4  H    0.018528
     5  H    0.486865
     6  C   -0.042249
     7  H   -0.027143
     8  H    0.122282
     9  C   -0.130523
    10  H    0.053409
    11  H    0.044434
    12  H    0.004266
    13  H    0.029852
    14  H    0.057635
 Sum of Mulliken charges =   0.00000

 Dipole moment (field-independent basis, Debye):
    X=              0.0150    Y=             -0.0713    Z=             -0.8450  Tot=              0.8482
 Quadrupole moment (field-independent basis, Debye-Ang):
   XX=            -29.6347   YY=            -29.0078   ZZ=            -28.5954
   XY=             -0.7821   XZ=              1.5771   YZ=             -0.3806

 Normal termination of Gaussian 09 at Wed Aug 26 14:06:04 2020.
