 Gaussian 09, Revision D.01,
 Gaussian 09:  ES64L-G09RevD.01 24-Apr-2013

 --------------------
 #p B2PLYPD3/Def2QZVP
 --------------------

 ----------
 butane_opt
 ----------
 Symbolic Z-matrix:
 Charge =  0 Multiplicity = 1

                         Standard orientation:
 ---------------------------------------------------------------------
 Center     Atomic      Atomic             Coordinates (Angstroms)
 Number     Number       Type             X           Y           Z
 ---------------------------------------------------------------------
      1          6           0       -2.041890    0.074737   -0.150459
      2          6           0       -0.562016   -0.476958    0.087121
      3          1           0       -2.747193   -0.609038    0.214646
      4          1           0       -2.150017    0.951455   -1.139412
      5          1           0       -1.938283    0.464112    0.638081
      6          6           0        0.617187    0.543133    0.202898
      7          1           0       -0.616884   -0.817599   -0.721168
      8          1           0       -0.380760   -1.377373    1.133418
      9          6           0        1.991090   -0.131893   -0.163169
     10          1           0        0.383305    1.369214    1.297550
     11          1           0        0.391367    0.792205   -0.366712
     12          1           0        2.700398   -0.698419    0.692810
     13          1           0        2.604439    0.442770   -0.497144
     14          1           0        1.727401   -0.571444   -1.110412
 ---------------------------------------------------------------------

 SCF Done:  E(RB2PLYPD3) =  -157.509720741     A.U. after   11 cycles
 E2(B2PLYPD3) =    -0.2527259044D+00 E(B2PLYPD3) =    -0.15776244664500D+03

 The electronic state is 1-A.
 Alpha  occ. eigenvalues --  -10.61423 -10.60497 -10.60317 -10.59713  -0.95542
 Alpha  occ. eigenvalues --   -0.86539  -0.78075  -0.69624  -0.55002  -0.50430
 Alpha  occ. eigenvalues --   -0.48616  -0.47328  -0.42823  -0.42086  -0.39037
 Alpha  occ. eigenvalues --   -0.35624  -0.33447
 Alpha virt. eigenvalues --    0.05299   0.06079   0.06844   0.08084   0.10416
 Alpha virt. eigenvalues --    0.11445   0.11777   0.13614   0.14235   0.15000
 Alpha virt. eigenvalues --    0.15980   0.16054   0.18371   0.19512   0.21520

 Mulliken charges:
               1
     1  C   -0.304590
     2  C   -0.164513
     3  H    0.068730
     4  H    0.055616
     5  H    0.168372
     6  C   -0.741554
     7  H    0.174347
     8  H    0.005978
     9  C   -0.119678
    10  H    0.030637
    11  H    0.656156
    12  H    0.045579
    13  H    0.087259
    14  H    0.037660
 Sum of Mulliken charges =   0.00000

 Dipole moment (field-independent basis, Debye):
    X=              0.1807    Y=              0.3701    Z=             -0.5416  Tot=              0.6804
 Quadrupole moment (field-independent basis, Debye-Ang):
   XX=            -28.3426   YY=            -30.4989   ZZ=            -27.4846
   XY=              0.2668   XZ=             -0.5955   YZ=             -0.7769

 Normal termination of Gaussian 09 at Wed Aug 26 18:50:05 2020.
