 Gaussian 09, Revision D.01,
 Gaussian 09:  ES64L-G09RevD.01 24-Apr-2013

 --------------------
 #p B2PLYPD3/Def2QZVP
 --------------------

 ----------
 butane_opt
 ----------
 Symbolic Z-matrix:
 Charge =  0 Multiplicity = 1

                         Standard orientation:
 ---------------------------------------------------------------------
 Center     Atomic      Atomic             Coordinates (Angstroms)
 Number     Number       Type             X           Y           Z
 ---------------------------------------------------------------------
      1          6           0       -1.970187    0.162957   -0.097282
      2          6           0       -0.485549   -0.567082    0.244411
      3          1           0       -2.766515   -0.632563   -1.043490
      4          1           0       -1.684518    0.381514   -0.779935
      5          1           0       -2.550587    1.198408    1.032047
      6          6           0        0.606496    0.425865   -0.005054
      7          1           0       -0.360380   -0.925468   -0.522096
      8          1           0       -0.271681   -1.281361    1.302865
      9          6           0        1.864482   -0.085646   -0.076156
     10          1           0        0.504833    1.356864    0.957511
     11          1           0        0.747981    1.007159   -0.946339
     12          1           0        1.832024   -0.630494    0.772409
     13          1           0        2.807421    0.705524   -0.201080
     14          1           0        1.649970   -0.796148   -0.967409
 ---------------------------------------------------------------------

 SCF Done:  E(RB2PLYPD3) =  -157.624781668     A.U. after   12 cycles
 E2(B2PLYPD3) =    -0.2588062554D+00 E(B2PLYPD3) =    -0.15788358792381D+03

 The electronic state is 1-A.
 Alpha  occ. eigenvalues --  -10.65699 -10.62798 -10.62464 -10.60958  -0.97088
 Alpha  occ. eigenvalues --   -0.87410  -0.75642  -0.64955  -0.57532  -0.51278
 Alpha  occ. eigenvalues --   -0.48035  -0.46148  -0.42341  -0.38661  -0.37236
 Alpha  occ. eigenvalues --   -0.35745  -0.33320
 Alpha virt. eigenvalues --    0.00622   0.05130   0.06011   0.07043   0.08217
 Alpha virt. eigenvalues --    0.09862   0.11667   0.12057   0.13468   0.15314
 Alpha virt. eigenvalues --    0.15612   0.16504   0.17634   0.18656   0.19766

 Mulliken charges:
               1
     1  C   -0.513947
     2  C   -0.230268
     3  H   -0.003219
     4  H    0.430149
     5  H    0.064689
     6  C   -0.052225
     7  H    0.233459
     8  H    0.051561
     9  C   -0.141073
    10  H   -0.030460
    11  H    0.036062
    12  H    0.053634
    13  H    0.061484
    14  H    0.040156
 Sum of Mulliken charges =   0.00000

 Dipole moment (field-independent basis, Debye):
    X=              0.8207    Y=              0.0003    Z=             -0.5514  Tot=              0.9888
 Quadrupole moment (field-independent basis, Debye-Ang):
   XX=            -32.7721   YY=            -30.7807   ZZ=            -27.8807
   XY=             -0.0108   XZ=             -0.0697   YZ=              0.0875

 Normal termination of Gaussian 09 at Wed Aug 26 13:13:56 2020.
