 Gaussian 09, Revision D.01,
 Gaussian 09:  ES64L-G09RevD.01 24-Apr-2013

 --------------------
 #p B2PLYPD3/Def2QZVP
 --------------------

 ----------
 butane_opt
 ----------
 Symbolic Z-matrix:
 Charge =  0 Multiplicity = 1

                         Standard orientation:
 ---------------------------------------------------------------------
 Center     Atomic      Atomic             Coordinates (Angstroms)
 Number     Number       Type             X           Y           Z
 ---------------------------------------------------------------------
      1          6           0        1.918979   -0.142672    0.065354
      2          6           0        0.558871    0.547985   -0.096264
      3          1           0        2.580803    0.454135    0.210353
      4          1           0        2.196091   -0.563157   -0.672297
      5          1           0        2.088216   -0.995016    1.045557
      6          6           0       -0.565772   -0.458032   -0.196527
      7          1           0        0.347288    1.314868   -0.886262
      8          1           0        0.370760    1.198699    0.846413
      9          6           0       -1.882988    0.075037    0.124960
     10          1           0       -0.428644   -1.048894    0.505310
     11          1           0       -0.517661   -1.061674   -1.152066
     12          1           0       -1.772178    0.578302    0.952201
     13          1           0       -2.743475   -0.758436    0.382289
     14          1           0       -2.295747    0.747266   -0.616632
 ---------------------------------------------------------------------

 SCF Done:  E(RB2PLYPD3) =  -157.982928530     A.U. after   11 cycles
 E2(B2PLYPD3) =    -0.2461305374D+00 E(B2PLYPD3) =    -0.15822905906735D+03

 The electronic state is 1-A.
 Alpha  occ. eigenvalues --  -10.61629 -10.58892 -10.57917 -10.57821  -0.93003
 Alpha  occ. eigenvalues --   -0.85771  -0.74816  -0.67928  -0.55230  -0.51872
 Alpha  occ. eigenvalues --   -0.49554  -0.46874  -0.43526  -0.41014  -0.40033
 Alpha  occ. eigenvalues --   -0.38022  -0.36545
 Alpha virt. eigenvalues --    0.05772   0.06476   0.08150   0.08752   0.11023
 Alpha virt. eigenvalues --    0.12038   0.12933   0.14085   0.14890   0.15395
 Alpha virt. eigenvalues --    0.16336   0.16785   0.19492   0.20231   0.21881

 Mulliken charges:
               1
     1  C   -0.170078
     2  C   -0.022654
     3  H    0.068886
     4  H    0.074084
     5  H    0.007479
     6  C   -0.070751
     7  H    0.030166
     8  H    0.005157
     9  C   -0.147503
    10  H    0.089539
    11  H    0.016977
    12  H    0.063288
    13  H    0.020821
    14  H    0.034589
 Sum of Mulliken charges =   0.00000

 Dipole moment (field-independent basis, Debye):
    X=              0.3662    Y=              0.1538    Z=             -0.0418  Tot=              0.3994
 Quadrupole moment (field-independent basis, Debye-Ang):
   XX=            -28.8602   YY=            -28.7271   ZZ=            -28.2120
   XY=             -0.0222   XZ=             -0.4259   YZ=             -0.2238

 Normal termination of Gaussian 09 at Wed Aug 26 16:29:21 2020.
