 Gaussian 09, Revision D.01,
 Gaussian 09:  ES64L-G09RevD.01 24-Apr-2013

 --------------------
 #p B2PLYPD3/Def2QZVP
 --------------------

 ----------
 butane_opt
 ----------
 Symbolic Z-matrix:
 Charge =  0 Multiplicity = 1

                         Standard orientation:
 ---------------------------------------------------------------------
 Center     Atomic      Atomic             Coordinates (Angstroms)
 Number     Number       Type             X           Y           Z
 ---------------------------------------------------------------------
      1          6           0        1.992499   -0.193269   -0.090013
      2          6           0        0.543321    0.568758    0.069388
      3          1           0        2.760910    0.303129   -0.250249
      4          1           0        1.815760   -1.190411   -0.982735
      5          1           0        2.075316   -0.314144    0.541402
      6          6           0       -0.541694   -0.385363    0.291882
      7          1           0        0.334992    0.793126   -0.633276
      8          1           0        0.280561    1.627822    0.824122
      9          6           0       -1.922175    0.065097   -0.216635
     10          1           0       -0.653169   -1.123830    1.459650
     11          1           0       -0.326778   -0.739707   -0.236069
     12          1           0       -2.359573    0.814491    0.500025
     13          1           0       -2.916704   -0.970888   -0.306261
     14          1           0       -1.443018    0.469073   -1.244338
 ---------------------------------------------------------------------

 SCF Done:  E(RB2PLYPD3) =  -157.177035075     A.U. after   12 cycles
 E2(B2PLYPD3) =    -0.2524469737D+00 E(B2PLYPD3) =    -0.15742948204879D+03

 The electronic state is 1-A.
 Alpha  occ. eigenvalues --  -10.65297 -10.60410 -10.58970 -10.58651  -0.98897
 Alpha  occ. eigenvalues --   -0.89101  -0.77479  -0.70920  -0.56538  -0.51988
 Alpha  occ. eigenvalues --   -0.49844  -0.45269  -0.43549  -0.43279  -0.38182
 Alpha  occ. eigenvalues --   -0.36914  -0.35212
 Alpha virt. eigenvalues --    0.04243   0.05739   0.07465   0.07869   0.09588
 Alpha virt. eigenvalues --    0.11365   0.11774   0.13350   0.14352   0.15356
 Alpha virt. eigenvalues --    0.15923   0.16494   0.17243   0.19531   0.21068

 Mulliken charges:
               1
     1  C   -0.616222
     2  C   -0.358812
     3  H    0.059116
     4  H    0.047356
     5  H    0.508554
     6  C   -0.715322
     7  H    0.371166
     8  H    0.019378
     9  C   -0.135283
    10  H    0.014057
    11  H    0.663390
    12  H    0.065272
    13  H    0.032728
    14  H    0.044623
 Sum of Mulliken charges =   0.00000

 Dipole moment (field-independent basis, Debye):
    X=              0.5390    Y=              0.0369    Z=             -0.3286  Tot=              0.6324
 Quadrupole moment (field-independent basis, Debye-Ang):
   XX=            -28.4288   YY=            -29.7873   ZZ=            -28.6615
   XY=              0.0802   XZ=             -0.7738   YZ=              0.6143

 Normal termination of Gaussian 09 at Wed Aug 26 23:05:59 2020.
