 Gaussian 09, Revision D.01,
 Gaussian 09:  ES64L-G09RevD.01 24-Apr-2013

 --------------------
 #p B2PLYPD3/Def2QZVP
 --------------------

 ----------
 butane_opt
 ----------
 Symbolic Z-matrix:
 Charge =  0 Multiplicity = 1

                         Standard orientation:
 ---------------------------------------------------------------------
 Center     Atomic      Atomic             Coordinates (Angstroms)
 Number     Number       Type             X           Y           Z
 ---------------------------------------------------------------------
      1          6           0        1.985693   -0.171707   -0.142515
      2          6           0        0.556453    0.573201    0.145764
      3          1           0        2.911755    0.734681   -0.754434
      4          1           0        1.635761   -0.520463   -0.766890
      5          1           0        2.766399   -1.246250    0.984545
      6          6           0       -0.612334   -0.417255    0.136391
      7          1           0        0.497943    0.690485   -0.432261
      8          1           0        0.524001    1.411475    1.256479
      9          6           0       -1.958479    0.071895   -0.082203
     10          1           0       -0.765263   -1.056336    0.862331
     11          1           0       -0.559147   -0.992974   -0.804927
     12          1           0       -2.267479    0.595309    0.670256
     13          1           0       -2.701388   -0.715967   -0.261155
     14          1           0       -1.870578    0.763235   -1.098569
 ---------------------------------------------------------------------

 SCF Done:  E(RB2PLYPD3) =  -157.274365797     A.U. after   13 cycles
 E2(B2PLYPD3) =    -0.2551753095D+00 E(B2PLYPD3) =    -0.15752954110680D+03

 The electronic state is 1-A.
 Alpha  occ. eigenvalues --  -10.65929 -10.62712 -10.60051 -10.59581  -0.98075
 Alpha  occ. eigenvalues --   -0.88172  -0.76333  -0.69706  -0.56723  -0.51271
 Alpha  occ. eigenvalues --   -0.50024  -0.46995  -0.42175  -0.39318  -0.38873
 Alpha  occ. eigenvalues --   -0.36803  -0.34285
 Alpha virt. eigenvalues --    0.00879   0.05492   0.06651   0.07222   0.09288
 Alpha virt. eigenvalues --    0.09948   0.11782   0.12060   0.13988   0.15201
 Alpha virt. eigenvalues --    0.15324   0.16831   0.17433   0.18837   0.20160

 Mulliken charges:
               1
     1  C   -0.401850
     2  C   -0.960930
     3  H    0.036319
     4  H    0.330868
     5  H    0.014987
     6  C    0.021782
     7  H    0.854015
     8  H    0.051958
     9  C   -0.121846
    10  H    0.050025
    11  H    0.009943
    12  H    0.058695
    13  H    0.048590
    14  H    0.007443
 Sum of Mulliken charges =   0.00000

 Dipole moment (field-independent basis, Debye):
    X=             -0.9057    Y=             -0.1283    Z=             -0.2708  Tot=              0.9539
 Quadrupole moment (field-independent basis, Debye-Ang):
   XX=            -31.3205   YY=            -29.8489   ZZ=            -27.9904
   XY=              1.4201   XZ=             -1.3559   YZ=             -0.0224

 Normal termination of Gaussian 09 at Wed Aug 26 14:08:23 2020.
