 Gaussian 09, Revision D.01,
 Gaussian 09:  ES64L-G09RevD.01 24-Apr-2013

 --------------------
 #p B2PLYPD3/Def2QZVP
 --------------------

 ----------
 butane_opt
 ----------
 Symbolic Z-matrix:
 Charge =  0 Multiplicity = 1

                         Standard orientation:
 ---------------------------------------------------------------------
 Center     Atomic      Atomic             Coordinates (Angstroms)
 Number     Number       Type             X           Y           Z
 ---------------------------------------------------------------------
      1          6           0       -1.858538    0.034355   -0.033927
      2          6           0       -0.566666   -0.470869   -0.040019
      3          1           0       -2.728026   -0.763635   -0.059716
      4          1           0       -1.896872    0.992682   -1.006730
      5          1           0       -1.839716    0.630810    0.897325
      6          6           0        0.455291    0.528669    0.222167
      7          1           0       -0.443216   -1.177614   -1.017002
      8          1           0       -0.747302   -1.041559    0.783622
      9          6           0        1.982446   -0.125389   -0.061599
     10          1           0        0.438016    1.085527    1.162166
     11          1           0       -0.004603    1.480881   -0.725130
     12          1           0        2.439575   -1.131931    0.897978
     13          1           0        2.729409    0.713527   -0.673870
     14          1           0        1.977537   -0.589285   -0.778376
 ---------------------------------------------------------------------

 SCF Done:  E(RB2PLYPD3) =  -157.852466216     A.U. after   11 cycles
 E2(B2PLYPD3) =    -0.2558276055D+00 E(B2PLYPD3) =    -0.15810829382171D+03

 The electronic state is 1-A.
 Alpha  occ. eigenvalues --  -10.65414 -10.63824 -10.63109 -10.60443  -0.94915
 Alpha  occ. eigenvalues --   -0.83283  -0.73325  -0.64984  -0.55549  -0.52109
 Alpha  occ. eigenvalues --   -0.47933  -0.43333  -0.42618  -0.39374  -0.37575
 Alpha  occ. eigenvalues --   -0.35824  -0.34933
 Alpha virt. eigenvalues --    0.03847   0.04777   0.06760   0.07441   0.10051
 Alpha virt. eigenvalues --    0.10356   0.11709   0.12141   0.13220   0.14888
 Alpha virt. eigenvalues --    0.15261   0.15987   0.18173   0.19163   0.19957

 Mulliken charges:
               1
     1  C   -0.152322
     2  C    0.005915
     3  H    0.060113
     4  H   -0.012804
     5  H    0.062089
     6  C   -0.068628
     7  H    0.025008
     8  H    0.049906
     9  C   -0.290433
    10  H    0.068252
    11  H   -0.008952
    12  H    0.030389
    13  H    0.036092
    14  H    0.195375
 Sum of Mulliken charges =   0.00000

 Dipole moment (field-independent basis, Debye):
    X=             -0.2726    Y=             -0.7579    Z=              0.2595  Tot=              0.8462
 Quadrupole moment (field-independent basis, Debye-Ang):
   XX=            -32.0782   YY=            -30.0021   ZZ=            -28.8015
   XY=              0.7179   XZ=             -1.8570   YZ=              0.3295

 Normal termination of Gaussian 09 at Wed Aug 26 22:09:03 2020.
