 Gaussian 09, Revision D.01,
 Gaussian 09:  ES64L-G09RevD.01 24-Apr-2013

 --------------------
 #p B2PLYPD3/Def2QZVP
 --------------------

 ----------
 butane_opt
 ----------
 Symbolic Z-matrix:
 Charge =  0 Multiplicity = 1

                         Standard orientation:
 ---------------------------------------------------------------------
 Center     Atomic      Atomic             Coordinates (Angstroms)
 Number     Number       Type             X           Y           Z
 ---------------------------------------------------------------------
      1          6           0       -2.061242   -0.186284    0.188602
      2          6           0       -0.482986    0.637931   -0.209710
      3          1           0       -2.826113    0.447966    0.866887
      4          1           0       -1.780737   -0.592357    0.896625
      5          1           0       -2.802669   -1.092578   -0.956529
      6          6           0        0.633402   -0.457952   -0.259513
      7          1           0       -0.150164    0.963459    0.458764
      8          1           0       -0.730968    1.618278   -1.195969
      9          6           0        1.934500    0.041553    0.201870
     10          1           0        0.651149   -0.825305   -0.888084
     11          1           0        0.361228   -1.165747    0.499589
     12          1           0        2.274836    0.536858   -0.467614
     13          1           0        2.925464   -0.793953   -0.047597
     14          1           0        1.935926    0.691889    1.306435
 ---------------------------------------------------------------------

 SCF Done:  E(RB2PLYPD3) =  -157.537435522     A.U. after   12 cycles
 E2(B2PLYPD3) =    -0.2544680446D+00 E(B2PLYPD3) =    -0.15779190356687D+03

 The electronic state is 1-A.
 Alpha  occ. eigenvalues --  -10.64618 -10.63232 -10.61980 -10.57520  -0.94726
 Alpha  occ. eigenvalues --   -0.83318  -0.76366  -0.74018  -0.57116  -0.47699
 Alpha  occ. eigenvalues --   -0.46554  -0.45965  -0.43469  -0.41319  -0.37897
 Alpha  occ. eigenvalues --   -0.36332  -0.34652
 Alpha virt. eigenvalues --    0.02304   0.04512   0.06914   0.08392   0.09227
 Alpha virt. eigenvalues --    0.10231   0.12086   0.12539   0.13176   0.15087
 Alpha virt. eigenvalues --    0.16172   0.16753   0.17477   0.18894   0.19997

 Mulliken charges:
               1
     1  C   -0.320374
     2  C   -0.285188
     3  H    0.039069
     4  H    0.204856
     5  H    0.034551
     6  C   -0.366918
     7  H    0.285528
     8  H    0.029315
     9  C   -0.172592
    10  H    0.320053
    11  H    0.061611
    12  H    0.115326
    13  H    0.011530
    14  H    0.043233
 Sum of Mulliken charges =   0.00000

 Dipole moment (field-independent basis, Debye):
    X=              0.5893    Y=             -0.0319    Z=              0.3464  Tot=              0.6843
 Quadrupole moment (field-independent basis, Debye-Ang):
   XX=            -30.8903   YY=            -29.7560   ZZ=            -27.8362
   XY=              0.4902   XZ=             -1.7883   YZ=              0.8982

 Normal termination of Gaussian 09 at Wed Aug 26 20:33:01 2020.
