 Gaussian 09, Revision D.01,
 Gaussian 09:  ES64L-G09RevD.01 24-Apr-2013

 --------------------
 #p B2PLYPD3/Def2QZVP
 --------------------

 ----------
 butane_opt
 ----------
 Symbolic Z-matrix:
 Charge =  0 Multiplicity = 1

                         Standard orientation:
 ---------------------------------------------------------------------
 Center     Atomic      Atomic             Coordinates (Angstroms)
 Number     Number       Type             X           Y           Z
 ---------------------------------------------------------------------
      1          6           0        1.940648    0.149350   -0.190691
      2          6           0        0.534834   -0.476046    0.287258
      3          1           0        2.805010   -0.859595   -0.668782
      4          1           0        2.368027    1.026899    0.740751
      5          1           0        1.665916    0.562865   -0.918793
      6          6           0       -0.547711    0.437870    0.118057
      7          1           0        0.282471   -1.508451    1.509502
      8          1           0        0.233932   -0.778084   -0.413322
      9          6           0       -1.921044   -0.131452   -0.163739
     10          1           0       -0.328015    0.861049   -0.641962
     11          1           0       -0.698704    1.572944    1.122696
     12          1           0       -1.476822   -0.850859   -1.095397
     13          1           0       -2.708323    0.582598   -0.398840
     14          1           0       -2.183850   -0.487699    0.458839
 ---------------------------------------------------------------------

 SCF Done:  E(RB2PLYPD3) =  -157.570744553     A.U. after   12 cycles
 E2(B2PLYPD3) =    -0.2553933014D+00 E(B2PLYPD3) =    -0.15782613785410D+03

 The electronic state is 1-A.
 Alpha  occ. eigenvalues --  -10.65393 -10.63163 -10.62858 -10.59512  -0.99235
 Alpha  occ. eigenvalues --   -0.86756  -0.77941  -0.69325  -0.55794  -0.51674
 Alpha  occ. eigenvalues --   -0.50573  -0.45793  -0.45369  -0.41063  -0.39064
 Alpha  occ. eigenvalues --   -0.35888  -0.32658
 Alpha virt. eigenvalues --    0.03037   0.04606   0.06303   0.06628   0.09345
 Alpha virt. eigenvalues --    0.10098   0.11489   0.12751   0.14334   0.14854
 Alpha virt. eigenvalues --    0.15459   0.16305   0.17038   0.19448   0.19841

 Mulliken charges:
               1
     1  C   -0.260402
     2  C   -0.292014
     3  H    0.040470
     4  H    0.063220
     5  H    0.169380
     6  C   -0.115490
     7  H   -0.005389
     8  H    0.313772
     9  C   -0.361766
    10  H    0.149658
    11  H   -0.070865
    12  H    0.028714
    13  H    0.063660
    14  H    0.277053
 Sum of Mulliken charges =   0.00000

 Dipole moment (field-independent basis, Debye):
    X=             -0.4154    Y=             -0.0520    Z=             -1.1943  Tot=              1.2656
 Quadrupole moment (field-independent basis, Debye-Ang):
   XX=            -29.3837   YY=            -31.1906   ZZ=            -29.4715
   XY=              0.1809   XZ=             -1.0582   YZ=             -0.4499

 Normal termination of Gaussian 09 at Wed Aug 26 19:09:41 2020.
