 Gaussian 09, Revision D.01,
 Gaussian 09:  ES64L-G09RevD.01 24-Apr-2013

 --------------------
 #p B2PLYPD3/Def2QZVP
 --------------------

 ----------
 butane_opt
 ----------
 Symbolic Z-matrix:
 Charge =  0 Multiplicity = 1

                         Standard orientation:
 ---------------------------------------------------------------------
 Center     Atomic      Atomic             Coordinates (Angstroms)
 Number     Number       Type             X           Y           Z
 ---------------------------------------------------------------------
      1          6           0       -1.934977   -0.111244    0.034625
      2          6           0       -0.590556    0.437926   -0.070107
      3          1           0       -2.822185    0.935232   -0.375313
      4          1           0       -2.083188   -0.873859    1.019908
      5          1           0       -1.724997   -0.380364   -0.764929
      6          6           0        0.544833   -0.638901    0.030362
      7          1           0       -0.585104    1.343499    0.992147
      8          1           0       -0.639110    0.985462   -0.813289
      9          6           0        1.990114    0.144716    0.018910
     10          1           0        0.430479   -1.262095   -0.833584
     11          1           0        0.463896   -1.334438    1.002622
     12          1           0        1.915040    0.736870   -0.866796
     13          1           0        2.607325   -0.374589   -0.603293
     14          1           0        2.381363    1.229299    1.159783
 ---------------------------------------------------------------------

 SCF Done:  E(RB2PLYPD3) =  -157.775850796     A.U. after   11 cycles
 E2(B2PLYPD3) =    -0.2570363746D+00 E(B2PLYPD3) =    -0.15803288717067D+03

 The electronic state is 1-A.
 Alpha  occ. eigenvalues --  -10.64568 -10.64167 -10.62101 -10.61706  -0.94672
 Alpha  occ. eigenvalues --   -0.84837  -0.73193  -0.66899  -0.55189  -0.48736
 Alpha  occ. eigenvalues --   -0.48458  -0.46163  -0.40627  -0.39787  -0.38302
 Alpha  occ. eigenvalues --   -0.35828  -0.32312
 Alpha virt. eigenvalues --    0.02219   0.04019   0.06771   0.07642   0.08763
 Alpha virt. eigenvalues --    0.10540   0.11181   0.12000   0.13275   0.15111
 Alpha virt. eigenvalues --    0.15798   0.16863   0.17927   0.18847   0.19666

 Mulliken charges:
               1
     1  C   -0.272707
     2  C   -0.059802
     3  H    0.010255
     4  H    0.070680
     5  H    0.167949
     6  C   -0.045665
     7  H   -0.035719
     8  H    0.098645
     9  C   -0.193344
    10  H    0.050973
    11  H    0.035768
    12  H    0.045360
    13  H    0.067452
    14  H    0.060156
 Sum of Mulliken charges =   0.00000

 Dipole moment (field-independent basis, Debye):
    X=              0.3067    Y=             -0.4802    Z=             -1.0743  Tot=              1.2161
 Quadrupole moment (field-independent basis, Debye-Ang):
   XX=            -33.1501   YY=            -29.9007   ZZ=            -27.9202
   XY=              0.1805   XZ=             -1.1027   YZ=             -0.6481

 Normal termination of Gaussian 09 at Wed Aug 26 22:34:28 2020.
