 Gaussian 09, Revision D.01,
 Gaussian 09:  ES64L-G09RevD.01 24-Apr-2013

 --------------------
 #p B2PLYPD3/Def2QZVP
 --------------------

 ----------
 butane_opt
 ----------
 Symbolic Z-matrix:
 Charge =  0 Multiplicity = 1

                         Standard orientation:
 ---------------------------------------------------------------------
 Center     Atomic      Atomic             Coordinates (Angstroms)
 Number     Number       Type             X           Y           Z
 ---------------------------------------------------------------------
      1          6           0       -1.847520   -0.146509    0.086852
      2          6           0       -0.605839    0.506018   -0.225343
      3          1           0       -2.529579    0.568692    0.724807
      4          1           0       -1.653646   -0.431617    0.741254
      5          1           0       -2.623700   -0.945277   -0.797676
      6          6           0        0.543925   -0.475991   -0.072800
      7          1           0       -0.379100    1.087527    0.669146
      8          1           0       -0.398628    1.373438   -1.217121
      9          6           0        1.874853    0.092077    0.085217
     10          1           0        0.689425   -1.059935   -0.917580
     11          1           0        0.244531   -1.259979    1.049170
     12          1           0        2.317763    0.466118   -0.597258
     13          1           0        2.770719   -0.718269   -0.031837
     14          1           0        1.769705    1.065735    1.133540
 ---------------------------------------------------------------------

 SCF Done:  E(RB2PLYPD3) =  -157.705262592     A.U. after   11 cycles
 E2(B2PLYPD3) =    -0.2545846494D+00 E(B2PLYPD3) =    -0.15795984724155D+03

 The electronic state is 1-A.
 Alpha  occ. eigenvalues --  -10.63343 -10.63213 -10.62289 -10.60088  -0.95486
 Alpha  occ. eigenvalues --   -0.87984  -0.75178  -0.66524  -0.55735  -0.51090
 Alpha  occ. eigenvalues --   -0.48256  -0.47272  -0.41027  -0.40297  -0.37855
 Alpha  occ. eigenvalues --   -0.35612  -0.34632
 Alpha virt. eigenvalues --    0.03859   0.05580   0.06109   0.07161   0.09740
 Alpha virt. eigenvalues --    0.10168   0.11430   0.12819   0.13741   0.14984
 Alpha virt. eigenvalues --    0.16145   0.16839   0.18049   0.19243   0.19923

 Mulliken charges:
               1
     1  C   -0.552282
     2  C   -0.023267
     3  H    0.039635
     4  H    0.426714
     5  H    0.049513
     6  C    0.005982
     7  H    0.050642
     8  H    0.014142
     9  C   -0.176304
    10  H    0.044003
    11  H   -0.002585
    12  H    0.101660
    13  H    0.024314
    14  H   -0.002168
 Sum of Mulliken charges =   0.00000

 Dipole moment (field-independent basis, Debye):
    X=              0.2905    Y=             -0.0457    Z=             -0.3173  Tot=              0.4327
 Quadrupole moment (field-independent basis, Debye-Ang):
   XX=            -30.1787   YY=            -30.4514   ZZ=            -28.7399
   XY=             -0.0199   XZ=             -2.8779   YZ=              0.8111

 Normal termination of Gaussian 09 at Wed Aug 26 16:18:21 2020.
