 Gaussian 09, Revision D.01,
 Gaussian 09:  ES64L-G09RevD.01 24-Apr-2013

 --------------------
 #p B2PLYPD3/Def2QZVP
 --------------------

 ----------
 butane_opt
 ----------
 Symbolic Z-matrix:
 Charge =  0 Multiplicity = 1

                         Standard orientation:
 ---------------------------------------------------------------------
 Center     Atomic      Atomic             Coordinates (Angstroms)
 Number     Number       Type             X           Y           Z
 ---------------------------------------------------------------------
      1          6           0       -1.966449    0.080420   -0.106895
      2          6           0       -0.652273   -0.455031    0.078678
      3          1           0       -2.749403   -0.734378   -0.011502
      4          1           0       -1.995401    0.588070   -0.979526
      5          1           0       -2.104484    0.972505    0.816067
      6          6           0        0.611484    0.506202    0.134158
      7          1           0       -0.470483   -1.045640   -0.834553
      8          1           0       -0.785088   -1.258516    1.006680
      9          6           0        2.043980   -0.149660   -0.081307
     10          1           0        0.556913    1.450044    1.060164
     11          1           0        0.091759    1.054720   -0.655592
     12          1           0        2.773358   -0.902184    0.906040
     13          1           0        2.809414    0.425214   -0.827087
     14          1           0        1.652961   -0.441423   -0.628491
 ---------------------------------------------------------------------

 SCF Done:  E(RB2PLYPD3) =  -157.759134405     A.U. after   11 cycles
 E2(B2PLYPD3) =    -0.2544467163D+00 E(B2PLYPD3) =    -0.15801358112091D+03

 The electronic state is 1-A.
 Alpha  occ. eigenvalues --  -10.65041 -10.62907 -10.61823 -10.61748  -0.93707
 Alpha  occ. eigenvalues --   -0.87847  -0.73740  -0.64718  -0.54213  -0.50157
 Alpha  occ. eigenvalues --   -0.48846  -0.47399  -0.42694  -0.40451  -0.37812
 Alpha  occ. eigenvalues --   -0.35119  -0.34598
 Alpha virt. eigenvalues --    0.04800   0.05425   0.07493   0.07886   0.09408
 Alpha virt. eigenvalues --    0.10344   0.11422   0.12613   0.13974   0.15669
 Alpha virt. eigenvalues --    0.15768   0.16409   0.17889   0.19450   0.20527

 Mulliken charges:
               1
     1  C   -0.162374
     2  C   -0.024713
     3  H    0.072706
     4  H    0.057504
     5  H    0.027986
     6  C   -0.055499
     7  H    0.039013
     8  H    0.004372
     9  C   -0.571389
    10  H    0.002475
    11  H    0.036818
    12  H    0.073360
    13  H    0.059274
    14  H    0.440466
 Sum of Mulliken charges =   0.00000

 Dipole moment (field-independent basis, Debye):
    X=             -0.2921    Y=             -0.4003    Z=             -0.8444  Tot=              0.9791
 Quadrupole moment (field-independent basis, Debye-Ang):
   XX=            -29.2701   YY=            -30.4288   ZZ=            -28.9036
   XY=              0.0536   XZ=              0.3263   YZ=             -0.5985

 Normal termination of Gaussian 09 at Wed Aug 26 15:33:08 2020.
