 Gaussian 09, Revision D.01,
 Gaussian 09:  ES64L-G09RevD.01 24-Apr-2013

 --------------------
 #p B2PLYPD3/Def2QZVP
 --------------------

 ----------
 butane_opt
 ----------
 Symbolic Z-matrix:
 Charge =  0 Multiplicity = 1

                         Standard orientation:
 ---------------------------------------------------------------------
 Center     Atomic      Atomic             Coordinates (Angstroms)
 Number     Number       Type             X           Y           Z
 ---------------------------------------------------------------------
      1          6           0        2.000517   -0.204297    0.148301
      2          6           0        0.533226    0.654974   -0.234855
      3          1           0        2.810402    0.476846    0.884637
      4          1           0        2.855937   -0.757464   -0.684829
      5          1           0        1.794597   -0.756499    0.926772
      6          6           0       -0.617021   -0.476243   -0.273158
      7          1           0        0.740793    1.527470   -1.094236
      8          1           0        0.022044    1.235542    0.568795
      9          6           0       -1.964243    0.019510    0.238968
     10          1           0       -0.221538   -1.304424    0.577665
     11          1           0       -0.694793   -1.106963   -1.244774
     12          1           0       -1.961510    0.731592    1.275241
     13          1           0       -2.653079   -0.810760    0.089113
     14          1           0       -2.407724    0.800996   -0.573925
 ---------------------------------------------------------------------

 SCF Done:  E(RB2PLYPD3) =  -157.961493619     A.U. after   11 cycles
 E2(B2PLYPD3) =    -0.2550683036D+00 E(B2PLYPD3) =    -0.15821656192299D+03

 The electronic state is 1-A.
 Alpha  occ. eigenvalues --  -10.65431 -10.64455 -10.64161 -10.63577  -0.88584
 Alpha  occ. eigenvalues --   -0.80187  -0.71929  -0.64817  -0.52008  -0.47556
 Alpha  occ. eigenvalues --   -0.45981  -0.45473  -0.41533  -0.39617  -0.38770
 Alpha  occ. eigenvalues --   -0.36063  -0.34644
 Alpha virt. eigenvalues --    0.05250   0.05674   0.07379   0.08114   0.09107
 Alpha virt. eigenvalues --    0.10634   0.11914   0.12104   0.13796   0.15528
 Alpha virt. eigenvalues --    0.15689   0.16332   0.17714   0.19081   0.19905

 Mulliken charges:
               1
     1  C   -0.194511
     2  C   -0.078020
     3  H    0.002115
     4  H    0.060271
     5  H    0.095660
     6  C   -0.011591
     7  H    0.042943
     8  H    0.049593
     9  C   -0.157190
    10  H    0.015246
    11  H    0.037055
    12  H    0.046326
    13  H    0.065634
    14  H    0.026469
 Sum of Mulliken charges =   0.00000

 Dipole moment (field-independent basis, Debye):
    X=             -0.4225    Y=             -0.1907    Z=              0.0929  Tot=              0.4727
 Quadrupole moment (field-independent basis, Debye-Ang):
   XX=            -30.4495   YY=            -29.5754   ZZ=            -29.3278
   XY=             -0.5852   XZ=              0.1466   YZ=              0.3460

 Normal termination of Gaussian 09 at Wed Aug 26 13:45:19 2020.
