 Gaussian 09, Revision D.01,
 Gaussian 09:  ES64L-G09RevD.01 24-Apr-2013

 --------------------
 #p B2PLYPD3/Def2QZVP
 --------------------

 ----------
 butane_opt
 ----------
 Symbolic Z-matrix:
 Charge =  0 Multiplicity = 1

                         Standard orientation:
 ---------------------------------------------------------------------
 Center     Atomic      Atomic             Coordinates (Angstroms)
 Number     Number       Type             X           Y           Z
 ---------------------------------------------------------------------
      1          6           0        1.950050    0.161672    0.028583
      2          6           0        0.508654   -0.586538    0.047265
      3          1           0        2.694700   -0.665626   -0.594911
      4          1           0        2.474489    1.292869    1.004850
      5          1           0        1.895059    0.247238   -0.526269
      6          6           0       -0.574603    0.469895   -0.124898
      7          1           0        0.092283   -1.119317    0.925267
      8          1           0        0.519837   -1.222169   -0.827805
      9          6           0       -1.840199   -0.120508    0.049872
     10          1           0       -0.627756    1.218761   -1.132417
     11          1           0       -0.628487    1.357149    0.928497
     12          1           0       -2.064286   -0.468913   -0.582945
     13          1           0       -2.764255    0.708854   -0.280460
     14          1           0       -1.854993   -0.895964    1.081258
 ---------------------------------------------------------------------

 SCF Done:  E(RB2PLYPD3) =  -157.123502479     A.U. after   12 cycles
 E2(B2PLYPD3) =    -0.2578059061D+00 E(B2PLYPD3) =    -0.15738130838460D+03

 The electronic state is 1-A.
 Alpha  occ. eigenvalues --  -10.64355 -10.63898 -10.63257 -10.59634  -0.95421
 Alpha  occ. eigenvalues --   -0.90735  -0.77985  -0.66294  -0.55150  -0.50378
 Alpha  occ. eigenvalues --   -0.48358  -0.44940  -0.42368  -0.39639  -0.37985
 Alpha  occ. eigenvalues --   -0.36093  -0.33691
 Alpha virt. eigenvalues --    0.02725   0.04281   0.05953   0.06667   0.08728
 Alpha virt. eigenvalues --    0.10644   0.11783   0.12274   0.13720   0.15504
 Alpha virt. eigenvalues --    0.15829   0.16479   0.17750   0.18362   0.20414

 Mulliken charges:
               1
     1  C   -0.990212
     2  C   -0.011520
     3  H    0.020513
     4  H    0.083859
     5  H    0.823501
     6  C   -0.018647
     7  H    0.064594
     8  H    0.040147
     9  C   -0.415178
    10  H    0.024172
    11  H    0.009986
    12  H    0.310592
    13  H    0.016998
    14  H    0.041196
 Sum of Mulliken charges =   0.00000

 Dipole moment (field-independent basis, Debye):
    X=             -0.3113    Y=             -0.3024    Z=             -0.8967  Tot=              0.9962
 Quadrupole moment (field-independent basis, Debye-Ang):
   XX=            -32.0736   YY=            -29.4389   ZZ=            -27.8662
   XY=              1.3660   XZ=              0.2411   YZ=              0.4730

 Normal termination of Gaussian 09 at Wed Aug 26 15:30:36 2020.
