 Gaussian 09, Revision D.01,
 Gaussian 09:  ES64L-G09RevD.01 24-Apr-2013

 --------------------
 #p B2PLYPD3/Def2QZVP
 --------------------

 ----------
 butane_opt
 ----------
 Symbolic Z-matrix:
 Charge =  0 Multiplicity = 1

                         Standard orientation:
 ---------------------------------------------------------------------
 Center     Atomic      Atomic             Coordinates (Angstroms)
 Number     Number       Type             X           Y           Z
 ---------------------------------------------------------------------
      1          6           0       -1.963627   -0.131897    0.018119
      2          6           0       -0.552983    0.534079   -0.012107
      3          1           0       -2.742554    0.599348   -0.111281
      4          1           0       -2.152182   -0.915055    0.956597
      5          1           0       -2.077972   -0.599680   -0.749312
      6          6           0        0.567532   -0.509338   -0.053125
      7          1           0       -0.436227    1.190778    0.891054
      8          1           0       -0.464933    1.203076   -0.884396
      9          6           0        1.956091    0.100851    0.032245
     10          1           0        0.459587   -1.161360   -0.945935
     11          1           0        0.497117   -1.125865    0.806752
     12          1           0        2.116018    0.707288   -0.801761
     13          1           0        2.711874   -0.620635   -0.028156
     14          1           0        2.047193    0.759935    0.955648
 ---------------------------------------------------------------------

 SCF Done:  E(RB2PLYPD3) =  -158.080356953     A.U. after   10 cycles
 E2(B2PLYPD3) =    -0.2458597584D+00 E(B2PLYPD3) =    -0.15832621671143D+03

 The electronic state is 1-A.
 Alpha  occ. eigenvalues --  -10.61089 -10.60038 -10.59007 -10.58955  -0.90925
 Alpha  occ. eigenvalues --   -0.83836  -0.73769  -0.66721  -0.53919  -0.49873
 Alpha  occ. eigenvalues --   -0.48645  -0.47400  -0.42949  -0.40989  -0.38806
 Alpha  occ. eigenvalues --   -0.38188  -0.38092
 Alpha virt. eigenvalues --    0.05897   0.06847   0.08227   0.08757   0.10828
 Alpha virt. eigenvalues --    0.12354   0.12894   0.13855   0.14989   0.15078
 Alpha virt. eigenvalues --    0.15909   0.16510   0.19670   0.20185   0.22129

 Mulliken charges:
               1
     1  C   -0.176682
     2  C   -0.033709
     3  H    0.037283
     4  H    0.028774
     5  H    0.085327
     6  C   -0.050507
     7  H    0.027136
     8  H    0.028533
     9  C   -0.135137
    10  H    0.024348
    11  H    0.040724
    12  H    0.039206
    13  H    0.046212
    14  H    0.038493
 Sum of Mulliken charges =   0.00000

 Dipole moment (field-independent basis, Debye):
    X=              0.0325    Y=             -0.0555    Z=             -0.3113  Tot=              0.3179
 Quadrupole moment (field-independent basis, Debye-Ang):
   XX=            -29.4457   YY=            -28.7794   ZZ=            -28.0280
   XY=             -0.3981   XZ=              0.4772   YZ=             -0.0960

 Normal termination of Gaussian 09 at Wed Aug 26 22:50:56 2020.
