 Gaussian 09, Revision D.01,
 Gaussian 09:  ES64L-G09RevD.01 24-Apr-2013

 --------------------
 #p B2PLYPD3/Def2QZVP
 --------------------

 ----------
 butane_opt
 ----------
 Symbolic Z-matrix:
 Charge =  0 Multiplicity = 1

                         Standard orientation:
 ---------------------------------------------------------------------
 Center     Atomic      Atomic             Coordinates (Angstroms)
 Number     Number       Type             X           Y           Z
 ---------------------------------------------------------------------
      1          6           0       -1.934024    0.049274    0.174855
      2          6           0       -0.661144   -0.441388   -0.192914
      3          1           0       -2.905208   -0.759473   -0.133380
      4          1           0       -2.052918    0.460126   -0.511825
      5          1           0       -2.003503    0.993404    1.327545
      6          6           0        0.502650    0.566932   -0.215992
      7          1           0       -0.869114   -0.934081   -1.029310
      8          1           0       -0.493301   -1.011224    0.578890
      9          6           0        2.034882   -0.201924    0.181467
     10          1           0        0.488185    1.217110    0.653198
     11          1           0        0.549687    1.327827   -0.998923
     12          1           0        2.100252   -1.023988    1.101901
     13          1           0        2.872378    0.495161    0.078363
     14          1           0        2.659356   -0.602222   -0.750952
 ---------------------------------------------------------------------

 SCF Done:  E(RB2PLYPD3) =  -157.828590002     A.U. after   11 cycles
 E2(B2PLYPD3) =    -0.2528139199D+00 E(B2PLYPD3) =    -0.15808140392160D+03

 The electronic state is 1-A.
 Alpha  occ. eigenvalues --  -10.63689 -10.63170 -10.61077 -10.58157  -0.94753
 Alpha  occ. eigenvalues --   -0.82314  -0.73931  -0.68964  -0.56409  -0.49734
 Alpha  occ. eigenvalues --   -0.48098  -0.45164  -0.43260  -0.38705  -0.36890
 Alpha  occ. eigenvalues --   -0.36724  -0.35358
 Alpha virt. eigenvalues --    0.04275   0.05637   0.07483   0.08234   0.10137
 Alpha virt. eigenvalues --    0.11405   0.12067   0.13047   0.13450   0.14368
 Alpha virt. eigenvalues --    0.15640   0.16248   0.17406   0.20050   0.21511

 Mulliken charges:
               1
     1  C   -0.370046
     2  C   -0.035542
     3  H    0.030143
     4  H    0.258897
     5  H    0.018614
     6  C   -0.053180
     7  H    0.042260
     8  H    0.077661
     9  C   -0.176672
    10  H    0.039352
    11  H    0.036838
    12  H    0.066454
    13  H    0.050200
    14  H    0.015021
 Sum of Mulliken charges =   0.00000

 Dipole moment (field-independent basis, Debye):
    X=              0.1994    Y=              0.2181    Z=             -0.6406  Tot=              0.7055
 Quadrupole moment (field-independent basis, Debye-Ang):
   XX=            -29.8127   YY=            -29.2652   ZZ=            -28.6983
   XY=              0.8653   XZ=              1.3061   YZ=             -0.5627

 Normal termination of Gaussian 09 at Wed Aug 26 10:09:46 2020.
