 Gaussian 09, Revision D.01,
 Gaussian 09:  ES64L-G09RevD.01 24-Apr-2013

 --------------------
 #p B2PLYPD3/Def2QZVP
 --------------------

 ----------
 butane_opt
 ----------
 Symbolic Z-matrix:
 Charge =  0 Multiplicity = 1

                         Standard orientation:
 ---------------------------------------------------------------------
 Center     Atomic      Atomic             Coordinates (Angstroms)
 Number     Number       Type             X           Y           Z
 ---------------------------------------------------------------------
      1          6           0        1.956131   -0.109864   -0.146849
      2          6           0        0.616825    0.466178    0.108039
      3          1           0        2.731176    0.711262   -0.014698
      4          1           0        2.185392   -0.698719   -0.986266
      5          1           0        2.125084   -0.673036    0.686683
      6          6           0       -0.564265   -0.568906    0.171675
      7          1           0        0.362733    1.049485   -0.691890
      8          1           0        0.527279    1.305284    1.043446
      9          6           0       -2.027175    0.159929   -0.114048
     10          1           0       -0.502675   -1.303992    1.080411
     11          1           0       -0.309865   -0.931399   -0.579713
     12          1           0       -2.343769    0.818667    0.739904
     13          1           0       -2.793961   -0.623236   -0.488336
     14          1           0       -1.870493    0.661655   -0.902443
 ---------------------------------------------------------------------

 SCF Done:  E(RB2PLYPD3) =  -158.006743262     A.U. after   11 cycles
 E2(B2PLYPD3) =    -0.2472613909D+00 E(B2PLYPD3) =    -0.15825400465306D+03

 The electronic state is 1-A.
 Alpha  occ. eigenvalues --  -10.61220 -10.60208 -10.59625 -10.59027  -0.91758
 Alpha  occ. eigenvalues --   -0.83491  -0.74830  -0.67409  -0.54382  -0.50042
 Alpha  occ. eigenvalues --   -0.48119  -0.47070  -0.44404  -0.42637  -0.38784
 Alpha  occ. eigenvalues --   -0.37512  -0.35603
 Alpha virt. eigenvalues --    0.05720   0.06853   0.08384   0.08892   0.11141
 Alpha virt. eigenvalues --    0.11919   0.12833   0.13694   0.15128   0.15415
 Alpha virt. eigenvalues --    0.15975   0.16241   0.19091   0.19722   0.21381

 Mulliken charges:
               1
     1  C   -0.147341
     2  C   -0.041291
     3  H    0.039292
     4  H    0.044844
     5  H    0.053592
     6  C   -0.200654
     7  H    0.044495
     8  H    0.000008
     9  C   -0.181109
    10  H    0.033005
    11  H    0.176216
    12  H    0.056870
    13  H    0.036839
    14  H    0.085234
 Sum of Mulliken charges =   0.00000

 Dipole moment (field-independent basis, Debye):
    X=              0.1783    Y=             -0.0678    Z=             -0.4462  Tot=              0.4853
 Quadrupole moment (field-independent basis, Debye-Ang):
   XX=            -29.4719   YY=            -28.9441   ZZ=            -27.9702
   XY=             -0.4471   XZ=              0.1324   YZ=              0.2692

 Normal termination of Gaussian 09 at Wed Aug 26 22:00:13 2020.
