 Gaussian 09, Revision D.01,
 Gaussian 09:  ES64L-G09RevD.01 24-Apr-2013

 --------------------
 #p B2PLYPD3/Def2QZVP
 --------------------

 ----------
 butane_opt
 ----------
 Symbolic Z-matrix:
 Charge =  0 Multiplicity = 1

                         Standard orientation:
 ---------------------------------------------------------------------
 Center     Atomic      Atomic             Coordinates (Angstroms)
 Number     Number       Type             X           Y           Z
 ---------------------------------------------------------------------
      1          6           0       -1.929776    0.087805   -0.141755
      2          6           0       -0.569467   -0.543048    0.128395
      3          1           0       -2.793189   -0.557296   -0.104453
      4          1           0       -1.947089    0.913307   -1.232564
      5          1           0       -2.262463    0.431467    0.507220
      6          6           0        0.570398    0.613586    0.146798
      7          1           0       -0.691192   -0.998193   -0.650032
      8          1           0       -0.675831   -1.238672    1.191054
      9          6           0        1.971662   -0.189314   -0.148216
     10          1           0        0.277739    1.684256    1.379087
     11          1           0        0.541357    0.982782   -0.466255
     12          1           0        2.375038   -0.880501    0.871940
     13          1           0        2.778028    0.607118   -0.516113
     14          1           0        2.140707   -0.758440   -0.891210
 ---------------------------------------------------------------------

 SCF Done:  E(RB2PLYPD3) =  -157.570655862     A.U. after   11 cycles
 E2(B2PLYPD3) =    -0.2536807316D+00 E(B2PLYPD3) =    -0.15782433659367D+03

 The electronic state is 1-A.
 Alpha  occ. eigenvalues --  -10.64015 -10.62687 -10.61585 -10.59036  -0.92842
 Alpha  occ. eigenvalues --   -0.86288  -0.75948  -0.72869  -0.55257  -0.49123
 Alpha  occ. eigenvalues --   -0.47582  -0.45426  -0.41568  -0.40679  -0.37900
 Alpha  occ. eigenvalues --   -0.36782  -0.34800
 Alpha virt. eigenvalues --    0.02076   0.06053   0.06224   0.07534   0.10566
 Alpha virt. eigenvalues --    0.11231   0.11469   0.12878   0.14169   0.15172
 Alpha virt. eigenvalues --    0.15417   0.16551   0.18009   0.19407   0.20159

 Mulliken charges:
               1
     1  C   -0.296027
     2  C   -0.090724
     3  H    0.031137
     4  H    0.017574
     5  H    0.186719
     6  C   -0.503695
     7  H    0.160361
     8  H    0.027139
     9  C   -0.154962
    10  H    0.008381
    11  H    0.479185
    12  H    0.035457
    13  H    0.016442
    14  H    0.083012
 Sum of Mulliken charges =   0.00000

 Dipole moment (field-independent basis, Debye):
    X=             -0.4147    Y=             -0.3041    Z=             -0.4901  Tot=              0.7104
 Quadrupole moment (field-independent basis, Debye-Ang):
   XX=            -29.5436   YY=            -29.6947   ZZ=            -28.3158
   XY=             -0.0581   XZ=             -2.4843   YZ=             -0.6334

 Normal termination of Gaussian 09 at Wed Aug 26 20:38:37 2020.
