 Gaussian 09, Revision D.01,
 Gaussian 09:  ES64L-G09RevD.01 24-Apr-2013

 --------------------
 #p B2PLYPD3/Def2QZVP
 --------------------

 ----------
 butane_opt
 ----------
 Symbolic Z-matrix:
 Charge =  0 Multiplicity = 1

                         Standard orientation:
 ---------------------------------------------------------------------
 Center     Atomic      Atomic             Coordinates (Angstroms)
 Number     Number       Type             X           Y           Z
 ---------------------------------------------------------------------
      1          6           0        1.901350    0.091495    0.122244
      2          6           0        0.575002   -0.540764   -0.146652
      3          1           0        2.679820   -0.710577   -0.286075
      4          1           0        2.042380    0.866430    1.111401
      5          1           0        2.068935    0.656195   -0.599791
      6          6           0       -0.517246    0.525070    0.068671
      7          1           0        0.412769   -1.050561    0.431603
      8          1           0        0.394681   -0.960161   -1.102991
      9          6           0       -1.937626   -0.165541    0.049866
     10          1           0       -0.381666    1.378173   -0.889080
     11          1           0       -0.320567    0.937899    0.897151
     12          1           0       -1.615400   -0.353131   -0.631098
     13          1           0       -2.815318    0.965667   -0.614868
     14          1           0       -2.594512   -1.191492    1.118978
 ---------------------------------------------------------------------

 SCF Done:  E(RB2PLYPD3) =  -157.594431844     A.U. after   12 cycles
 E2(B2PLYPD3) =    -0.2561033194D+00 E(B2PLYPD3) =    -0.15785053516391D+03

 The electronic state is 1-A.
 Alpha  occ. eigenvalues --  -10.64665 -10.62186 -10.60990 -10.57253  -0.95652
 Alpha  occ. eigenvalues --   -0.86738  -0.75448  -0.70202  -0.56922  -0.49126
 Alpha  occ. eigenvalues --   -0.46882  -0.45649  -0.42587  -0.40987  -0.39172
 Alpha  occ. eigenvalues --   -0.37159  -0.32761
 Alpha virt. eigenvalues --    0.00876   0.03904   0.05901   0.07855   0.09673
 Alpha virt. eigenvalues --    0.10529   0.12120   0.12373   0.14090   0.15262
 Alpha virt. eigenvalues --    0.15879   0.15968   0.18074   0.18895   0.20271

 Mulliken charges:
               1
     1  C   -0.155218
     2  C   -0.295199
     3  H    0.025274
     4  H    0.048098
     5  H    0.080979
     6  C   -0.041372
     7  H    0.272077
     8  H    0.047903
     9  C   -0.508225
    10  H    0.014820
    11  H    0.072865
    12  H    0.372444
    13  H   -0.010747
    14  H    0.076301
 Sum of Mulliken charges =   0.00000

 Dipole moment (field-independent basis, Debye):
    X=              0.8877    Y=             -0.2962    Z=             -0.1585  Tot=              0.9491
 Quadrupole moment (field-independent basis, Debye-Ang):
   XX=            -33.4714   YY=            -28.8755   ZZ=            -27.8766
   XY=              1.7416   XZ=             -1.4893   YZ=             -0.5043

 Normal termination of Gaussian 09 at Wed Aug 26 18:31:00 2020.
