 Gaussian 09, Revision D.01,
 Gaussian 09:  ES64L-G09RevD.01 24-Apr-2013

 --------------------
 #p B2PLYPD3/Def2QZVP
 --------------------

 ----------
 butane_opt
 ----------
 Symbolic Z-matrix:
 Charge =  0 Multiplicity = 1

                         Standard orientation:
 ---------------------------------------------------------------------
 Center     Atomic      Atomic             Coordinates (Angstroms)
 Number     Number       Type             X           Y           Z
 ---------------------------------------------------------------------
      1          6           0        1.941875    0.115576    0.007634
      2          6           0        0.571760   -0.532031    0.076612
      3          1           0        2.734870   -0.653880   -0.586951
      4          1           0        2.577841    1.301433    1.097653
      5          1           0        1.738642    0.288651   -0.603328
      6          6           0       -0.610969    0.456446   -0.158619
      7          1           0        0.128734   -1.210664    1.123434
      8          1           0        0.605099   -1.126260   -0.694103
      9          6           0       -1.874416   -0.124839    0.016612
     10          1           0       -0.468786    1.071414   -1.040654
     11          1           0       -0.551818    1.357652    0.746470
     12          1           0       -2.109188   -0.519108   -0.750889
     13          1           0       -2.655407    0.673144    0.035890
     14          1           0       -2.169488   -0.673295    1.019044
 ---------------------------------------------------------------------

 SCF Done:  E(RB2PLYPD3) =  -157.570199092     A.U. after   12 cycles
 E2(B2PLYPD3) =    -0.2548091812D+00 E(B2PLYPD3) =    -0.15782500827303D+03

 The electronic state is 1-A.
 Alpha  occ. eigenvalues --  -10.63113 -10.62783 -10.62159 -10.58374  -0.96272
 Alpha  occ. eigenvalues --   -0.89846  -0.75013  -0.66772  -0.55244  -0.50218
 Alpha  occ. eigenvalues --   -0.50066  -0.48185  -0.43156  -0.38987  -0.37110
 Alpha  occ. eigenvalues --   -0.36402  -0.34575
 Alpha virt. eigenvalues --    0.01120   0.05442   0.06595   0.07639   0.09290
 Alpha virt. eigenvalues --    0.10523   0.11883   0.12586   0.14670   0.15444
 Alpha virt. eigenvalues --    0.15825   0.16292   0.17941   0.18878   0.20919

 Mulliken charges:
               1
     1  C   -0.788454
     2  C   -0.035915
     3  H    0.052982
     4  H    0.039400
     5  H    0.636217
     6  C   -0.026181
     7  H    0.008711
     8  H    0.081558
     9  C   -0.155829
    10  H    0.035766
    11  H    0.002286
    12  H    0.076106
    13  H    0.024419
    14  H    0.048934
 Sum of Mulliken charges =   0.00000

 Dipole moment (field-independent basis, Debye):
    X=             -0.6844    Y=             -0.0622    Z=             -1.0625  Tot=              1.2654
 Quadrupole moment (field-independent basis, Debye-Ang):
   XX=            -30.4359   YY=            -29.9657   ZZ=            -27.9931
   XY=              0.0590   XZ=             -1.2846   YZ=              0.7857

 Normal termination of Gaussian 09 at Wed Aug 26 11:35:01 2020.
