 Gaussian 09, Revision D.01,
 Gaussian 09:  ES64L-G09RevD.01 24-Apr-2013

 --------------------
 #p B2PLYPD3/Def2QZVP
 --------------------

 ----------
 butane_opt
 ----------
 Symbolic Z-matrix:
 Charge =  0 Multiplicity = 1

                         Standard orientation:
 ---------------------------------------------------------------------
 Center     Atomic      Atomic             Coordinates (Angstroms)
 Number     Number       Type             X           Y           Z
 ---------------------------------------------------------------------
      1          6           0        1.917280    0.060755    0.069048
      2          6           0        0.610865   -0.488409   -0.144017
      3          1           0        2.739072   -0.697208   -0.031732
      4          1           0        1.992191    0.915750    1.154927
      5          1           0        2.239099    0.602415   -0.675405
      6          6           0       -0.518355    0.566988   -0.000931
      7          1           0        0.514539   -1.181463    0.681083
      8          1           0        0.455807   -1.127667   -1.078133
      9          6           0       -2.012605   -0.115080    0.058274
     10          1           0       -0.548445    1.316214   -0.897072
     11          1           0       -0.299304    1.166357    0.781374
     12          1           0       -2.139635   -0.408911   -0.624858
     13          1           0       -2.639003    0.468607   -0.311426
     14          1           0       -2.297431   -1.199621    1.106996
 ---------------------------------------------------------------------

 SCF Done:  E(RB2PLYPD3) =  -157.785320169     A.U. after   11 cycles
 E2(B2PLYPD3) =    -0.2503051880D+00 E(B2PLYPD3) =    -0.15803562535732D+03

 The electronic state is 1-A.
 Alpha  occ. eigenvalues --  -10.61871 -10.61071 -10.60689 -10.58956  -0.92667
 Alpha  occ. eigenvalues --   -0.88551  -0.76749  -0.67601  -0.53317  -0.50317
 Alpha  occ. eigenvalues --   -0.48490  -0.44754  -0.42033  -0.41995  -0.38072
 Alpha  occ. eigenvalues --   -0.37068  -0.36076
 Alpha virt. eigenvalues --    0.04547   0.05464   0.07132   0.07851   0.10453
 Alpha virt. eigenvalues --    0.10913   0.12138   0.13196   0.13874   0.15552
 Alpha virt. eigenvalues --    0.16040   0.16577   0.19140   0.19258   0.21354

 Mulliken charges:
               1
     1  C   -0.148722
     2  C   -0.012814
     3  H    0.039821
     4  H    0.012395
     5  H    0.050872
     6  C   -0.024908
     7  H    0.042675
     8  H    0.022008
     9  C   -0.464991
    10  H   -0.003093
    11  H    0.061737
    12  H    0.332418
    13  H    0.056455
    14  H    0.036147
 Sum of Mulliken charges =   0.00000

 Dipole moment (field-independent basis, Debye):
    X=              0.0971    Y=             -0.0173    Z=             -0.9086  Tot=              0.9139
 Quadrupole moment (field-independent basis, Debye-Ang):
   XX=            -29.7173   YY=            -28.8341   ZZ=            -28.4369
   XY=             -0.2456   XZ=              1.0131   YZ=             -0.2565

 Normal termination of Gaussian 09 at Wed Aug 26 21:46:32 2020.
