 Gaussian 09, Revision D.01,
 Gaussian 09:  ES64L-G09RevD.01 24-Apr-2013

 --------------------
 #p B2PLYPD3/Def2QZVP
 --------------------

 ----------
 butane_opt
 ----------
 Symbolic Z-matrix:
 Charge =  0 Multiplicity = 1

                         Standard orientation:
 ---------------------------------------------------------------------
 Center     Atomic      Atomic             Coordinates (Angstroms)
 Number     Number       Type             X           Y           Z
 ---------------------------------------------------------------------
      1          6           0        1.944262    0.090172    0.122780
      2          6           0        0.572286   -0.600666   -0.099637
      3          1           0        2.659044   -0.447677   -0.120921
      4          1           0        2.258795    0.932967    1.090505
      5          1           0        2.434172    0.753415   -0.813897
      6          6           0       -0.559191    0.479277   -0.170637
      7          1           0        0.423234   -1.181067    0.919879
      8          1           0        0.424369   -1.215364   -0.952679
      9          6           0       -2.008513   -0.056493    0.088165
     10          1           0       -0.409063    1.136250   -1.140199
     11          1           0       -0.447667    1.312134    0.737900
     12          1           0       -2.541250   -0.573378   -0.810236
     13          1           0       -2.720803    0.571545    0.397600
     14          1           0       -1.773892   -0.762566    1.048017
 ---------------------------------------------------------------------

 SCF Done:  E(RB2PLYPD3) =  -157.990507950     A.U. after   11 cycles
 E2(B2PLYPD3) =    -0.2515864797D+00 E(B2PLYPD3) =    -0.15824209442974D+03

 The electronic state is 1-A.
 Alpha  occ. eigenvalues --  -10.63571 -10.63154 -10.62185 -10.61321  -0.89669
 Alpha  occ. eigenvalues --   -0.82618  -0.73866  -0.65062  -0.53373  -0.50747
 Alpha  occ. eigenvalues --   -0.47288  -0.45117  -0.42523  -0.39661  -0.37953
 Alpha  occ. eigenvalues --   -0.36682  -0.35018
 Alpha virt. eigenvalues --    0.05396   0.05970   0.07928   0.08113   0.09662
 Alpha virt. eigenvalues --    0.11582   0.11952   0.13479   0.14369   0.14784
 Alpha virt. eigenvalues --    0.15577   0.16373   0.18987   0.19734   0.21444

 Mulliken charges:
               1
     1  C   -0.177854
     2  C   -0.032177
     3  H    0.091683
     4  H    0.052019
     5  H   -0.012871
     6  C   -0.047383
     7  H    0.028522
     8  H    0.067621
     9  C   -0.146799
    10  H    0.033706
    11  H    0.014324
    12  H    0.032846
    13  H    0.062047
    14  H    0.034316
 Sum of Mulliken charges =   0.00000

 Dipole moment (field-independent basis, Debye):
    X=              0.0818    Y=             -0.1489    Z=             -0.1776  Tot=              0.2458
 Quadrupole moment (field-independent basis, Debye-Ang):
   XX=            -28.6649   YY=            -30.1161   ZZ=            -28.7619
   XY=             -0.6588   XZ=             -0.1982   YZ=              0.9061

 Normal termination of Gaussian 09 at Wed Aug 26 12:24:32 2020.
