 Gaussian 09, Revision D.01,
 Gaussian 09:  ES64L-G09RevD.01 24-Apr-2013

 --------------------
 #p B2PLYPD3/Def2QZVP
 --------------------

 ----------
 butane_opt
 ----------
 Symbolic Z-matrix:
 Charge =  0 Multiplicity = 1

                         Standard orientation:
 ---------------------------------------------------------------------
 Center     Atomic      Atomic             Coordinates (Angstroms)
 Number     Number       Type             X           Y           Z
 ---------------------------------------------------------------------
      1          6           0        1.962110   -0.153596   -0.099715
      2          6           0        0.479002    0.563321    0.165216
      3          1           0        2.698333    0.600703   -0.463463
      4          1           0        1.798066   -0.668146   -0.918357
      5          1           0        2.376767   -0.838519    0.821989
      6          6           0       -0.570935   -0.483371    0.101923
      7          1           0        0.384735    1.099174   -0.654108
      8          1           0        0.450685    1.239997    1.018674
      9          6           0       -1.884198    0.115293   -0.105140
     10          1           0       -0.581741   -1.066720    0.985276
     11          1           0       -0.300921   -1.123578   -0.775596
     12          1           0       -1.915636    0.562580    0.636741
     13          1           0       -2.722033   -0.697583   -0.005549
     14          1           0       -2.104122    0.642210   -1.019312
 ---------------------------------------------------------------------

 SCF Done:  E(RB2PLYPD3) =  -158.023135457     A.U. after   11 cycles
 E2(B2PLYPD3) =    -0.2464680202D+00 E(B2PLYPD3) =    -0.15826960347771D+03

 The electronic state is 1-A.
 Alpha  occ. eigenvalues --  -10.60651 -10.59608 -10.59361 -10.57151  -0.93364
 Alpha  occ. eigenvalues --   -0.83619  -0.73769  -0.67621  -0.56614  -0.50676
 Alpha  occ. eigenvalues --   -0.48632  -0.47046  -0.43230  -0.42396  -0.39404
 Alpha  occ. eigenvalues --   -0.38160  -0.35879
 Alpha virt. eigenvalues --    0.05841   0.06929   0.08451   0.08756   0.11061
 Alpha virt. eigenvalues --    0.11864   0.12972   0.13710   0.15238   0.15438
 Alpha virt. eigenvalues --    0.16287   0.16602   0.19190   0.20014   0.21990

 Mulliken charges:
               1
     1  C   -0.180377
     2  C   -0.079532
     3  H    0.037169
     4  H    0.078936
     5  H    0.038884
     6  C   -0.030910
     7  H    0.066456
     8  H    0.030307
     9  C   -0.229491
    10  H    0.044693
    11  H    0.022569
    12  H    0.133969
    13  H    0.020569
    14  H    0.046756
 Sum of Mulliken charges =   0.00000

 Dipole moment (field-independent basis, Debye):
    X=             -0.1419    Y=              0.1836    Z=             -0.1194  Tot=              0.2609
 Quadrupole moment (field-independent basis, Debye-Ang):
   XX=            -30.3947   YY=            -28.9341   ZZ=            -27.3280
   XY=              0.0885   XZ=             -0.4245   YZ=             -0.3984

 Normal termination of Gaussian 09 at Wed Aug 26 22:31:50 2020.
