 Gaussian 09, Revision D.01,
 Gaussian 09:  ES64L-G09RevD.01 24-Apr-2013

 --------------------
 #p B2PLYPD3/Def2QZVP
 --------------------

 ----------
 butane_opt
 ----------
 Symbolic Z-matrix:
 Charge =  0 Multiplicity = 1

                         Standard orientation:
 ---------------------------------------------------------------------
 Center     Atomic      Atomic             Coordinates (Angstroms)
 Number     Number       Type             X           Y           Z
 ---------------------------------------------------------------------
      1          6           0       -1.991829   -0.218379   -0.108850
      2          6           0       -0.569799    0.664192    0.125086
      3          1           0       -2.680821    0.286047   -1.000375
      4          1           0       -2.638691   -1.033629    1.087526
      5          1           0       -1.993735   -0.496591   -0.775548
      6          6           0        0.588631   -0.482439    0.152806
      7          1           0       -0.675626    1.830130    1.150467
      8          1           0       -0.347051    0.932473   -0.564002
      9          6           0        1.961181    0.058724   -0.124123
     10          1           0        0.484270   -1.270100   -0.611033
     11          1           0        0.817900   -1.153025    1.163623
     12          1           0        1.931399    0.739073   -1.225461
     13          1           0        2.967293   -0.865551   -0.174449
     14          1           0        2.205957    0.898580    0.679740
 ---------------------------------------------------------------------

 SCF Done:  E(RB2PLYPD3) =  -157.491474257     A.U. after   11 cycles
 E2(B2PLYPD3) =    -0.2596197413D+00 E(B2PLYPD3) =    -0.15775109399792D+03

 The electronic state is 1-A.
 Alpha  occ. eigenvalues --  -10.65751 -10.64980 -10.63809 -10.63491  -0.92872
 Alpha  occ. eigenvalues --   -0.86583  -0.78068  -0.65430  -0.52883  -0.49048
 Alpha  occ. eigenvalues --   -0.46559  -0.43091  -0.39965  -0.38635  -0.37928
 Alpha  occ. eigenvalues --   -0.35833  -0.34113
 Alpha virt. eigenvalues --    0.01969   0.04121   0.05086   0.06866   0.08340
 Alpha virt. eigenvalues --    0.10145   0.10715   0.12011   0.12900   0.15107
 Alpha virt. eigenvalues --    0.16312   0.16706   0.17187   0.17925   0.19471

 Mulliken charges:
               1
     1  C   -0.586839
     2  C   -0.430482
     3  H    0.017085
     4  H    0.064412
     5  H    0.487872
     6  C   -0.004898
     7  H    0.037419
     8  H    0.412166
     9  C   -0.184527
    10  H    0.052460
    11  H    0.016887
    12  H    0.012259
    13  H    0.044137
    14  H    0.062047
 Sum of Mulliken charges =   0.00000

 Dipole moment (field-independent basis, Debye):
    X=              0.0672    Y=             -0.3912    Z=             -0.6976  Tot=              0.8026
 Quadrupole moment (field-independent basis, Debye-Ang):
   XX=            -32.4533   YY=            -29.7451   ZZ=            -28.3425
   XY=              0.4870   XZ=              1.4219   YZ=             -0.0221

 Normal termination of Gaussian 09 at Wed Aug 26 15:39:56 2020.
