 Gaussian 09, Revision D.01,
 Gaussian 09:  ES64L-G09RevD.01 24-Apr-2013

 --------------------
 #p B2PLYPD3/Def2QZVP
 --------------------

 ----------
 butane_opt
 ----------
 Symbolic Z-matrix:
 Charge =  0 Multiplicity = 1

                         Standard orientation:
 ---------------------------------------------------------------------
 Center     Atomic      Atomic             Coordinates (Angstroms)
 Number     Number       Type             X           Y           Z
 ---------------------------------------------------------------------
      1          6           0       -2.003120    0.017180   -0.177550
      2          6           0       -0.553052    0.302599    0.427644
      3          1           0       -2.775359    0.932138   -0.333662
      4          1           0       -2.309657   -0.879132    0.367040
      5          1           0       -1.514733   -0.398412   -1.188674
      6          6           0        0.537993   -0.556859   -0.092565
      7          1           0       -0.698673    0.570293    1.514881
      8          1           0       -0.478003    0.965012   -0.107980
      9          6           0        1.966170    0.186681   -0.104400
     10          1           0        0.095330   -0.768004   -1.007035
     11          1           0        0.800820   -1.504569    0.620048
     12          1           0        2.297003    1.698886   -0.906299
     13          1           0        2.703499   -0.621102    0.078644
     14          1           0        2.191834    0.307278    0.644267
 ---------------------------------------------------------------------

 SCF Done:  E(RB2PLYPD3) =  -157.744236431     A.U. after   12 cycles
 E2(B2PLYPD3) =    -0.2551877539D+00 E(B2PLYPD3) =    -0.15799942418522D+03

 The electronic state is 1-A.
 Alpha  occ. eigenvalues --  -10.63393 -10.62732 -10.62541 -10.58171  -0.94008
 Alpha  occ. eigenvalues --   -0.86324  -0.75139  -0.67881  -0.56057  -0.50756
 Alpha  occ. eigenvalues --   -0.47052  -0.45920  -0.43319  -0.40003  -0.38293
 Alpha  occ. eigenvalues --   -0.36082  -0.34063
 Alpha virt. eigenvalues --    0.00780   0.05399   0.06734   0.08638   0.10259
 Alpha virt. eigenvalues --    0.10903   0.11680   0.13257   0.13792   0.14470
 Alpha virt. eigenvalues --    0.15542   0.16124   0.18568   0.19295   0.19880

 Mulliken charges:
               1
     1  C   -0.170789
     2  C   -0.235689
     3  H    0.066021
     4  H    0.057044
     5  H    0.019712
     6  C   -0.019459
     7  H    0.034997
     8  H    0.218317
     9  C   -0.370087
    10  H    0.066827
    11  H    0.009653
    12  H    0.013706
    13  H    0.029679
    14  H    0.280068
 Sum of Mulliken charges =   0.00000

 Dipole moment (field-independent basis, Debye):
    X=             -0.1630    Y=             -0.1567    Z=              0.7689  Tot=              0.8015
 Quadrupole moment (field-independent basis, Debye-Ang):
   XX=            -30.6182   YY=            -29.0539   ZZ=            -29.5194
   XY=             -1.7759   XZ=              1.8492   YZ=             -1.1596

 Normal termination of Gaussian 09 at Wed Aug 26 13:28:46 2020.
