 Gaussian 09, Revision D.01,
 Gaussian 09:  ES64L-G09RevD.01 24-Apr-2013

 --------------------
 #p B2PLYPD3/Def2QZVP
 --------------------

 ----------
 butane_opt
 ----------
 Symbolic Z-matrix:
 Charge =  0 Multiplicity = 1

                         Standard orientation:
 ---------------------------------------------------------------------
 Center     Atomic      Atomic             Coordinates (Angstroms)
 Number     Number       Type             X           Y           Z
 ---------------------------------------------------------------------
      1          6           0       -1.972148   -0.191484   -0.103643
      2          6           0       -0.535959    0.555641    0.018253
      3          1           0       -2.710504    0.302320   -0.480309
      4          1           0       -2.251306   -0.271509    0.566945
      5          1           0       -1.744238   -1.250475   -0.866611
      6          6           0        0.595656   -0.358478    0.426601
      7          1           0       -0.479901    1.551307    0.716309
      8          1           0        0.080396    0.830745   -0.879617
      9          6           0        1.872598    0.070577   -0.168629
     10          1           0        0.489138   -1.013586   -0.037769
     11          1           0        0.499485   -0.779244    1.466190
     12          1           0        1.294812    0.321797   -1.166199
     13          1           0        2.744307   -1.106148   -0.708937
     14          1           0        2.316932    0.957252    0.354506
 ---------------------------------------------------------------------

 SCF Done:  E(RB2PLYPD3) =  -157.677343881     A.U. after   11 cycles
 E2(B2PLYPD3) =    -0.2539098822D+00 E(B2PLYPD3) =    -0.15793125376295D+03

 The electronic state is 1-A.
 Alpha  occ. eigenvalues --  -10.65241 -10.62764 -10.58878 -10.57240  -0.95331
 Alpha  occ. eigenvalues --   -0.87525  -0.73550  -0.69345  -0.56502  -0.51884
 Alpha  occ. eigenvalues --   -0.49728  -0.46349  -0.41635  -0.40811  -0.38072
 Alpha  occ. eigenvalues --   -0.37591  -0.34846
 Alpha virt. eigenvalues --    0.03529   0.05905   0.07520   0.08389   0.09377
 Alpha virt. eigenvalues --    0.11203   0.12181   0.13937   0.14297   0.15248
 Alpha virt. eigenvalues --    0.16032   0.17206   0.17975   0.19315   0.20704

 Mulliken charges:
               1
     1  C   -0.422542
     2  C   -0.008582
     3  H    0.050161
     4  H    0.322177
     5  H    0.034442
     6  C   -0.263695
     7  H    0.009523
     8  H    0.029167
     9  C   -0.163760
    10  H    0.262573
    11  H    0.028794
    12  H    0.038132
    13  H    0.008401
    14  H    0.075209
 Sum of Mulliken charges =   0.00000

 Dipole moment (field-independent basis, Debye):
    X=             -0.7688    Y=              0.0543    Z=              0.1087  Tot=              0.7784
 Quadrupole moment (field-independent basis, Debye-Ang):
   XX=            -29.9925   YY=            -29.2467   ZZ=            -29.0901
   XY=              0.3900   XZ=             -0.3379   YZ=              1.1055

 Normal termination of Gaussian 09 at Wed Aug 26 12:17:54 2020.
