 Gaussian 09, Revision D.01,
 Gaussian 09:  ES64L-G09RevD.01 24-Apr-2013

 --------------------
 #p B2PLYPD3/Def2QZVP
 --------------------

 ----------
 butane_opt
 ----------
 Symbolic Z-matrix:
 Charge =  0 Multiplicity = 1

                         Standard orientation:
 ---------------------------------------------------------------------
 Center     Atomic      Atomic             Coordinates (Angstroms)
 Number     Number       Type             X           Y           Z
 ---------------------------------------------------------------------
      1          6           0        1.935677    0.150447   -0.088201
      2          6           0        0.537637   -0.554298    0.187896
      3          1           0        2.753201   -0.733666   -0.651206
      4          1           0        2.313362    1.004422    0.833414
      5          1           0        1.754092    0.609863   -0.952685
      6          6           0       -0.531071    0.441750    0.097955
      7          1           0        0.176644   -1.141743    1.091320
      8          1           0        0.495105   -0.806855   -0.474937
      9          6           0       -1.958624   -0.078125   -0.175325
     10          1           0       -0.320613    0.817660   -0.725597
     11          1           0       -0.600520    1.373565    1.040873
     12          1           0       -1.717930   -0.737375   -0.855887
     13          1           0       -2.831460    0.770762   -0.274391
     14          1           0       -1.923594   -0.915279    0.835142
 ---------------------------------------------------------------------

 SCF Done:  E(RB2PLYPD3) =  -157.713449702     A.U. after   11 cycles
 E2(B2PLYPD3) =    -0.2531050709D+00 E(B2PLYPD3) =    -0.15796655477284D+03

 The electronic state is 1-A.
 Alpha  occ. eigenvalues --  -10.64596 -10.62720 -10.60320 -10.58052  -0.96963
 Alpha  occ. eigenvalues --   -0.84022  -0.73361  -0.67998  -0.58781  -0.51099
 Alpha  occ. eigenvalues --   -0.47932  -0.45214  -0.42950  -0.41523  -0.37438
 Alpha  occ. eigenvalues --   -0.36670  -0.35228
 Alpha virt. eigenvalues --    0.04711   0.05480   0.08122   0.08581   0.10219
 Alpha virt. eigenvalues --    0.11065   0.11346   0.13017   0.13159   0.14992
 Alpha virt. eigenvalues --    0.15962   0.16339   0.18859   0.19241   0.20185

 Mulliken charges:
               1
     1  C   -0.165595
     2  C   -0.619000
     3  H    0.024245
     4  H    0.055865
     5  H    0.089979
     6  C   -0.066519
     7  H    0.076102
     8  H    0.531319
     9  C   -0.188333
    10  H    0.096374
    11  H   -0.007711
    12  H    0.083848
    13  H    0.086742
    14  H    0.002683
 Sum of Mulliken charges =   0.00000

 Dipole moment (field-independent basis, Debye):
    X=             -0.1200    Y=              0.1615    Z=             -0.8959  Tot=              0.9182
 Quadrupole moment (field-independent basis, Debye-Ang):
   XX=            -31.6132   YY=            -29.7487   ZZ=            -28.2758
   XY=             -0.8789   XZ=             -0.2037   YZ=              0.4217

 Normal termination of Gaussian 09 at Wed Aug 26 14:24:13 2020.
