 Gaussian 09, Revision D.01,
 Gaussian 09:  ES64L-G09RevD.01 24-Apr-2013

 --------------------
 #p B2PLYPD3/Def2QZVP
 --------------------

 ----------
 butane_opt
 ----------
 Symbolic Z-matrix:
 Charge =  0 Multiplicity = 1

                         Standard orientation:
 ---------------------------------------------------------------------
 Center     Atomic      Atomic             Coordinates (Angstroms)
 Number     Number       Type             X           Y           Z
 ---------------------------------------------------------------------
      1          6           0       -1.887285   -0.097061    0.035888
      2          6           0       -0.599065    0.444870   -0.007093
      3          1           0       -2.736828    0.818328   -0.101808
      4          1           0       -2.126834   -0.854381    0.965781
      5          1           0       -1.984550   -0.640979   -0.781472
      6          6           0        0.505095   -0.541494   -0.010572
      7          1           0       -0.348755    1.042991    0.774181
      8          1           0       -0.573971    1.333031   -1.039859
      9          6           0        1.986080    0.130563    0.034566
     10          1           0        0.335120   -1.177307   -0.935506
     11          1           0        0.359827   -1.087819    0.831730
     12          1           0        1.986934    0.653400   -0.664739
     13          1           0        2.784403   -0.611670   -0.415192
     14          1           0        2.275696    0.903139    1.050149
 ---------------------------------------------------------------------

 SCF Done:  E(RB2PLYPD3) =  -157.959610011     A.U. after   11 cycles
 E2(B2PLYPD3) =    -0.2494980322D+00 E(B2PLYPD3) =    -0.15820910804347D+03

 The electronic state is 1-A.
 Alpha  occ. eigenvalues --  -10.61173 -10.61145 -10.61065 -10.60972  -0.93547
 Alpha  occ. eigenvalues --   -0.84102  -0.74528  -0.66508  -0.54540  -0.49164
 Alpha  occ. eigenvalues --   -0.48744  -0.46976  -0.43002  -0.41814  -0.39100
 Alpha  occ. eigenvalues --   -0.36940  -0.35293
 Alpha virt. eigenvalues --    0.05202   0.06019   0.07005   0.08196   0.10578
 Alpha virt. eigenvalues --    0.11470   0.12714   0.12813   0.14715   0.15293
 Alpha virt. eigenvalues --    0.15639   0.15925   0.19032   0.19688   0.21123

 Mulliken charges:
               1
     1  C   -0.151023
     2  C   -0.019353
     3  H    0.037179
     4  H    0.026932
     5  H    0.069016
     6  C   -0.040224
     7  H    0.052437
     8  H   -0.028442
     9  C   -0.256089
    10  H    0.020230
    11  H    0.060207
    12  H    0.155725
    13  H    0.037714
    14  H    0.035693
 Sum of Mulliken charges =   0.00000

 Dipole moment (field-independent basis, Debye):
    X=             -0.0023    Y=             -0.1131    Z=             -0.1300  Tot=              0.1723
 Quadrupole moment (field-independent basis, Debye-Ang):
   XX=            -30.6335   YY=            -29.3480   ZZ=            -28.4341
   XY=              0.5402   XZ=             -0.3909   YZ=              0.4926

 Normal termination of Gaussian 09 at Wed Aug 26 21:45:41 2020.
