 Gaussian 09, Revision D.01,
 Gaussian 09:  ES64L-G09RevD.01 24-Apr-2013

 --------------------
 #p B2PLYPD3/Def2QZVP
 --------------------

 ----------
 butane_opt
 ----------
 Symbolic Z-matrix:
 Charge =  0 Multiplicity = 1

                         Standard orientation:
 ---------------------------------------------------------------------
 Center     Atomic      Atomic             Coordinates (Angstroms)
 Number     Number       Type             X           Y           Z
 ---------------------------------------------------------------------
      1          6           0       -2.103465   -0.171789   -0.064115
      2          6           0       -0.521599    0.564696    0.088474
      3          1           0       -2.791815    0.444400   -0.245731
      4          1           0       -2.402349   -0.509066    0.714388
      5          1           0       -2.035674   -1.032610   -0.985346
      6          6           0        0.634062   -0.426351    0.234815
      7          1           0       -0.497003    1.213299    0.866688
      8          1           0       -0.241397    1.343184   -0.927874
      9          6           0        1.931147    0.056220   -0.157875
     10          1           0        0.510216   -0.972536   -0.442567
     11          1           0        0.924803   -1.310874    1.335046
     12          1           0        1.325432    0.429087   -0.896905
     13          1           0        2.859605   -0.967051   -0.763490
     14          1           0        2.707309    1.225510    0.737992
 ---------------------------------------------------------------------

 SCF Done:  E(RB2PLYPD3) =  -157.721948538     A.U. after   12 cycles
 E2(B2PLYPD3) =    -0.2579009489D+00 E(B2PLYPD3) =    -0.15797984948712D+03

 The electronic state is 1-A.
 Alpha  occ. eigenvalues --  -10.66896 -10.65230 -10.62773 -10.60686  -0.96016
 Alpha  occ. eigenvalues --   -0.85040  -0.75098  -0.66074  -0.53936  -0.50595
 Alpha  occ. eigenvalues --   -0.48232  -0.47662  -0.42419  -0.40683  -0.38523
 Alpha  occ. eigenvalues --   -0.34190  -0.33277
 Alpha virt. eigenvalues --    0.01327   0.04898   0.05877   0.06791   0.09087
 Alpha virt. eigenvalues --    0.09628   0.11664   0.13181   0.13548   0.14504
 Alpha virt. eigenvalues --    0.15869   0.16148   0.17973   0.18387   0.19661

 Mulliken charges:
               1
     1  C   -0.159263
     2  C   -0.069135
     3  H    0.062703
     4  H    0.093453
     5  H    0.027936
     6  C   -0.190812
     7  H    0.076017
     8  H    0.008014
     9  C   -0.167396
    10  H    0.206989
    11  H   -0.010265
    12  H    0.085133
    13  H    0.035122
    14  H    0.001504
 Sum of Mulliken charges =   0.00000

 Dipole moment (field-independent basis, Debye):
    X=             -1.2961    Y=              0.0288    Z=             -0.4291  Tot=              1.3656
 Quadrupole moment (field-independent basis, Debye-Ang):
   XX=            -30.7808   YY=            -29.9448   ZZ=            -29.9543
   XY=             -1.3643   XZ=             -0.8503   YZ=              1.3589

 Normal termination of Gaussian 09 at Wed Aug 26 10:59:26 2020.
