 Gaussian 09, Revision D.01,
 Gaussian 09:  ES64L-G09RevD.01 24-Apr-2013

 --------------------
 #p B2PLYPD3/Def2QZVP
 --------------------

 ----------
 butane_opt
 ----------
 Symbolic Z-matrix:
 Charge =  0 Multiplicity = 1

                         Standard orientation:
 ---------------------------------------------------------------------
 Center     Atomic      Atomic             Coordinates (Angstroms)
 Number     Number       Type             X           Y           Z
 ---------------------------------------------------------------------
      1          6           0       -2.020292   -0.122983   -0.062404
      2          6           0       -0.516034    0.624140   -0.095207
      3          1           0       -2.695165    0.447472    0.028867
      4          1           0       -2.341494   -0.647611    0.792585
      5          1           0       -2.014946   -1.200583   -1.026811
      6          6           0        0.660553   -0.420372    0.256258
      7          1           0       -0.475238    1.562572    0.900321
      8          1           0       -0.201400    0.842189   -0.885339
      9          6           0        1.853473    0.017946   -0.111585
     10          1           0        0.580298   -1.009951   -0.440805
     11          1           0        0.504946   -1.285273    1.517001
     12          1           0        1.578757    0.365260   -0.956448
     13          1           0        2.662801   -0.754528   -0.688085
     14          1           0        2.535240    1.088063    0.836339
 ---------------------------------------------------------------------

 SCF Done:  E(RB2PLYPD3) =  -157.691127455     A.U. after   12 cycles
 E2(B2PLYPD3) =    -0.2566516636D+00 E(B2PLYPD3) =    -0.15794777911885D+03

 The electronic state is 1-A.
 Alpha  occ. eigenvalues --  -10.64511 -10.64085 -10.62640 -10.62594  -0.98044
 Alpha  occ. eigenvalues --   -0.85314  -0.76635  -0.67077  -0.55252  -0.51265
 Alpha  occ. eigenvalues --   -0.49448  -0.47060  -0.43588  -0.41198  -0.36235
 Alpha  occ. eigenvalues --   -0.33941  -0.33776
 Alpha virt. eigenvalues --    0.03015   0.04844   0.06041   0.06937   0.08380
 Alpha virt. eigenvalues --    0.09428   0.11580   0.12575   0.13702   0.13978
 Alpha virt. eigenvalues --    0.15473   0.16567   0.17965   0.18795   0.19415

 Mulliken charges:
               1
     1  C   -0.179648
     2  C   -0.159422
     3  H    0.117391
     4  H    0.052133
     5  H    0.005096
     6  C   -0.118951
     7  H    0.022915
     8  H    0.169165
     9  C   -0.185829
    10  H    0.165794
    11  H   -0.025273
    12  H    0.100823
    13  H    0.045897
    14  H   -0.010091
 Sum of Mulliken charges =   0.00000

 Dipole moment (field-independent basis, Debye):
    X=             -0.6216    Y=             -0.0988    Z=             -0.9609  Tot=              1.1487
 Quadrupole moment (field-independent basis, Debye-Ang):
   XX=            -30.9314   YY=            -30.6691   ZZ=            -29.2347
   XY=             -1.0986   XZ=             -3.1320   YZ=              1.1436

 Normal termination of Gaussian 09 at Wed Aug 26 11:56:48 2020.
