 Gaussian 09, Revision D.01,
 Gaussian 09:  ES64L-G09RevD.01 24-Apr-2013

 --------------------
 #p B2PLYPD3/Def2QZVP
 --------------------

 ----------
 butane_opt
 ----------
 Symbolic Z-matrix:
 Charge =  0 Multiplicity = 1

                         Standard orientation:
 ---------------------------------------------------------------------
 Center     Atomic      Atomic             Coordinates (Angstroms)
 Number     Number       Type             X           Y           Z
 ---------------------------------------------------------------------
      1          6           0       -2.018468   -0.140671   -0.112855
      2          6           0       -0.618284    0.506446    0.152815
      3          1           0       -2.849041    0.662745   -0.300314
      4          1           0       -2.556611   -1.073510    0.848821
      5          1           0       -2.056363   -0.317242   -0.704134
      6          6           0        0.652847   -0.521838   -0.037694
      7          1           0       -0.514581    1.003049    1.143274
      8          1           0       -0.201713    1.199730   -0.674958
      9          6           0        1.981704    0.099812   -0.015131
     10          1           0        0.679559   -1.184784   -0.974918
     11          1           0        0.577056   -0.865873    0.632587
     12          1           0        2.266518    1.047203   -0.836402
     13          1           0        2.759130   -0.625242    0.280893
     14          1           0        1.909253    0.491424    0.662342
 ---------------------------------------------------------------------

 SCF Done:  E(RB2PLYPD3) =  -157.354455816     A.U. after   11 cycles
 E2(B2PLYPD3) =    -0.2497967264D+00 E(B2PLYPD3) =    -0.15760425254236D+03

 The electronic state is 1-A.
 Alpha  occ. eigenvalues --  -10.62966 -10.61217 -10.57810 -10.57539  -0.94390
 Alpha  occ. eigenvalues --   -0.89238  -0.77626  -0.70086  -0.56712  -0.52181
 Alpha  occ. eigenvalues --   -0.47651  -0.46646  -0.43615  -0.41736  -0.39785
 Alpha  occ. eigenvalues --   -0.38878  -0.33637
 Alpha virt. eigenvalues --    0.05166   0.05804   0.08396   0.08543   0.10216
 Alpha virt. eigenvalues --    0.10814   0.12404   0.13545   0.14323   0.15410
 Alpha virt. eigenvalues --    0.15820   0.16324   0.18734   0.19592   0.20504

 Mulliken charges:
               1
     1  C   -0.728735
     2  C   -0.006283
     3  H    0.068301
     4  H    0.039808
     5  H    0.547843
     6  C   -0.387111
     7  H    0.047181
     8  H    0.032567
     9  C   -0.389788
    10  H    0.042485
    11  H    0.359606
    12  H    0.030705
    13  H    0.050426
    14  H    0.292996
 Sum of Mulliken charges =   0.00000

 Dipole moment (field-independent basis, Debye):
    X=              0.1181    Y=             -0.0082    Z=              0.2797  Tot=              0.3037
 Quadrupole moment (field-independent basis, Debye-Ang):
   XX=            -29.4233   YY=            -29.1477   ZZ=            -27.4665
   XY=             -0.1573   XZ=              1.3608   YZ=             -0.4801

 Normal termination of Gaussian 09 at Wed Aug 26 12:19:23 2020.
