 Gaussian 09, Revision D.01,
 Gaussian 09:  ES64L-G09RevD.01 24-Apr-2013

 --------------------
 #p B2PLYPD3/Def2QZVP
 --------------------

 ----------
 butane_opt
 ----------
 Symbolic Z-matrix:
 Charge =  0 Multiplicity = 1

                         Standard orientation:
 ---------------------------------------------------------------------
 Center     Atomic      Atomic             Coordinates (Angstroms)
 Number     Number       Type             X           Y           Z
 ---------------------------------------------------------------------
      1          6           0        1.943819    0.053568   -0.153210
      2          6           0        0.550551   -0.445321    0.342290
      3          1           0        2.538280   -0.736692   -0.741190
      4          1           0        2.806499    0.926172    0.590211
      5          1           0        1.689407    0.432876   -1.113960
      6          6           0       -0.503566    0.555539    0.065867
      7          1           0        0.527984   -1.120228    1.431844
      8          1           0        0.444493   -1.151730   -0.412806
      9          6           0       -1.954566   -0.142071   -0.075821
     10          1           0       -0.244426    1.131808   -0.990758
     11          1           0       -0.713835    1.352485    0.967804
     12          1           0       -2.220211   -1.276345   -1.118342
     13          1           0       -2.811220    0.684017   -0.284692
     14          1           0       -2.234398   -0.372649    0.597133
 ---------------------------------------------------------------------

 SCF Done:  E(RB2PLYPD3) =  -157.797865505     A.U. after   11 cycles
 E2(B2PLYPD3) =    -0.2548746056D+00 E(B2PLYPD3) =    -0.15805274011016D+03

 The electronic state is 1-A.
 Alpha  occ. eigenvalues --  -10.65276 -10.63882 -10.63223 -10.62500  -0.91913
 Alpha  occ. eigenvalues --   -0.84318  -0.74345  -0.65532  -0.52735  -0.49538
 Alpha  occ. eigenvalues --   -0.48111  -0.44837  -0.41187  -0.39020  -0.37996
 Alpha  occ. eigenvalues --   -0.37045  -0.35546
 Alpha virt. eigenvalues --    0.04195   0.05067   0.06645   0.06910   0.08941
 Alpha virt. eigenvalues --    0.10573   0.11417   0.12797   0.13410   0.14612
 Alpha virt. eigenvalues --    0.15915   0.16794   0.18340   0.19227   0.20370

 Mulliken charges:
               1
     1  C   -0.171949
     2  C   -0.079873
     3  H    0.039209
     4  H    0.032097
     5  H    0.065637
     6  C   -0.015855
     7  H    0.028411
     8  H    0.091927
     9  C   -0.404118
    10  H    0.041389
    11  H    0.031351
    12  H   -0.002948
    13  H    0.042104
    14  H    0.302619
 Sum of Mulliken charges =   0.00000

 Dipole moment (field-independent basis, Debye):
    X=             -0.1508    Y=              0.0467    Z=              0.0220  Tot=              0.1594
 Quadrupole moment (field-independent basis, Debye-Ang):
   XX=            -31.4291   YY=            -30.1944   ZZ=            -28.6413
   XY=             -0.8657   XZ=             -2.1164   YZ=              0.4174

 Normal termination of Gaussian 09 at Wed Aug 26 22:52:05 2020.
