 Gaussian 09, Revision D.01,
 Gaussian 09:  ES64L-G09RevD.01 24-Apr-2013

 --------------------
 #p B2PLYPD3/Def2QZVP
 --------------------

 ----------
 butane_opt
 ----------
 Symbolic Z-matrix:
 Charge =  0 Multiplicity = 1

                         Standard orientation:
 ---------------------------------------------------------------------
 Center     Atomic      Atomic             Coordinates (Angstroms)
 Number     Number       Type             X           Y           Z
 ---------------------------------------------------------------------
      1          6           0       -2.094840   -0.171648   -0.132095
      2          6           0       -0.563464    0.609811    0.088426
      3          1           0       -2.695791    0.453585   -0.528340
      4          1           0       -2.557698   -0.983360    0.881752
      5          1           0       -1.748153   -0.492064   -0.839952
      6          6           0        0.625740   -0.486230    0.155618
      7          1           0       -0.384770    1.561561    1.176260
      8          1           0       -0.318037    0.660464   -0.366797
      9          6           0        1.959098    0.101494   -0.119649
     10          1           0        0.609203   -1.115271   -0.717123
     11          1           0        0.854402   -1.116579    1.189453
     12          1           0        1.810765    0.796566   -1.049963
     13          1           0        2.741904   -0.704807   -0.260150
     14          1           0        2.128971    0.619342    0.561061
 ---------------------------------------------------------------------

 SCF Done:  E(RB2PLYPD3) =  -157.031693720     A.U. after   12 cycles
 E2(B2PLYPD3) =    -0.2530159223D+00 E(B2PLYPD3) =    -0.15728470964277D+03

 The electronic state is 1-A.
 Alpha  occ. eigenvalues --  -10.65255 -10.62196 -10.60521 -10.58435  -0.96452
 Alpha  occ. eigenvalues --   -0.86559  -0.80423  -0.67637  -0.54696  -0.50732
 Alpha  occ. eigenvalues --   -0.48992  -0.48125  -0.43523  -0.41478  -0.38881
 Alpha  occ. eigenvalues --   -0.36159  -0.34686
 Alpha virt. eigenvalues --    0.05195   0.06025   0.06828   0.08542   0.10249
 Alpha virt. eigenvalues --    0.11429   0.12006   0.12331   0.14809   0.14952
 Alpha virt. eigenvalues --    0.16305   0.16935   0.17694   0.18764   0.21194

 Mulliken charges:
               1
     1  C   -0.283272
     2  C   -0.967130
     3  H    0.072269
     4  H    0.071769
     5  H    0.190939
     6  C   -0.020874
     7  H    0.034567
     8  H    0.855351
     9  C   -0.215092
    10  H    0.036291
    11  H    0.019228
    12  H    0.022173
    13  H    0.057370
    14  H    0.126411
 Sum of Mulliken charges =   0.00000

 Dipole moment (field-independent basis, Debye):
    X=              0.1210    Y=             -0.1992    Z=             -0.4002  Tot=              0.4631
 Quadrupole moment (field-independent basis, Debye-Ang):
   XX=            -28.4115   YY=            -29.6233   ZZ=            -27.5189
   XY=             -0.4675   XZ=              0.8169   YZ=              0.0439

 Normal termination of Gaussian 09 at Wed Aug 26 13:19:05 2020.
