 Gaussian 09, Revision D.01,
 Gaussian 09:  ES64L-G09RevD.01 24-Apr-2013

 --------------------
 #p B2PLYPD3/Def2QZVP
 --------------------

 ----------
 butane_opt
 ----------
 Symbolic Z-matrix:
 Charge =  0 Multiplicity = 1

                         Standard orientation:
 ---------------------------------------------------------------------
 Center     Atomic      Atomic             Coordinates (Angstroms)
 Number     Number       Type             X           Y           Z
 ---------------------------------------------------------------------
      1          6           0       -2.074124   -0.141432    0.082624
      2          6           0       -0.508261    0.588897   -0.163239
      3          1           0       -2.695612    0.073931    0.799985
      4          1           0       -1.636261   -0.950725    0.821242
      5          1           0       -2.791794   -0.591832   -0.820811
      6          6           0        0.636972   -0.398941   -0.195473
      7          1           0       -0.468762    1.037397    0.650915
      8          1           0       -0.488590    1.364471   -0.891890
      9          6           0        1.963823    0.028387    0.165042
     10          1           0        0.696719   -0.840664   -1.164236
     11          1           0        0.261874   -1.034157    0.459266
     12          1           0        2.329811    0.708086   -0.586902
     13          1           0        2.939545   -0.856840    0.026490
     14          1           0        1.742605    0.628868    1.372215
 ---------------------------------------------------------------------

 SCF Done:  E(RB2PLYPD3) =  -157.945943021     A.U. after   11 cycles
 E2(B2PLYPD3) =    -0.2513037901D+00 E(B2PLYPD3) =    -0.15819724681148D+03

 The electronic state is 1-A.
 Alpha  occ. eigenvalues --  -10.64629 -10.62240 -10.60744 -10.58833  -0.92809
 Alpha  occ. eigenvalues --   -0.82394  -0.74494  -0.67980  -0.56006  -0.49481
 Alpha  occ. eigenvalues --   -0.47424  -0.47180  -0.42775  -0.41115  -0.37890
 Alpha  occ. eigenvalues --   -0.36960  -0.35254
 Alpha virt. eigenvalues --    0.04336   0.06137   0.08191   0.08862   0.10367
 Alpha virt. eigenvalues --    0.10447   0.11992   0.12522   0.14801   0.14995
 Alpha virt. eigenvalues --    0.16164   0.16701   0.17817   0.19328   0.21055

 Mulliken charges:
               1
     1  C   -0.205883
     2  C   -0.086206
     3  H    0.080924
     4  H    0.012455
     5  H    0.044922
     6  C   -0.023759
     7  H    0.090006
     8  H    0.035943
     9  C   -0.157995
    10  H    0.025428
    11  H    0.070268
    12  H    0.057307
    13  H    0.039286
    14  H    0.017306
 Sum of Mulliken charges =   0.00000

 Dipole moment (field-independent basis, Debye):
    X=              0.0248    Y=              0.1244    Z=             -0.0319  Tot=              0.1308
 Quadrupole moment (field-independent basis, Debye-Ang):
   XX=            -29.6688   YY=            -30.1788   ZZ=            -28.2949
   XY=             -0.2550   XZ=             -2.0909   YZ=             -0.0717

 Normal termination of Gaussian 09 at Wed Aug 26 14:48:54 2020.
