 Gaussian 09, Revision D.01,
 Gaussian 09:  ES64L-G09RevD.01 24-Apr-2013

 --------------------
 #p B2PLYPD3/Def2QZVP
 --------------------

 ----------
 butane_opt
 ----------
 Symbolic Z-matrix:
 Charge =  0 Multiplicity = 1

                         Standard orientation:
 ---------------------------------------------------------------------
 Center     Atomic      Atomic             Coordinates (Angstroms)
 Number     Number       Type             X           Y           Z
 ---------------------------------------------------------------------
      1          6           0        1.893478   -0.204401   -0.105722
      2          6           0        0.562925    0.538829   -0.033154
      3          1           0        2.814147    0.742683   -0.188150
      4          1           0        2.044103   -1.139626   -0.803242
      5          1           0        2.042847   -0.601707    0.678260
      6          6           0       -0.532620   -0.388796    0.339779
      7          1           0        0.258552    0.711595   -0.708334
      8          1           0        0.506847    1.443988    0.795788
      9          6           0       -1.892816    0.094169   -0.184887
     10          1           0       -0.788796   -0.986866    1.483317
     11          1           0       -0.472896   -0.946665   -0.392055
     12          1           0       -2.267526    1.016067    0.714953
     13          1           0       -2.803164   -0.960820   -0.718679
     14          1           0       -1.519918    0.482547   -0.957955
 ---------------------------------------------------------------------

 SCF Done:  E(RB2PLYPD3) =  -157.712501881     A.U. after   11 cycles
 E2(B2PLYPD3) =    -0.2532343630D+00 E(B2PLYPD3) =    -0.15796573624353D+03

 The electronic state is 1-A.
 Alpha  occ. eigenvalues --  -10.64479 -10.61436 -10.60611 -10.59640  -0.97280
 Alpha  occ. eigenvalues --   -0.84766  -0.75728  -0.67785  -0.56770  -0.49980
 Alpha  occ. eigenvalues --   -0.49581  -0.45799  -0.43187  -0.40883  -0.38795
 Alpha  occ. eigenvalues --   -0.36507  -0.34504
 Alpha virt. eigenvalues --    0.03330   0.05755   0.07219   0.07923   0.09736
 Alpha virt. eigenvalues --    0.11314   0.11572   0.12654   0.14222   0.14779
 Alpha virt. eigenvalues --    0.15423   0.16265   0.18467   0.18911   0.20617

 Mulliken charges:
               1
     1  C   -0.186242
     2  C   -0.376940
     3  H    0.027054
     4  H    0.033995
     5  H    0.131042
     6  C   -0.146148
     7  H    0.362791
     8  H    0.038433
     9  C   -0.204350
    10  H    0.025385
    11  H    0.139300
    12  H    0.027067
    13  H    0.027421
    14  H    0.101192
 Sum of Mulliken charges =   0.00000

 Dipole moment (field-independent basis, Debye):
    X=              0.3822    Y=             -0.2158    Z=             -0.2665  Tot=              0.5135
 Quadrupole moment (field-independent basis, Debye-Ang):
   XX=            -32.6020   YY=            -29.1945   ZZ=            -28.5679
   XY=              0.0745   XZ=              0.6227   YZ=              0.9104

 Normal termination of Gaussian 09 at Wed Aug 26 22:54:39 2020.
