 Gaussian 09, Revision D.01,
 Gaussian 09:  ES64L-G09RevD.01 24-Apr-2013

 --------------------
 #p B2PLYPD3/Def2QZVP
 --------------------

 ----------
 butane_opt
 ----------
 Symbolic Z-matrix:
 Charge =  0 Multiplicity = 1

                         Standard orientation:
 ---------------------------------------------------------------------
 Center     Atomic      Atomic             Coordinates (Angstroms)
 Number     Number       Type             X           Y           Z
 ---------------------------------------------------------------------
      1          6           0       -1.966500    0.071115    0.153277
      2          6           0       -0.578018   -0.488796   -0.226473
      3          1           0       -2.754675   -0.791132    0.160969
      4          1           0       -2.115119    0.639831   -0.615788
      5          1           0       -2.181418    0.509265    0.972890
      6          6           0        0.525698    0.645244   -0.001032
      7          1           0       -0.727745   -1.168412   -1.260282
      8          1           0       -0.201072   -0.783512    0.398217
      9          6           0        1.997463   -0.162751    0.051651
     10          1           0        0.346682    1.009816    0.946703
     11          1           0        0.634418    1.475573   -0.831650
     12          1           0        2.438255   -1.314101    1.213697
     13          1           0        2.627340    0.326040   -0.310390
     14          1           0        2.061476   -0.292239   -0.538905
 ---------------------------------------------------------------------

 SCF Done:  E(RB2PLYPD3) =  -157.278986278     A.U. after   12 cycles
 E2(B2PLYPD3) =    -0.2522575419D+00 E(B2PLYPD3) =    -0.15753124382041D+03

 The electronic state is 1-A.
 Alpha  occ. eigenvalues --  -10.63633 -10.59635 -10.59118 -10.57353  -0.98179
 Alpha  occ. eigenvalues --   -0.91024  -0.79185  -0.69406  -0.56329  -0.49195
 Alpha  occ. eigenvalues --   -0.47732  -0.47043  -0.42375  -0.41630  -0.39248
 Alpha  occ. eigenvalues --   -0.36042  -0.35219
 Alpha virt. eigenvalues --    0.01916   0.05849   0.07274   0.08160   0.10288
 Alpha virt. eigenvalues --    0.11312   0.12690   0.13179   0.15084   0.15350
 Alpha virt. eigenvalues --    0.16291   0.17049   0.18525   0.19054   0.20300

 Mulliken charges:
               1
     1  C   -0.129759
     2  C   -0.390786
     3  H    0.016672
     4  H    0.070974
     5  H    0.041897
     6  C   -0.050357
     7  H    0.053506
     8  H    0.345721
     9  C   -0.820543
    10  H    0.085366
    11  H    0.021740
    12  H    0.039216
    13  H    0.055249
    14  H    0.661103
 Sum of Mulliken charges =   0.00000

 Dipole moment (field-independent basis, Debye):
    X=              0.0722    Y=              0.2682    Z=             -0.4066  Tot=              0.4923
 Quadrupole moment (field-independent basis, Debye-Ang):
   XX=            -29.4218   YY=            -29.0449   ZZ=            -27.0024
   XY=             -0.0879   XZ=             -1.7812   YZ=             -0.5519

 Normal termination of Gaussian 09 at Wed Aug 26 23:45:06 2020.
