 Gaussian 09, Revision D.01,
 Gaussian 09:  ES64L-G09RevD.01 24-Apr-2013

 --------------------
 #p B2PLYPD3/Def2QZVP
 --------------------

 ----------
 butane_opt
 ----------
 Symbolic Z-matrix:
 Charge =  0 Multiplicity = 1

                         Standard orientation:
 ---------------------------------------------------------------------
 Center     Atomic      Atomic             Coordinates (Angstroms)
 Number     Number       Type             X           Y           Z
 ---------------------------------------------------------------------
      1          6           0        1.928487   -0.059366    0.150184
      2          6           0        0.646148    0.545258   -0.042959
      3          1           0        2.619038    0.560432   -0.514797
      4          1           0        1.935849   -0.546800   -0.624518
      5          1           0        2.254297   -1.162331    1.345513
      6          6           0       -0.553176   -0.563189   -0.122953
      7          1           0        0.713653    1.500587   -1.026996
      8          1           0        0.393530    0.776902    0.465112
      9          6           0       -2.002668    0.107643    0.113778
     10          1           0       -0.232229   -1.084957    0.505915
     11          1           0       -0.544597   -1.215095   -1.146058
     12          1           0       -2.450583    1.209642    1.215493
     13          1           0       -2.782666   -0.572345   -0.396123
     14          1           0       -2.019038    0.351888   -0.411842
 ---------------------------------------------------------------------

 SCF Done:  E(RB2PLYPD3) =  -156.784904750     A.U. after   13 cycles
 E2(B2PLYPD3) =    -0.2577827468D+00 E(B2PLYPD3) =    -0.15704268749664D+03

 The electronic state is 1-A.
 Alpha  occ. eigenvalues --  -10.62443 -10.62327 -10.61552 -10.60380  -0.96542
 Alpha  occ. eigenvalues --   -0.90859  -0.80377  -0.74154  -0.51875  -0.50018
 Alpha  occ. eigenvalues --   -0.47795  -0.45159  -0.43230  -0.42909  -0.38050
 Alpha  occ. eigenvalues --   -0.36582  -0.33504
 Alpha virt. eigenvalues --    0.00977   0.02380   0.04759   0.07159   0.10131
 Alpha virt. eigenvalues --    0.10949   0.11910   0.12507   0.13698   0.15255
 Alpha virt. eigenvalues --    0.15530   0.16653   0.17676   0.18130   0.19464

 Mulliken charges:
               1
     1  C   -0.189370
     2  C   -0.769798
     3  H    0.044913
     4  H    0.157863
     5  H    0.037750
     6  C   -0.076775
     7  H    0.021200
     8  H    0.680794
     9  C   -0.895785
    10  H    0.158212
    11  H    0.010579
    12  H    0.050253
    13  H    0.066983
    14  H    0.703180
 Sum of Mulliken charges =   0.00000

 Dipole moment (field-independent basis, Debye):
    X=              0.0234    Y=             -0.0852    Z=             -0.9391  Tot=              0.9432
 Quadrupole moment (field-independent basis, Debye-Ang):
   XX=            -31.0155   YY=            -28.8162   ZZ=            -27.8328
   XY=             -1.0652   XZ=             -0.3221   YZ=             -0.0993

 Normal termination of Gaussian 09 at Wed Aug 26 21:37:25 2020.
