 Gaussian 09, Revision D.01,
 Gaussian 09:  ES64L-G09RevD.01 24-Apr-2013

 --------------------
 #p B2PLYPD3/Def2QZVP
 --------------------

 ----------
 butane_opt
 ----------
 Symbolic Z-matrix:
 Charge =  0 Multiplicity = 1

                         Standard orientation:
 ---------------------------------------------------------------------
 Center     Atomic      Atomic             Coordinates (Angstroms)
 Number     Number       Type             X           Y           Z
 ---------------------------------------------------------------------
      1          6           0       -1.928917    0.002341    0.087748
      2          6           0       -0.649150   -0.390905   -0.146735
      3          1           0       -2.695693   -0.667815   -0.060802
      4          1           0       -1.846765    0.707817   -0.724849
      5          1           0       -2.061164    0.762279    1.167531
      6          6           0        0.511928    0.541823    0.056338
      7          1           0       -0.604930   -1.106507   -1.288623
      8          1           0       -0.672071   -0.909386    0.411950
      9          6           0        2.034340   -0.194050    0.032336
     10          1           0        0.299472    1.048386    0.952764
     11          1           0        0.590276    1.585628   -0.886238
     12          1           0        2.241881   -1.454156    1.147570
     13          1           0        2.799817    0.637456   -0.207428
     14          1           0        2.139973   -0.358957   -0.689999
 ---------------------------------------------------------------------

 SCF Done:  E(RB2PLYPD3) =  -157.561160105     A.U. after   11 cycles
 E2(B2PLYPD3) =    -0.2553262608D+00 E(B2PLYPD3) =    -0.15781648636542D+03

 The electronic state is 1-A.
 Alpha  occ. eigenvalues --  -10.65436 -10.63375 -10.60586 -10.58638  -0.97016
 Alpha  occ. eigenvalues --   -0.87084  -0.76159  -0.69057  -0.56427  -0.52026
 Alpha  occ. eigenvalues --   -0.47976  -0.44843  -0.42125  -0.40707  -0.37203
 Alpha  occ. eigenvalues --   -0.36066  -0.33935
 Alpha virt. eigenvalues --    0.01285   0.04855   0.06184   0.06923   0.09651
 Alpha virt. eigenvalues --    0.11376   0.11734   0.12504   0.13571   0.14637
 Alpha virt. eigenvalues --    0.15642   0.15970   0.18234   0.18977   0.20408

 Mulliken charges:
               1
     1  C   -0.170244
     2  C   -0.348999
     3  H    0.078611
     4  H    0.048631
     5  H    0.013419
     6  C   -0.001109
     7  H   -0.004568
     8  H    0.364698
     9  C   -0.479921
    10  H    0.068857
    11  H   -0.024154
    12  H    0.033814
    13  H    0.047336
    14  H    0.373627
 Sum of Mulliken charges =   0.00000

 Dipole moment (field-independent basis, Debye):
    X=             -0.1819    Y=             -0.2239    Z=             -0.1575  Tot=              0.3287
 Quadrupole moment (field-independent basis, Debye-Ang):
   XX=            -30.3747   YY=            -29.6467   ZZ=            -28.9841
   XY=              1.6401   XZ=             -1.6730   YZ=             -0.4580

 Normal termination of Gaussian 09 at Wed Aug 26 13:42:06 2020.
