 Gaussian 09, Revision D.01,
 Gaussian 09:  ES64L-G09RevD.01 24-Apr-2013

 --------------------
 #p B2PLYPD3/Def2QZVP
 --------------------

 ----------
 butane_opt
 ----------
 Symbolic Z-matrix:
 Charge =  0 Multiplicity = 1

                         Standard orientation:
 ---------------------------------------------------------------------
 Center     Atomic      Atomic             Coordinates (Angstroms)
 Number     Number       Type             X           Y           Z
 ---------------------------------------------------------------------
      1          6           0        1.841577    0.044686   -0.023311
      2          6           0        0.578386   -0.454004    0.020812
      3          1           0        2.492223   -0.673678    0.108782
      4          1           0        2.062658    0.641190    0.879659
      5          1           0        1.692366    0.695130   -0.932476
      6          6           0       -0.535100    0.572336    0.044062
      7          1           0        0.476933   -0.739459    0.710675
      8          1           0        0.743897   -1.459318   -0.917141
      9          6           0       -1.908452   -0.152464   -0.020698
     10          1           0       -0.153132    1.115915   -0.863286
     11          1           0       -0.289032    1.395201    1.113482
     12          1           0       -1.728650   -0.366175   -0.546572
     13          1           0       -2.577710    0.432787   -0.778840
     14          1           0       -2.578011   -1.104918    1.100523
 ---------------------------------------------------------------------

 SCF Done:  E(RB2PLYPD3) =  -157.230343977     A.U. after   12 cycles
 E2(B2PLYPD3) =    -0.2557084299D+00 E(B2PLYPD3) =    -0.15748605240691D+03

 The electronic state is 1-A.
 Alpha  occ. eigenvalues --  -10.64961 -10.62455 -10.57969 -10.57812  -0.97926
 Alpha  occ. eigenvalues --   -0.92119  -0.76231  -0.68839  -0.57463  -0.51585
 Alpha  occ. eigenvalues --   -0.48237  -0.47600  -0.41059  -0.40223  -0.38655
 Alpha  occ. eigenvalues --   -0.35680  -0.35084
 Alpha virt. eigenvalues --    0.01998   0.05383   0.05578   0.07351   0.10380
 Alpha virt. eigenvalues --    0.10462   0.12008   0.12789   0.14386   0.15014
 Alpha virt. eigenvalues --    0.16080   0.16721   0.17819   0.18864   0.20305

 Mulliken charges:
               1
     1  C   -0.088555
     2  C   -0.412496
     3  H    0.053400
     4  H    0.015044
     5  H    0.044848
     6  C    0.001741
     7  H    0.360246
     8  H    0.002437
     9  C   -0.935965
    10  H    0.047122
    11  H    0.011545
    12  H    0.768655
    13  H    0.061066
    14  H    0.070912
 Sum of Mulliken charges =   0.00000

 Dipole moment (field-independent basis, Debye):
    X=              0.2167    Y=             -0.4662    Z=             -0.0156  Tot=              0.5143
 Quadrupole moment (field-independent basis, Debye-Ang):
   XX=            -30.2075   YY=            -30.0380   ZZ=            -27.5483
   XY=              0.1312   XZ=              1.0437   YZ=             -1.1291

 Normal termination of Gaussian 09 at Wed Aug 26 12:27:28 2020.
