 Gaussian 09, Revision D.01,
 Gaussian 09:  ES64L-G09RevD.01 24-Apr-2013

 --------------------
 #p B2PLYPD3/Def2QZVP
 --------------------

 ----------
 butane_opt
 ----------
 Symbolic Z-matrix:
 Charge =  0 Multiplicity = 1

                         Standard orientation:
 ---------------------------------------------------------------------
 Center     Atomic      Atomic             Coordinates (Angstroms)
 Number     Number       Type             X           Y           Z
 ---------------------------------------------------------------------
      1          6           0       -1.902021    0.078927    0.056102
      2          6           0       -0.591298   -0.428466   -0.154097
      3          1           0       -2.707419   -0.724824   -0.071625
      4          1           0       -1.943579    0.511707   -0.668803
      5          1           0       -1.972523    0.879749    1.211830
      6          6           0        0.499469    0.492837    0.013668
      7          1           0       -0.450738   -1.054981   -1.091688
      8          1           0       -0.522266   -1.108649    0.608664
      9          6           0        1.963640   -0.151453    0.047553
     10          1           0        0.259094    1.093022    0.901316
     11          1           0        0.559183    1.403916   -0.893111
     12          1           0        2.240919   -1.278972    1.069949
     13          1           0        2.761679    0.692171   -0.325238
     14          1           0        1.956909   -0.364206   -0.520648
 ---------------------------------------------------------------------

 SCF Done:  E(RB2PLYPD3) =  -157.438962689     A.U. after   12 cycles
 E2(B2PLYPD3) =    -0.2525531872D+00 E(B2PLYPD3) =    -0.15769151587606D+03

 The electronic state is 1-A.
 Alpha  occ. eigenvalues --  -10.63046 -10.62148 -10.60003 -10.59268  -0.95481
 Alpha  occ. eigenvalues --   -0.89381  -0.77262  -0.66846  -0.55539  -0.51111
 Alpha  occ. eigenvalues --   -0.47970  -0.46774  -0.41304  -0.39979  -0.39445
 Alpha  occ. eigenvalues --   -0.38094  -0.35209
 Alpha virt. eigenvalues --    0.03783   0.05360   0.06399   0.07372   0.10477
 Alpha virt. eigenvalues --    0.10789   0.11642   0.13011   0.13637   0.15537
 Alpha virt. eigenvalues --    0.15619   0.15976   0.18302   0.19391   0.21226

 Mulliken charges:
               1
     1  C   -0.273340
     2  C   -0.018429
     3  H    0.049859
     4  H    0.177712
     5  H    0.024401
     6  C    0.033989
     7  H    0.012720
     8  H    0.049268
     9  C   -0.860713
    10  H    0.041177
    11  H   -0.021130
    12  H    0.041671
    13  H    0.077724
    14  H    0.665089
 Sum of Mulliken charges =   0.00000

 Dipole moment (field-independent basis, Debye):
    X=             -0.2713    Y=             -0.2929    Z=             -0.6179  Tot=              0.7356
 Quadrupole moment (field-independent basis, Debye-Ang):
   XX=            -30.8840   YY=            -29.0664   ZZ=            -28.3110
   XY=              0.6592   XZ=             -0.7115   YZ=             -0.2351

 Normal termination of Gaussian 09 at Wed Aug 26 22:33:34 2020.
