 Gaussian 09, Revision D.01,
 Gaussian 09:  ES64L-G09RevD.01 24-Apr-2013

 --------------------
 #p B2PLYPD3/Def2QZVP
 --------------------

 ----------
 butane_opt
 ----------
 Symbolic Z-matrix:
 Charge =  0 Multiplicity = 1

                         Standard orientation:
 ---------------------------------------------------------------------
 Center     Atomic      Atomic             Coordinates (Angstroms)
 Number     Number       Type             X           Y           Z
 ---------------------------------------------------------------------
      1          6           0       -2.032077    0.152376    0.086240
      2          6           0       -0.489017   -0.529671    0.008487
      3          1           0       -2.913685   -0.613665   -0.340045
      4          1           0       -2.124905    0.333641   -0.563195
      5          1           0       -2.083736    1.405656    1.138331
      6          6           0        0.648534    0.402085   -0.241234
      7          1           0       -0.656093   -1.173366   -0.822670
      8          1           0       -0.334863   -0.981178    0.871441
      9          6           0        1.915169   -0.078059    0.118424
     10          1           0        0.675686    1.175494    0.413486
     11          1           0        0.485279    0.841167   -1.083132
     12          1           0        1.869348   -0.783028    1.245649
     13          1           0        2.747983    0.613251   -0.080675
     14          1           0        2.079332   -0.498360   -0.610694
 ---------------------------------------------------------------------

 SCF Done:  E(RB2PLYPD3) =  -157.565033733     A.U. after   12 cycles
 E2(B2PLYPD3) =    -0.2524542067D+00 E(B2PLYPD3) =    -0.15781748794007D+03

 The electronic state is 1-A.
 Alpha  occ. eigenvalues --  -10.62332 -10.60439 -10.58759 -10.56887  -0.95285
 Alpha  occ. eigenvalues --   -0.88209  -0.78341  -0.69787  -0.57996  -0.51496
 Alpha  occ. eigenvalues --   -0.48444  -0.46257  -0.42176  -0.41310  -0.37874
 Alpha  occ. eigenvalues --   -0.36989  -0.33841
 Alpha virt. eigenvalues --    0.02117   0.05771   0.06909   0.08253   0.10082
 Alpha virt. eigenvalues --    0.10531   0.12056   0.13079   0.13747   0.15152
 Alpha virt. eigenvalues --    0.15926   0.16489   0.18806   0.19509   0.22214

 Mulliken charges:
               1
     1  C   -0.688146
     2  C   -0.015052
     3  H    0.035688
     4  H    0.532724
     5  H    0.031168
     6  C   -0.023873
     7  H    0.025982
     8  H    0.069333
     9  C   -0.240403
    10  H    0.025889
    11  H    0.025473
    12  H    0.049698
    13  H    0.036938
    14  H    0.134582
 Sum of Mulliken charges =   0.00000

 Dipole moment (field-independent basis, Debye):
    X=              0.5517    Y=              0.0299    Z=             -1.0788  Tot=              1.2121
 Quadrupole moment (field-independent basis, Debye-Ang):
   XX=            -30.8072   YY=            -29.3398   ZZ=            -27.5133
   XY=              0.9093   XZ=              1.6129   YZ=              0.2592

 Normal termination of Gaussian 09 at Wed Aug 26 15:21:12 2020.
