 Gaussian 09, Revision D.01,
 Gaussian 09:  ES64L-G09RevD.01 24-Apr-2013

 --------------------
 #p B2PLYPD3/Def2QZVP
 --------------------

 ----------
 butane_opt
 ----------
 Symbolic Z-matrix:
 Charge =  0 Multiplicity = 1

                         Standard orientation:
 ---------------------------------------------------------------------
 Center     Atomic      Atomic             Coordinates (Angstroms)
 Number     Number       Type             X           Y           Z
 ---------------------------------------------------------------------
      1          6           0        1.940188   -0.140266    0.160865
      2          6           0        0.534881    0.399196   -0.296777
      3          1           0        2.864978    0.848391    0.169854
      4          1           0        2.364520   -0.468923   -0.457791
      5          1           0        1.374330   -0.522723    1.218721
      6          6           0       -0.515098   -0.541673   -0.046498
      7          1           0        0.462710    1.062155   -1.283653
      8          1           0        0.429830    1.149907    0.535767
      9          6           0       -1.946663    0.157452    0.092325
     10          1           0       -0.485265   -1.084964    1.055572
     11          1           0       -0.390190   -1.401194   -0.932135
     12          1           0       -2.174799    1.380842    1.099501
     13          1           0       -2.668773   -0.571801   -0.285446
     14          1           0       -1.857197    0.360055   -0.579876
 ---------------------------------------------------------------------

 SCF Done:  E(RB2PLYPD3) =  -157.585837303     A.U. after   11 cycles
 E2(B2PLYPD3) =    -0.2574693601D+00 E(B2PLYPD3) =    -0.15784330666353D+03

 The electronic state is 1-A.
 Alpha  occ. eigenvalues --  -10.64396 -10.61883 -10.61747 -10.60555  -0.94247
 Alpha  occ. eigenvalues --   -0.87027  -0.76690  -0.64928  -0.56539  -0.50840
 Alpha  occ. eigenvalues --   -0.48811  -0.44298  -0.40268  -0.39158  -0.38233
 Alpha  occ. eigenvalues --   -0.35425  -0.34700
 Alpha virt. eigenvalues --    0.02306   0.04897   0.06591   0.06997   0.09145
 Alpha virt. eigenvalues --    0.10692   0.12098   0.12867   0.13870   0.14714
 Alpha virt. eigenvalues --    0.15422   0.15790   0.17452   0.19569   0.20456

 Mulliken charges:
               1
     1  C   -0.302048
     2  C   -0.078376
     3  H   -0.006452
     4  H    0.192371
     5  H    0.110495
     6  C   -0.040695
     7  H    0.029289
     8  H    0.059562
     9  C   -0.654350
    10  H    0.019201
    11  H    0.030139
    12  H    0.058861
    13  H    0.069967
    14  H    0.512036
 Sum of Mulliken charges =   0.00000

 Dipole moment (field-independent basis, Debye):
    X=             -0.2134    Y=              0.0264    Z=             -0.6666  Tot=              0.7004
 Quadrupole moment (field-independent basis, Debye-Ang):
   XX=            -31.5703   YY=            -29.9337   ZZ=            -28.3878
   XY=             -0.1087   XZ=             -0.5551   YZ=              0.8303

 Normal termination of Gaussian 09 at Wed Aug 26 15:46:47 2020.
