 Gaussian 09, Revision D.01,
 Gaussian 09:  ES64L-G09RevD.01 24-Apr-2013

 --------------------
 #p B2PLYPD3/Def2QZVP
 --------------------

 ----------
 butane_opt
 ----------
 Symbolic Z-matrix:
 Charge =  0 Multiplicity = 1

                         Standard orientation:
 ---------------------------------------------------------------------
 Center     Atomic      Atomic             Coordinates (Angstroms)
 Number     Number       Type             X           Y           Z
 ---------------------------------------------------------------------
      1          6           0        1.982077    0.079891   -0.127762
      2          6           0        0.674205   -0.536063    0.026137
      3          1           0        2.701197   -0.635376    0.061444
      4          1           0        1.943279    0.683028    0.948596
      5          1           0        2.169890    0.798860   -1.133399
      6          6           0       -0.576245    0.586671    0.140909
      7          1           0        0.641337   -1.089842    0.965675
      8          1           0        0.374488   -0.900443   -0.628786
      9          6           0       -2.044751   -0.181338   -0.077188
     10          1           0       -0.544426    1.186215   -0.680131
     11          1           0       -0.365119    1.336403    1.088153
     12          1           0       -2.116894   -0.772637   -0.908782
     13          1           0       -2.856588    0.628214   -0.335868
     14          1           0       -2.158884   -0.929393    0.850524
 ---------------------------------------------------------------------

 SCF Done:  E(RB2PLYPD3) =  -157.940598050     A.U. after   11 cycles
 E2(B2PLYPD3) =    -0.2497168415D+00 E(B2PLYPD3) =    -0.15819031489175D+03

 The electronic state is 1-A.
 Alpha  occ. eigenvalues --  -10.62351 -10.62302 -10.61872 -10.57868  -0.91207
 Alpha  occ. eigenvalues --   -0.81995  -0.72576  -0.68174  -0.55574  -0.49548
 Alpha  occ. eigenvalues --   -0.48366  -0.45356  -0.42454  -0.41370  -0.39739
 Alpha  occ. eigenvalues --   -0.37355  -0.33647
 Alpha virt. eigenvalues --    0.05198   0.06403   0.08245   0.08717   0.11155
 Alpha virt. eigenvalues --    0.11596   0.12157   0.13252   0.14015   0.14627
 Alpha virt. eigenvalues --    0.15390   0.16428   0.18645   0.19685   0.20370

 Mulliken charges:
               1
     1  C   -0.152620
     2  C   -0.266654
     3  H    0.069086
     4  H    0.024664
     5  H    0.047391
     6  C   -0.067872
     7  H    0.051045
     8  H    0.238817
     9  C   -0.161838
    10  H    0.051048
    11  H    0.020453
    12  H    0.057769
    13  H    0.045641
    14  H    0.043068
 Sum of Mulliken charges =   0.00000

 Dipole moment (field-independent basis, Debye):
    X=              0.0696    Y=             -0.3753    Z=             -0.4259  Tot=              0.5719
 Quadrupole moment (field-independent basis, Debye-Ang):
   XX=            -30.6534   YY=            -29.1003   ZZ=            -27.9417
   XY=             -0.7417   XZ=              1.0900   YZ=             -0.6612

 Normal termination of Gaussian 09 at Wed Aug 26 11:32:36 2020.
