 Gaussian 09, Revision D.01,
 Gaussian 09:  ES64L-G09RevD.01 24-Apr-2013

 --------------------
 #p B2PLYPD3/Def2QZVP
 --------------------

 ----------
 butane_opt
 ----------
 Symbolic Z-matrix:
 Charge =  0 Multiplicity = 1

                         Standard orientation:
 ---------------------------------------------------------------------
 Center     Atomic      Atomic             Coordinates (Angstroms)
 Number     Number       Type             X           Y           Z
 ---------------------------------------------------------------------
      1          6           0       -2.031176    0.147228    0.000812
      2          6           0       -0.471611   -0.526426    0.086340
      3          1           0       -2.869429   -0.665030   -0.793085
      4          1           0       -1.921333    0.153871   -0.613555
      5          1           0       -2.819661    1.422364    1.173413
      6          6           0        0.611116    0.442879   -0.171540
      7          1           0       -0.720392   -1.322493   -0.708935
      8          1           0       -0.174419   -1.273324    1.227890
      9          6           0        1.958019   -0.067535    0.065696
     10          1           0        0.489010    1.301726    0.620542
     11          1           0        0.684602    0.962115   -0.970508
     12          1           0        1.970396   -0.829651    1.077546
     13          1           0        2.727988    0.863250   -0.160446
     14          1           0        2.235155   -0.589704   -0.740713
 ---------------------------------------------------------------------

 SCF Done:  E(RB2PLYPD3) =  -157.363809970     A.U. after   13 cycles
 E2(B2PLYPD3) =    -0.2629635710D+00 E(B2PLYPD3) =    -0.15762677354120D+03

 The electronic state is 1-A.
 Alpha  occ. eigenvalues --  -10.67363 -10.65689 -10.62228 -10.60695  -0.94538
 Alpha  occ. eigenvalues --   -0.89370  -0.75201  -0.67268  -0.55188  -0.49660
 Alpha  occ. eigenvalues --   -0.48138  -0.43498  -0.42032  -0.38614  -0.37439
 Alpha  occ. eigenvalues --   -0.36641  -0.32056
 Alpha virt. eigenvalues --   -0.03030   0.03549   0.04862   0.06773   0.08954
 Alpha virt. eigenvalues --    0.09886   0.11470   0.11717   0.13486   0.15310
 Alpha virt. eigenvalues --    0.15712   0.16408   0.17386   0.18655   0.19113

 Mulliken charges:
               1
     1  C   -0.894687
     2  C   -0.039960
     3  H    0.001110
     4  H    0.776606
     5  H    0.050086
     6  C   -0.023393
     7  H    0.044142
     8  H    0.018465
     9  C   -0.137145
    10  H    0.033182
    11  H    0.045670
    12  H    0.043059
    13  H    0.025380
    14  H    0.057486
 Sum of Mulliken charges =   0.00000

 Dipole moment (field-independent basis, Debye):
    X=              0.8433    Y=              0.2306    Z=             -1.1470  Tot=              1.4422
 Quadrupole moment (field-independent basis, Debye-Ang):
   XX=            -33.1294   YY=            -29.8036   ZZ=            -28.4282
   XY=             -0.4201   XZ=              0.2218   YZ=              0.5897

 Normal termination of Gaussian 09 at Wed Aug 26 14:28:33 2020.
