 Gaussian 09, Revision D.01,
 Gaussian 09:  ES64L-G09RevD.01 24-Apr-2013

 --------------------
 #p B2PLYPD3/Def2QZVP
 --------------------

 ----------
 butane_opt
 ----------
 Symbolic Z-matrix:
 Charge =  0 Multiplicity = 1

                         Standard orientation:
 ---------------------------------------------------------------------
 Center     Atomic      Atomic             Coordinates (Angstroms)
 Number     Number       Type             X           Y           Z
 ---------------------------------------------------------------------
      1          6           0        1.988643    0.132382   -0.052608
      2          6           0        0.602456   -0.583420   -0.028109
      3          1           0        2.624423   -0.495370   -0.221949
      4          1           0        2.130729    0.525942    0.833288
      5          1           0        1.997389    1.013385   -0.984518
      6          6           0       -0.631308    0.467575    0.298501
      7          1           0        0.574211   -1.274808    0.717787
      8          1           0        0.529205   -0.887406   -0.755557
      9          6           0       -1.982971   -0.107974   -0.070509
     10          1           0       -0.275860    1.211832   -0.559792
     11          1           0       -0.420543    1.166632    1.168565
     12          1           0       -1.659306   -0.513803   -0.908414
     13          1           0       -2.778987    0.841607   -0.838494
     14          1           0       -2.582181   -1.039393    0.665438
 ---------------------------------------------------------------------

 SCF Done:  E(RB2PLYPD3) =  -157.843408736     A.U. after   11 cycles
 E2(B2PLYPD3) =    -0.2510096330D+00 E(B2PLYPD3) =    -0.15809441836860D+03

 The electronic state is 1-A.
 Alpha  occ. eigenvalues --  -10.64714 -10.63067 -10.58807 -10.57596  -0.92022
 Alpha  occ. eigenvalues --   -0.84443  -0.74743  -0.67742  -0.55864  -0.51744
 Alpha  occ. eigenvalues --   -0.47499  -0.45412  -0.43711  -0.41395  -0.39719
 Alpha  occ. eigenvalues --   -0.37631  -0.33119
 Alpha virt. eigenvalues --    0.03894   0.06050   0.08030   0.08734   0.10191
 Alpha virt. eigenvalues --    0.10379   0.12119   0.13632   0.14496   0.14899
 Alpha virt. eigenvalues --    0.15734   0.16853   0.18584   0.19393   0.20056

 Mulliken charges:
               1
     1  C   -0.148890
     2  C   -0.275564
     3  H    0.079804
     4  H    0.061367
     5  H    0.009164
     6  C   -0.036977
     7  H    0.038207
     8  H    0.252927
     9  C   -0.204517
    10  H    0.016440
    11  H    0.046101
    12  H    0.094192
    13  H    0.016530
    14  H    0.051215
 Sum of Mulliken charges =   0.00000

 Dipole moment (field-independent basis, Debye):
    X=              0.7223    Y=             -0.6234    Z=             -0.1370  Tot=              0.9639
 Quadrupole moment (field-independent basis, Debye-Ang):
   XX=            -31.3908   YY=            -28.9577   ZZ=            -28.0958
   XY=              0.3562   XZ=              0.4318   YZ=             -0.2575

 Normal termination of Gaussian 09 at Wed Aug 26 12:41:02 2020.
