 Gaussian 09, Revision D.01,
 Gaussian 09:  ES64L-G09RevD.01 24-Apr-2013

 --------------------
 #p B2PLYPD3/Def2QZVP
 --------------------

 ----------
 butane_opt
 ----------
 Symbolic Z-matrix:
 Charge =  0 Multiplicity = 1

                         Standard orientation:
 ---------------------------------------------------------------------
 Center     Atomic      Atomic             Coordinates (Angstroms)
 Number     Number       Type             X           Y           Z
 ---------------------------------------------------------------------
      1          6           0        1.882607    0.077128    0.057427
      2          6           0        0.578055   -0.485797   -0.016347
      3          1           0        2.691741   -0.646397   -0.442204
      4          1           0        2.287595    0.882839    1.040391
      5          1           0        1.748247    0.447179   -0.602101
      6          6           0       -0.517595    0.565447   -0.035965
      7          1           0        0.398764   -1.087624    0.811814
      8          1           0        0.478993   -1.222037   -0.967344
      9          6           0       -1.935168   -0.156353    0.015609
     10          1           0       -0.421204    1.351635   -0.999872
     11          1           0       -0.233170    1.176754    0.750039
     12          1           0       -1.996593   -0.564559   -0.712870
     13          1           0       -2.763758    0.633808   -0.082986
     14          1           0       -2.238010   -0.974145    1.080788
 ---------------------------------------------------------------------

 SCF Done:  E(RB2PLYPD3) =  -157.802414218     A.U. after   11 cycles
 E2(B2PLYPD3) =    -0.2500997004D+00 E(B2PLYPD3) =    -0.15805251391869D+03

 The electronic state is 1-A.
 Alpha  occ. eigenvalues --  -10.62287 -10.61181 -10.60649 -10.58613  -0.94988
 Alpha  occ. eigenvalues --   -0.85892  -0.75182  -0.67188  -0.54115  -0.49569
 Alpha  occ. eigenvalues --   -0.48409  -0.47348  -0.42951  -0.40222  -0.39456
 Alpha  occ. eigenvalues --   -0.37204  -0.36112
 Alpha virt. eigenvalues --    0.05442   0.05922   0.07186   0.07603   0.10666
 Alpha virt. eigenvalues --    0.11980   0.12021   0.12896   0.14933   0.15657
 Alpha virt. eigenvalues --    0.16000   0.16202   0.18706   0.19433   0.20875

 Mulliken charges:
               1
     1  C   -0.503201
     2  C    0.006469
     3  H    0.046959
     4  H    0.047727
     5  H    0.363412
     6  C   -0.041722
     7  H    0.044259
     8  H    0.002188
     9  C   -0.281096
    10  H   -0.000931
    11  H    0.059503
    12  H    0.187033
    13  H    0.039907
    14  H    0.029494
 Sum of Mulliken charges =   0.00000

 Dipole moment (field-independent basis, Debye):
    X=             -0.1078    Y=              0.1350    Z=             -0.3804  Tot=              0.4178
 Quadrupole moment (field-independent basis, Debye-Ang):
   XX=            -30.4484   YY=            -29.1381   ZZ=            -28.1335
   XY=              0.3226   XZ=              0.1182   YZ=              0.4125

 Normal termination of Gaussian 09 at Wed Aug 26 21:03:33 2020.
