 Gaussian 09, Revision D.01,
 Gaussian 09:  ES64L-G09RevD.01 24-Apr-2013

 --------------------
 #p B2PLYPD3/Def2QZVP
 --------------------

 ----------
 butane_opt
 ----------
 Symbolic Z-matrix:
 Charge =  0 Multiplicity = 1

                         Standard orientation:
 ---------------------------------------------------------------------
 Center     Atomic      Atomic             Coordinates (Angstroms)
 Number     Number       Type             X           Y           Z
 ---------------------------------------------------------------------
      1          6           0        2.016759   -0.130796   -0.092351
      2          6           0        0.523265    0.600367    0.155575
      3          1           0        2.745237    0.513067   -0.459786
      4          1           0        1.845363   -0.618907   -0.973810
      5          1           0        2.451139   -0.908171    0.904103
      6          6           0       -0.613439   -0.515859    0.074738
      7          1           0        0.254465    1.052084   -0.593861
      8          1           0        0.523385    1.189286    1.063178
      9          6           0       -1.912448    0.080974   -0.078440
     10          1           0       -0.509683   -1.117367    0.955060
     11          1           0       -0.456067   -1.180248   -0.818505
     12          1           0       -2.343734    0.597267    0.727543
     13          1           0       -2.739109   -0.658205   -0.119853
     14          1           0       -1.855814    0.923083   -1.041196
 ---------------------------------------------------------------------

 SCF Done:  E(RB2PLYPD3) =  -158.016029945     A.U. after   11 cycles
 E2(B2PLYPD3) =    -0.2485117368D+00 E(B2PLYPD3) =    -0.15826454168211D+03

 The electronic state is 1-A.
 Alpha  occ. eigenvalues --  -10.61564 -10.60990 -10.60441 -10.59831  -0.91357
 Alpha  occ. eigenvalues --   -0.82581  -0.73592  -0.67486  -0.55361  -0.49205
 Alpha  occ. eigenvalues --   -0.48248  -0.46669  -0.42474  -0.41447  -0.38067
 Alpha  occ. eigenvalues --   -0.37651  -0.35934
 Alpha virt. eigenvalues --    0.05494   0.06283   0.08489   0.08657   0.10555
 Alpha virt. eigenvalues --    0.11595   0.12762   0.12923   0.14747   0.15078
 Alpha virt. eigenvalues --    0.16038   0.16806   0.18776   0.19292   0.21570

 Mulliken charges:
               1
     1  C   -0.179826
     2  C   -0.133118
     3  H    0.049067
     4  H    0.059802
     5  H    0.036596
     6  C   -0.023997
     7  H    0.113307
     8  H    0.048119
     9  C   -0.134655
    10  H    0.034409
    11  H    0.037971
    12  H    0.038082
    13  H    0.041384
    14  H    0.012859
 Sum of Mulliken charges =   0.00000

 Dipole moment (field-independent basis, Debye):
    X=             -0.2021    Y=              0.0319    Z=             -0.0092  Tot=              0.2048
 Quadrupole moment (field-independent basis, Debye-Ang):
   XX=            -29.6905   YY=            -29.3608   ZZ=            -27.9974
   XY=              0.5317   XZ=             -1.2204   YZ=             -0.3190

 Normal termination of Gaussian 09 at Wed Aug 26 21:28:59 2020.
