 Gaussian 09, Revision D.01,
 Gaussian 09:  ES64L-G09RevD.01 24-Apr-2013

 --------------------
 #p B2PLYPD3/Def2QZVP
 --------------------

 ----------
 butane_opt
 ----------
 Symbolic Z-matrix:
 Charge =  0 Multiplicity = 1

                         Standard orientation:
 ---------------------------------------------------------------------
 Center     Atomic      Atomic             Coordinates (Angstroms)
 Number     Number       Type             X           Y           Z
 ---------------------------------------------------------------------
      1          6           0        1.948453    0.007698    0.176343
      2          6           0        0.602522   -0.500837   -0.212644
      3          1           0        2.637402   -0.621461   -0.491763
      4          1           0        2.224567    0.982502    1.476761
      5          1           0        2.123886    0.267483   -0.269838
      6          6           0       -0.510038    0.681647   -0.026419
      7          1           0        0.335166   -0.936147    0.492322
      8          1           0        0.661014   -1.150731   -1.300160
      9          6           0       -2.042698   -0.128368    0.117317
     10          1           0       -0.486832    1.556187   -0.983686
     11          1           0       -0.228700    0.874845    0.477683
     12          1           0       -1.815843   -0.366149   -0.464808
     13          1           0       -2.791592    0.532958   -0.551584
     14          1           0       -2.648509   -1.500320    1.287497
 ---------------------------------------------------------------------

 SCF Done:  E(RB2PLYPD3) =  -156.270606235     A.U. after   13 cycles
 E2(B2PLYPD3) =    -0.2632663939D+00 E(B2PLYPD3) =    -0.15653387262902D+03

 The electronic state is 1-A.
 Alpha  occ. eigenvalues --  -10.63527 -10.62986 -10.62460 -10.61381  -0.97888
 Alpha  occ. eigenvalues --   -0.91792  -0.84201  -0.74996  -0.53223  -0.49286
 Alpha  occ. eigenvalues --   -0.47080  -0.45711  -0.43078  -0.39146  -0.38400
 Alpha  occ. eigenvalues --   -0.35217  -0.34064
 Alpha virt. eigenvalues --   -0.03275   0.00876   0.04684   0.06929   0.09216
 Alpha virt. eigenvalues --    0.10689   0.11680   0.12375   0.13770   0.15532
 Alpha virt. eigenvalues --    0.15846   0.16427   0.16612   0.18104   0.19757

 Mulliken charges:
               1
     1  C   -0.884645
     2  C   -0.106715
     3  H    0.030156
     4  H    0.060313
     5  H    0.722674
     6  C   -0.727608
     7  H    0.187673
     8  H    0.025416
     9  C   -0.764868
    10  H    0.046948
    11  H    0.676531
    12  H    0.627916
    13  H    0.066943
    14  H    0.039265
 Sum of Mulliken charges =   0.00000

 Dipole moment (field-independent basis, Debye):
    X=              0.6860    Y=              0.1789    Z=             -1.1510  Tot=              1.3518
 Quadrupole moment (field-independent basis, Debye-Ang):
   XX=            -31.4713   YY=            -28.9361   ZZ=            -27.3490
   XY=              1.6750   XZ=             -0.3381   YZ=             -0.0486

 Normal termination of Gaussian 09 at Wed Aug 26 11:34:48 2020.
