 Gaussian 09, Revision D.01,
 Gaussian 09:  ES64L-G09RevD.01 24-Apr-2013

 --------------------
 #p B2PLYPD3/Def2QZVP
 --------------------

 ----------
 butane_opt
 ----------
 Symbolic Z-matrix:
 Charge =  0 Multiplicity = 1

                         Standard orientation:
 ---------------------------------------------------------------------
 Center     Atomic      Atomic             Coordinates (Angstroms)
 Number     Number       Type             X           Y           Z
 ---------------------------------------------------------------------
      1          6           0        1.905129   -0.127224    0.102860
      2          6           0        0.473816    0.527863   -0.248426
      3          1           0        2.619067    0.770051    0.635211
      4          1           0        2.242702   -1.104443   -0.878428
      5          1           0        1.795271   -0.535064    0.963764
      6          6           0       -0.517886   -0.506709   -0.059362
      7          1           0        0.639503    1.255426   -1.122734
      8          1           0        0.296747    1.256100    0.678805
      9          6           0       -1.898730    0.128180    0.061846
     10          1           0       -0.305639   -1.263489    1.074976
     11          1           0       -0.321130   -1.086987   -0.956676
     12          1           0       -1.933905    0.886065    0.944511
     13          1           0       -2.679197   -0.729699    0.057763
     14          1           0       -2.127392    0.419378   -0.538695
 ---------------------------------------------------------------------

 SCF Done:  E(RB2PLYPD3) =  -157.751232399     A.U. after   11 cycles
 E2(B2PLYPD3) =    -0.2531875514D+00 E(B2PLYPD3) =    -0.15800441995070D+03

 The electronic state is 1-A.
 Alpha  occ. eigenvalues --  -10.63397 -10.63269 -10.62612 -10.57821  -0.93152
 Alpha  occ. eigenvalues --   -0.84950  -0.74725  -0.65423  -0.56015  -0.50529
 Alpha  occ. eigenvalues --   -0.47224  -0.46235  -0.41748  -0.40784  -0.38989
 Alpha  occ. eigenvalues --   -0.35806  -0.34555
 Alpha virt. eigenvalues --    0.04380   0.05405   0.06985   0.07635   0.10221
 Alpha virt. eigenvalues --    0.10958   0.11976   0.13026   0.14192   0.15000
 Alpha virt. eigenvalues --    0.15677   0.16749   0.18846   0.19634   0.19673

 Mulliken charges:
               1
     1  C   -0.192304
     2  C   -0.031301
     3  H    0.023699
     4  H    0.025736
     5  H    0.103465
     6  C   -0.000380
     7  H    0.058850
     8  H   -0.004092
     9  C   -0.521889
    10  H    0.009030
    11  H    0.046704
    12  H    0.063612
    13  H    0.045131
    14  H    0.373740
 Sum of Mulliken charges =   0.00000

 Dipole moment (field-independent basis, Debye):
    X=             -0.4903    Y=              0.2460    Z=             -0.1233  Tot=              0.5623
 Quadrupole moment (field-independent basis, Debye-Ang):
   XX=            -32.0143   YY=            -29.3800   ZZ=            -27.9453
   XY=             -0.1365   XZ=              1.3159   YZ=              0.4924

 Normal termination of Gaussian 09 at Wed Aug 26 23:46:32 2020.
