 Gaussian 09, Revision D.01,
 Gaussian 09:  ES64L-G09RevD.01 24-Apr-2013

 --------------------
 #p B2PLYPD3/Def2QZVP
 --------------------

 ----------
 butane_opt
 ----------
 Symbolic Z-matrix:
 Charge =  0 Multiplicity = 1

                         Standard orientation:
 ---------------------------------------------------------------------
 Center     Atomic      Atomic             Coordinates (Angstroms)
 Number     Number       Type             X           Y           Z
 ---------------------------------------------------------------------
      1          6           0       -1.869243   -0.076081   -0.095605
      2          6           0       -0.574057    0.437345    0.087794
      3          1           0       -2.780144    0.630629    0.058067
      4          1           0       -1.966604   -0.841616    0.816809
      5          1           0       -2.049458   -0.499000   -0.921834
      6          6           0        0.582862   -0.573918   -0.032022
      7          1           0       -0.543446    1.357310    1.289890
      8          1           0       -0.402317    1.006974   -0.662583
      9          6           0        1.846016    0.160998   -0.061174
     10          1           0        0.195770   -1.060821   -0.881408
     11          1           0        0.572529   -1.253387    0.967489
     12          1           0        2.250938    1.065268   -1.016286
     13          1           0        2.558000   -0.530202    0.283233
     14          1           0        2.251263    0.434780    0.672667
 ---------------------------------------------------------------------

 SCF Done:  E(RB2PLYPD3) =  -157.865989376     A.U. after   11 cycles
 E2(B2PLYPD3) =    -0.2519509562D+00 E(B2PLYPD3) =    -0.15811794033226D+03

 The electronic state is 1-A.
 Alpha  occ. eigenvalues --  -10.62644 -10.61375 -10.59847 -10.59371  -0.94405
 Alpha  occ. eigenvalues --   -0.87967  -0.76650  -0.66858  -0.55706  -0.52740
 Alpha  occ. eigenvalues --   -0.48899  -0.48146  -0.44106  -0.40210  -0.37489
 Alpha  occ. eigenvalues --   -0.34940  -0.32901
 Alpha virt. eigenvalues --    0.04689   0.06002   0.07060   0.07244   0.10362
 Alpha virt. eigenvalues --    0.11571   0.12407   0.12765   0.14422   0.15259
 Alpha virt. eigenvalues --    0.16077   0.16778   0.18523   0.19854   0.20854

 Mulliken charges:
               1
     1  C   -0.151889
     2  C   -0.059737
     3  H    0.043052
     4  H    0.023861
     5  H    0.058411
     6  C   -0.007396
     7  H   -0.041685
     8  H    0.085446
     9  C   -0.221628
    10  H    0.067393
    11  H    0.011471
    12  H    0.031142
    13  H    0.034607
    14  H    0.126951
 Sum of Mulliken charges =   0.00000

 Dipole moment (field-independent basis, Debye):
    X=              0.2375    Y=             -0.3640    Z=             -0.2611  Tot=              0.5070
 Quadrupole moment (field-independent basis, Debye-Ang):
   XX=            -28.6447   YY=            -30.4603   ZZ=            -28.5048
   XY=              0.1577   XZ=              2.5927   YZ=             -1.1571

 Normal termination of Gaussian 09 at Wed Aug 26 10:34:59 2020.
