 Gaussian 09, Revision D.01,
 Gaussian 09:  ES64L-G09RevD.01 24-Apr-2013

 --------------------
 #p B2PLYPD3/Def2QZVP
 --------------------

 ----------
 butane_opt
 ----------
 Symbolic Z-matrix:
 Charge =  0 Multiplicity = 1

                         Standard orientation:
 ---------------------------------------------------------------------
 Center     Atomic      Atomic             Coordinates (Angstroms)
 Number     Number       Type             X           Y           Z
 ---------------------------------------------------------------------
      1          6           0       -1.981111    0.074247   -0.079394
      2          6           0       -0.644763   -0.468495    0.102894
      3          1           0       -2.744451   -0.651641   -0.221690
      4          1           0       -1.955579    0.463171   -0.851519
      5          1           0       -1.922488    0.673085    0.689970
      6          6           0        0.532526    0.578046    0.088099
      7          1           0       -0.590067   -1.053349   -0.767287
      8          1           0       -0.426877   -1.021273    0.986321
      9          6           0        2.054545   -0.145924   -0.136903
     10          1           0        0.493604    1.538797    1.128585
     11          1           0        0.108427    0.889269   -0.427091
     12          1           0        2.564357   -1.253420    1.101223
     13          1           0        2.726318    0.484450   -0.683073
     14          1           0        1.979579   -0.296332   -0.803617
 ---------------------------------------------------------------------

 SCF Done:  E(RB2PLYPD3) =  -157.385091615     A.U. after   12 cycles
 E2(B2PLYPD3) =    -0.2541235857D+00 E(B2PLYPD3) =    -0.15763921520067D+03

 The electronic state is 1-A.
 Alpha  occ. eigenvalues --  -10.62813 -10.61442 -10.59429 -10.55477  -0.95856
 Alpha  occ. eigenvalues --   -0.90284  -0.81714  -0.69028  -0.57753  -0.53132
 Alpha  occ. eigenvalues --   -0.49067  -0.45513  -0.44169  -0.39449  -0.38482
 Alpha  occ. eigenvalues --   -0.35100  -0.34689
 Alpha virt. eigenvalues --    0.00189   0.06004   0.07276   0.07445   0.09879
 Alpha virt. eigenvalues --    0.11301   0.12516   0.13312   0.14581   0.15860
 Alpha virt. eigenvalues --    0.16261   0.17088   0.18229   0.19117   0.19689

 Mulliken charges:
               1
     1  C   -0.212905
     2  C   -0.034421
     3  H    0.045526
     4  H    0.112723
     5  H    0.064274
     6  C   -0.552290
     7  H    0.022803
     8  H    0.039290
     9  C   -0.625652
    10  H    0.002672
    11  H    0.489029
    12  H    0.060200
    13  H    0.058984
    14  H    0.529765
 Sum of Mulliken charges =   0.00000

 Dipole moment (field-independent basis, Debye):
    X=             -0.2671    Y=             -0.3298    Z=             -1.0911  Tot=              1.1707
 Quadrupole moment (field-independent basis, Debye-Ang):
   XX=            -29.0473   YY=            -29.8901   ZZ=            -26.9941
   XY=             -0.1525   XZ=             -0.3579   YZ=             -0.8767

 Normal termination of Gaussian 09 at Wed Aug 26 15:10:07 2020.
