 Gaussian 09, Revision D.01,
 Gaussian 09:  ES64L-G09RevD.01 24-Apr-2013

 --------------------
 #p B2PLYPD3/Def2QZVP
 --------------------

 ----------
 butane_opt
 ----------
 Symbolic Z-matrix:
 Charge =  0 Multiplicity = 1

                         Standard orientation:
 ---------------------------------------------------------------------
 Center     Atomic      Atomic             Coordinates (Angstroms)
 Number     Number       Type             X           Y           Z
 ---------------------------------------------------------------------
      1          6           0        1.943094   -0.207149   -0.103796
      2          6           0        0.502521    0.591932    0.071425
      3          1           0        2.663844    0.466013   -0.283839
      4          1           0        1.864611   -0.648116   -0.840875
      5          1           0        2.583598   -0.655454    0.734088
      6          6           0       -0.586422   -0.467455    0.133180
      7          1           0        0.249163    1.097752   -0.892090
      8          1           0        0.332265    1.398638    1.058270
      9          6           0       -1.815957    0.079528   -0.106064
     10          1           0       -0.609744   -1.517815    1.353509
     11          1           0       -0.781641   -0.763140   -0.516438
     12          1           0       -2.261032    1.110190    0.919534
     13          1           0       -2.811619   -0.804363   -0.659423
     14          1           0       -1.488865    0.335161   -0.841210
 ---------------------------------------------------------------------

 SCF Done:  E(RB2PLYPD3) =  -157.532501808     A.U. after   12 cycles
 E2(B2PLYPD3) =    -0.2568980345D+00 E(B2PLYPD3) =    -0.15778939984223D+03

 The electronic state is 1-A.
 Alpha  occ. eigenvalues --  -10.65734 -10.64601 -10.61363 -10.58608  -1.04214
 Alpha  occ. eigenvalues --   -0.86895  -0.74867  -0.67477  -0.56245  -0.53329
 Alpha  occ. eigenvalues --   -0.49108  -0.47855  -0.42362  -0.41253  -0.38302
 Alpha  occ. eigenvalues --   -0.34980  -0.33216
 Alpha virt. eigenvalues --    0.02436   0.05345   0.06116   0.07439   0.09257
 Alpha virt. eigenvalues --    0.09762   0.11356   0.12525   0.14686   0.15306
 Alpha virt. eigenvalues --    0.16065   0.16510   0.17586   0.18778   0.20203

 Mulliken charges:
               1
     1  C   -0.200591
     2  C   -0.052459
     3  H    0.033185
     4  H    0.124946
     5  H    0.056068
     6  C   -0.453601
     7  H    0.054915
     8  H    0.046471
     9  C   -0.293495
    10  H   -0.030439
    11  H    0.461157
    12  H    0.003214
    13  H    0.027368
    14  H    0.223261
 Sum of Mulliken charges =   0.00000

 Dipole moment (field-independent basis, Debye):
    X=              0.8071    Y=              0.3618    Z=             -1.2496  Tot=              1.5310
 Quadrupole moment (field-independent basis, Debye-Ang):
   XX=            -29.9963   YY=            -31.0134   ZZ=            -28.5109
   XY=              0.6814   XZ=              1.2539   YZ=              1.1658

 Normal termination of Gaussian 09 at Wed Aug 26 16:25:32 2020.
