 Gaussian 09, Revision D.01,
 Gaussian 09:  ES64L-G09RevD.01 24-Apr-2013

 --------------------
 #p B2PLYPD3/Def2QZVP
 --------------------

 ----------
 butane_opt
 ----------
 Symbolic Z-matrix:
 Charge =  0 Multiplicity = 1

                         Standard orientation:
 ---------------------------------------------------------------------
 Center     Atomic      Atomic             Coordinates (Angstroms)
 Number     Number       Type             X           Y           Z
 ---------------------------------------------------------------------
      1          6           0        1.911489    0.136363   -0.031007
      2          6           0        0.627566   -0.553470    0.088501
      3          1           0        2.554466   -0.651913   -0.876010
      4          1           0        2.429209    0.844141    0.976288
      5          1           0        1.717568    0.511509   -0.636007
      6          6           0       -0.510810    0.592649   -0.011177
      7          1           0        0.646529   -1.291493    1.106876
      8          1           0        0.552594   -0.906843   -0.705478
      9          6           0       -1.983100   -0.185879   -0.028614
     10          1           0       -0.576126    1.076782   -0.738842
     11          1           0       -0.407670    1.280393    0.873224
     12          1           0       -2.083411   -0.621744   -0.786167
     13          1           0       -2.852386    0.596944   -0.172568
     14          1           0       -2.251645   -0.775758    0.852460
 ---------------------------------------------------------------------

 SCF Done:  E(RB2PLYPD3) =  -157.705776916     A.U. after   11 cycles
 E2(B2PLYPD3) =    -0.2493989841D+00 E(B2PLYPD3) =    -0.15795517590017D+03

 The electronic state is 1-A.
 Alpha  occ. eigenvalues --  -10.60350 -10.60084 -10.60074 -10.58860  -0.94942
 Alpha  occ. eigenvalues --   -0.85444  -0.75173  -0.70648  -0.56488  -0.51278
 Alpha  occ. eigenvalues --   -0.48505  -0.44942  -0.43649  -0.41478  -0.40970
 Alpha  occ. eigenvalues --   -0.38138  -0.33381
 Alpha virt. eigenvalues --    0.04481   0.06515   0.08041   0.08542   0.10617
 Alpha virt. eigenvalues --    0.11719   0.11997   0.12799   0.14706   0.15383
 Alpha virt. eigenvalues --    0.16234   0.16994   0.18259   0.18692   0.21042

 Mulliken charges:
               1
     1  C   -0.585544
     2  C   -0.149284
     3  H    0.005095
     4  H    0.067053
     5  H    0.455350
     6  C   -0.130294
     7  H    0.041539
     8  H    0.176502
     9  C   -0.203290
    10  H    0.115225
    11  H    0.032869
    12  H    0.106754
    13  H    0.010524
    14  H    0.057501
 Sum of Mulliken charges =   0.00000

 Dipole moment (field-independent basis, Debye):
    X=             -0.2929    Y=              0.2424    Z=             -0.5064  Tot=              0.6332
 Quadrupole moment (field-independent basis, Debye-Ang):
   XX=            -31.9923   YY=            -28.9219   ZZ=            -26.8792
   XY=              0.8074   XZ=              0.6619   YZ=              0.2032

 Normal termination of Gaussian 09 at Wed Aug 26 15:09:50 2020.
