 Gaussian 09, Revision D.01,
 Gaussian 09:  ES64L-G09RevD.01 24-Apr-2013

 --------------------
 #p B2PLYPD3/Def2QZVP
 --------------------

 ----------
 butane_opt
 ----------
 Symbolic Z-matrix:
 Charge =  0 Multiplicity = 1

                         Standard orientation:
 ---------------------------------------------------------------------
 Center     Atomic      Atomic             Coordinates (Angstroms)
 Number     Number       Type             X           Y           Z
 ---------------------------------------------------------------------
      1          6           0       -1.953243   -0.117038    0.174236
      2          6           0       -0.498815    0.605393   -0.346248
      3          1           0       -2.700405    0.498698    0.659139
      4          1           0       -1.594026   -0.785794    1.031627
      5          1           0       -2.439305   -0.971537   -0.707012
      6          6           0        0.530238   -0.481732   -0.148168
      7          1           0       -0.322706    1.080801    0.375262
      8          1           0       -0.349940    1.090622   -1.166800
      9          6           0        1.832138    0.058763    0.256867
     10          1           0        0.981137   -1.047588   -1.087734
     11          1           0        0.338314   -1.060282    0.734547
     12          1           0        2.057660    0.461862   -0.569015
     13          1           0        2.613339   -0.680105   -0.171760
     14          1           0        1.954032    1.021006    1.281619
 ---------------------------------------------------------------------

 SCF Done:  E(RB2PLYPD3) =  -157.887579995     A.U. after   11 cycles
 E2(B2PLYPD3) =    -0.2527803706D+00 E(B2PLYPD3) =    -0.15814036036577D+03

 The electronic state is 1-A.
 Alpha  occ. eigenvalues --  -10.63638 -10.60987 -10.60927 -10.58466  -0.94042
 Alpha  occ. eigenvalues --   -0.83792  -0.73240  -0.67629  -0.56856  -0.49003
 Alpha  occ. eigenvalues --   -0.48108  -0.47461  -0.41381  -0.40901  -0.37884
 Alpha  occ. eigenvalues --   -0.35885  -0.35252
 Alpha virt. eigenvalues --    0.04740   0.06064   0.06934   0.08689   0.10789
 Alpha virt. eigenvalues --    0.11230   0.11743   0.13072   0.14103   0.14922
 Alpha virt. eigenvalues --    0.16005   0.17149   0.18196   0.19085   0.20817

 Mulliken charges:
               1
     1  C   -0.165167
     2  C   -0.183675
     3  H    0.061517
     4  H    0.049946
     5  H    0.028545
     6  C   -0.032220
     7  H    0.152279
     8  H    0.064335
     9  C   -0.208799
    10  H    0.018623
    11  H    0.056821
    12  H    0.094307
    13  H    0.033875
    14  H    0.029612
 Sum of Mulliken charges =   0.00000

 Dipole moment (field-independent basis, Debye):
    X=              0.2657    Y=              0.3925    Z=             -0.2564  Tot=              0.5389
 Quadrupole moment (field-independent basis, Debye-Ang):
   XX=            -31.0590   YY=            -29.5679   ZZ=            -28.0060
   XY=             -0.4452   XZ=             -2.4880   YZ=              0.5847

 Normal termination of Gaussian 09 at Wed Aug 26 22:52:12 2020.
