 Gaussian 09, Revision D.01,
 Gaussian 09:  ES64L-G09RevD.01 24-Apr-2013

 --------------------
 #p B2PLYPD3/Def2QZVP
 --------------------

 ----------
 butane_opt
 ----------
 Symbolic Z-matrix:
 Charge =  0 Multiplicity = 1

                         Standard orientation:
 ---------------------------------------------------------------------
 Center     Atomic      Atomic             Coordinates (Angstroms)
 Number     Number       Type             X           Y           Z
 ---------------------------------------------------------------------
      1          6           0       -1.894590   -0.043637   -0.235844
      2          6           0       -0.624450   -0.293051    0.418154
      3          1           0       -2.598827   -0.753580   -0.271524
      4          1           0       -1.675487    0.188146   -1.229552
      5          1           0       -2.173377    1.028925    0.463121
      6          6           0        0.518265    0.614714   -0.010817
      7          1           0       -0.293916   -1.005861   -0.191411
      8          1           0       -0.701886   -0.699197    1.680334
      9          6           0        1.944297   -0.212971   -0.117485
     10          1           0        0.530736    1.330904    0.456984
     11          1           0        0.234190    0.749949   -0.972746
     12          1           0        2.196804   -0.304659    0.614911
     13          1           0        2.808497    0.545024    0.059287
     14          1           0        2.012134   -1.469983   -0.933449
 ---------------------------------------------------------------------

 SCF Done:  E(RB2PLYPD3) =  -157.740658132     A.U. after   11 cycles
 E2(B2PLYPD3) =    -0.2519033726D+00 E(B2PLYPD3) =    -0.15799256150463D+03

 The electronic state is 1-A.
 Alpha  occ. eigenvalues --  -10.61567 -10.60487 -10.60341 -10.58712  -0.94154
 Alpha  occ. eigenvalues --   -0.86334  -0.78222  -0.67657  -0.57461  -0.52212
 Alpha  occ. eigenvalues --   -0.48501  -0.45734  -0.42477  -0.40275  -0.38883
 Alpha  occ. eigenvalues --   -0.36682  -0.33537
 Alpha virt. eigenvalues --    0.03650   0.05894   0.07446   0.08050   0.10125
 Alpha virt. eigenvalues --    0.11531   0.12077   0.12725   0.14484   0.15041
 Alpha virt. eigenvalues --    0.15786   0.17042   0.18587   0.19632   0.20742

 Mulliken charges:
               1
     1  C   -0.134228
     2  C   -0.089063
     3  H    0.063290
     4  H    0.048290
     5  H    0.003006
     6  C   -0.132163
     7  H    0.069042
     8  H    0.007241
     9  C   -0.410098
    10  H    0.128530
    11  H    0.070850
    12  H    0.298192
    13  H    0.019986
    14  H    0.057125
 Sum of Mulliken charges =   0.00000

 Dipole moment (field-independent basis, Debye):
    X=              0.2446    Y=             -0.1878    Z=              0.0754  Tot=              0.3175
 Quadrupole moment (field-independent basis, Debye-Ang):
   XX=            -30.3815   YY=            -28.9028   ZZ=            -28.4849
   XY=              1.3260   XZ=              2.2296   YZ=              1.6816

 Normal termination of Gaussian 09 at Wed Aug 26 11:47:04 2020.
