 Gaussian 09, Revision D.01,
 Gaussian 09:  ES64L-G09RevD.01 24-Apr-2013

 --------------------
 #p B2PLYPD3/Def2QZVP
 --------------------

 ----------
 butane_opt
 ----------
 Symbolic Z-matrix:
 Charge =  0 Multiplicity = 1

                         Standard orientation:
 ---------------------------------------------------------------------
 Center     Atomic      Atomic             Coordinates (Angstroms)
 Number     Number       Type             X           Y           Z
 ---------------------------------------------------------------------
      1          6           0        1.910814   -0.114699    0.088318
      2          6           0        0.538439    0.475417   -0.172099
      3          1           0        2.831022    0.912503   -0.205066
      4          1           0        1.907249   -0.386903   -0.720046
      5          1           0        1.923608   -0.960884    1.262052
      6          6           0       -0.512833   -0.581203    0.006881
      7          1           0        0.343225    1.122665   -1.044414
      8          1           0        0.392961    1.172159    0.651024
      9          6           0       -1.888810    0.121024    0.112375
     10          1           0       -0.063251   -1.050267    0.784734
     11          1           0       -0.417229   -1.097731   -0.769944
     12          1           0       -2.579061    1.296657    1.196338
     13          1           0       -2.679115   -0.733998   -0.845758
     14          1           0       -1.945068    0.322565   -0.521773
 ---------------------------------------------------------------------

 SCF Done:  E(RB2PLYPD3) =  -157.402665178     A.U. after   13 cycles
 E2(B2PLYPD3) =    -0.2611310998D+00 E(B2PLYPD3) =    -0.15766379627760D+03

 The electronic state is 1-A.
 Alpha  occ. eigenvalues --  -10.64963 -10.63757 -10.60653 -10.59680  -0.96036
 Alpha  occ. eigenvalues --   -0.88183  -0.77811  -0.68526  -0.57212  -0.50859
 Alpha  occ. eigenvalues --   -0.47766  -0.44504  -0.41504  -0.39936  -0.38253
 Alpha  occ. eigenvalues --   -0.36340  -0.31940
 Alpha virt. eigenvalues --   -0.01925   0.03216   0.04164   0.06756   0.09357
 Alpha virt. eigenvalues --    0.09923   0.11329   0.12056   0.13667   0.14978
 Alpha virt. eigenvalues --    0.15747   0.16814   0.17689   0.18439   0.19814

 Mulliken charges:
               1
     1  C   -0.315364
     2  C   -0.045434
     3  H    0.013867
     4  H    0.204252
     5  H    0.070435
     6  C   -0.036754
     7  H    0.027150
     8  H    0.036586
     9  C   -0.742207
    10  H    0.054122
    11  H    0.078449
    12  H    0.075982
    13  H   -0.053393
    14  H    0.632310
 Sum of Mulliken charges =   0.00000

 Dipole moment (field-independent basis, Debye):
    X=              0.4674    Y=              0.4309    Z=             -0.5453  Tot=              0.8376
 Quadrupole moment (field-independent basis, Debye-Ang):
   XX=            -35.0656   YY=            -29.4931   ZZ=            -27.5629
   XY=             -2.7530   XZ=              0.0348   YZ=              0.1239

 Normal termination of Gaussian 09 at Wed Aug 26 15:49:27 2020.
