 Gaussian 09, Revision D.01,
 Gaussian 09:  ES64L-G09RevD.01 24-Apr-2013

 --------------------
 #p B2PLYPD3/Def2QZVP
 --------------------

 ----------
 butane_opt
 ----------
 Symbolic Z-matrix:
 Charge =  0 Multiplicity = 1

                         Standard orientation:
 ---------------------------------------------------------------------
 Center     Atomic      Atomic             Coordinates (Angstroms)
 Number     Number       Type             X           Y           Z
 ---------------------------------------------------------------------
      1          6           0        1.905737   -0.107418    0.066583
      2          6           0        0.532848    0.531412   -0.087512
      3          1           0        2.579261    0.632115   -0.123935
      4          1           0        2.120203   -0.491969   -0.634020
      5          1           0        2.139454   -0.939894    1.121727
      6          6           0       -0.528382   -0.528790   -0.077091
      7          1           0        0.412145    1.245469   -1.017312
      8          1           0        0.352980    0.988835    0.709131
      9          6           0       -1.920585    0.107979    0.030798
     10          1           0       -0.414118   -1.201313    0.823160
     11          1           0       -0.422310   -1.122952   -0.915654
     12          1           0       -2.138482    1.205839    1.220484
     13          1           0       -2.726570   -0.731581   -0.214662
     14          1           0       -1.840273    0.396348   -0.565587
 ---------------------------------------------------------------------

 SCF Done:  E(RB2PLYPD3) =  -157.586673471     A.U. after   12 cycles
 E2(B2PLYPD3) =    -0.2504932944D+00 E(B2PLYPD3) =    -0.15783716676540D+03

 The electronic state is 1-A.
 Alpha  occ. eigenvalues --  -10.61034 -10.60135 -10.59489 -10.58446  -0.94689
 Alpha  occ. eigenvalues --   -0.87972  -0.77507  -0.68738  -0.55149  -0.49970
 Alpha  occ. eigenvalues --   -0.49330  -0.47390  -0.42252  -0.40509  -0.38668
 Alpha  occ. eigenvalues --   -0.37698  -0.36193
 Alpha virt. eigenvalues --    0.03074   0.05822   0.07149   0.07731   0.10588
 Alpha virt. eigenvalues --    0.11197   0.12029   0.13268   0.13900   0.15679
 Alpha virt. eigenvalues --    0.15933   0.16381   0.18634   0.19743   0.22012

 Mulliken charges:
               1
     1  C   -0.267255
     2  C   -0.058116
     3  H    0.036798
     4  H    0.152034
     5  H    0.037418
     6  C   -0.005768
     7  H    0.010148
     8  H    0.096722
     9  C   -0.738454
    10  H    0.027708
    11  H    0.047319
    12  H    0.012602
    13  H    0.075086
    14  H    0.573758
 Sum of Mulliken charges =   0.00000

 Dipole moment (field-independent basis, Debye):
    X=              0.3949    Y=             -0.1430    Z=             -0.8283  Tot=              0.9287
 Quadrupole moment (field-independent basis, Debye-Ang):
   XX=            -30.6980   YY=            -28.7340   ZZ=            -27.8231
   XY=              0.6277   XZ=              0.1045   YZ=              0.0459

 Normal termination of Gaussian 09 at Wed Aug 26 11:27:17 2020.
