 Gaussian 09, Revision D.01,
 Gaussian 09:  ES64L-G09RevD.01 24-Apr-2013

 --------------------
 #p B2PLYPD3/Def2QZVP
 --------------------

 ----------
 butane_opt
 ----------
 Symbolic Z-matrix:
 Charge =  0 Multiplicity = 1

                         Standard orientation:
 ---------------------------------------------------------------------
 Center     Atomic      Atomic             Coordinates (Angstroms)
 Number     Number       Type             X           Y           Z
 ---------------------------------------------------------------------
      1          6           0        2.051727   -0.159058   -0.161645
      2          6           0        0.511708    0.561880    0.024543
      3          1           0        2.688238    0.210349    0.011216
      4          1           0        2.406830   -1.127139   -0.968384
      5          1           0        2.245214   -0.507654    0.815258
      6          6           0       -0.598996   -0.369721    0.291399
      7          1           0        0.385719    0.998215   -0.710634
      8          1           0        0.468570    1.660181    0.888189
      9          6           0       -1.966545    0.022462   -0.189731
     10          1           0       -0.770037   -1.065758    1.531951
     11          1           0       -0.468338   -0.966136   -0.407049
     12          1           0       -2.064359    0.952379    0.616025
     13          1           0       -2.960439   -1.008303   -0.298641
     14          1           0       -1.918756    0.520486   -1.265323
 ---------------------------------------------------------------------

 SCF Done:  E(RB2PLYPD3) =  -157.665594444     A.U. after   11 cycles
 E2(B2PLYPD3) =    -0.2552682901D+00 E(B2PLYPD3) =    -0.15792086273376D+03

 The electronic state is 1-A.
 Alpha  occ. eigenvalues --  -10.65959 -10.63832 -10.62103 -10.59672  -0.93611
 Alpha  occ. eigenvalues --   -0.86684  -0.77093  -0.66651  -0.54121  -0.50391
 Alpha  occ. eigenvalues --   -0.47406  -0.45955  -0.41096  -0.39661  -0.38182
 Alpha  occ. eigenvalues --   -0.36547  -0.34623
 Alpha virt. eigenvalues --    0.03142   0.05752   0.06410   0.07025   0.09894
 Alpha virt. eigenvalues --    0.11117   0.11529   0.12571   0.13761   0.14677
 Alpha virt. eigenvalues --    0.15368   0.16276   0.18988   0.19318   0.19892

 Mulliken charges:
               1
     1  C   -0.412419
     2  C   -0.136890
     3  H    0.300181
     4  H    0.045457
     5  H    0.042478
     6  C   -0.107032
     7  H    0.164898
     8  H   -0.014069
     9  C   -0.176710
    10  H    0.018197
    11  H    0.138155
    12  H    0.043813
    13  H    0.049169
    14  H    0.044771
 Sum of Mulliken charges =   0.00000

 Dipole moment (field-independent basis, Debye):
    X=              0.4030    Y=             -0.1149    Z=             -0.4626  Tot=              0.6242
 Quadrupole moment (field-independent basis, Debye-Ang):
   XX=            -29.6968   YY=            -29.9320   ZZ=            -29.0614
   XY=              0.6368   XZ=              1.0362   YZ=              0.3992

 Normal termination of Gaussian 09 at Wed Aug 26 19:03:46 2020.
