 Gaussian 09, Revision D.01,
 Gaussian 09:  ES64L-G09RevD.01 24-Apr-2013

 --------------------
 #p B2PLYPD3/Def2QZVP
 --------------------

 ----------
 butane_opt
 ----------
 Symbolic Z-matrix:
 Charge =  0 Multiplicity = 1

                         Standard orientation:
 ---------------------------------------------------------------------
 Center     Atomic      Atomic             Coordinates (Angstroms)
 Number     Number       Type             X           Y           Z
 ---------------------------------------------------------------------
      1          6           0        1.932636   -0.120316   -0.111666
      2          6           0        0.545249    0.443443    0.038130
      3          1           0        2.810122    0.734450   -0.217049
      4          1           0        1.786296   -0.970111   -0.997511
      5          1           0        2.270925   -0.533827    0.715107
      6          6           0       -0.624961   -0.468249    0.255095
      7          1           0        0.355584    0.935625   -0.813592
      8          1           0        0.474829    1.451160    0.990994
      9          6           0       -1.932230    0.084709   -0.177640
     10          1           0       -0.492797   -1.397124    1.396531
     11          1           0       -0.265668   -0.790657   -0.324763
     12          1           0       -2.429225    1.147222    0.857252
     13          1           0       -2.472824   -0.640760   -0.869324
     14          1           0       -1.561407    0.426503   -0.761163
 ---------------------------------------------------------------------

 SCF Done:  E(RB2PLYPD3) =  -157.594684358     A.U. after   12 cycles
 E2(B2PLYPD3) =    -0.2548595147D+00 E(B2PLYPD3) =    -0.15784954387271D+03

 The electronic state is 1-A.
 Alpha  occ. eigenvalues --  -10.63555 -10.62974 -10.61705 -10.60868  -0.99258
 Alpha  occ. eigenvalues --   -0.87004  -0.77724  -0.67800  -0.54897  -0.50678
 Alpha  occ. eigenvalues --   -0.49616  -0.47435  -0.43118  -0.40731  -0.38823
 Alpha  occ. eigenvalues --   -0.36266  -0.33169
 Alpha virt. eigenvalues --    0.02947   0.05363   0.06590   0.07406   0.08987
 Alpha virt. eigenvalues --    0.10519   0.11726   0.12221   0.13880   0.14802
 Alpha virt. eigenvalues --    0.16030   0.16416   0.17291   0.19307   0.20227

 Mulliken charges:
               1
     1  C   -0.145371
     2  C   -0.058264
     3  H    0.048664
     4  H    0.029781
     5  H    0.074420
     6  C   -0.433029
     7  H    0.078462
     8  H   -0.035016
     9  C   -0.459337
    10  H   -0.002712
    11  H    0.415318
    12  H    0.043613
    13  H    0.066273
    14  H    0.377197
 Sum of Mulliken charges =   0.00000

 Dipole moment (field-independent basis, Debye):
    X=              0.6105    Y=             -0.1395    Z=             -1.0992  Tot=              1.2651
 Quadrupole moment (field-independent basis, Debye-Ang):
   XX=            -30.3942   YY=            -30.5411   ZZ=            -28.7628
   XY=              0.0400   XZ=              1.5107   YZ=              0.6172

 Normal termination of Gaussian 09 at Wed Aug 26 11:22:36 2020.
