 Gaussian 09, Revision D.01,
 Gaussian 09:  ES64L-G09RevD.01 24-Apr-2013

 --------------------
 #p B2PLYPD3/Def2QZVP
 --------------------

 ----------
 butane_opt
 ----------
 Symbolic Z-matrix:
 Charge =  0 Multiplicity = 1

                         Standard orientation:
 ---------------------------------------------------------------------
 Center     Atomic      Atomic             Coordinates (Angstroms)
 Number     Number       Type             X           Y           Z
 ---------------------------------------------------------------------
      1          6           0       -2.015503    0.118153   -0.081667
      2          6           0       -0.595578   -0.533904    0.158090
      3          1           0       -2.852190   -0.730289   -0.838640
      4          1           0       -1.709990    0.363586   -0.799216
      5          1           0       -2.377649    0.950326    1.073228
      6          6           0        0.528080    0.593014    0.126472
      7          1           0       -0.390267   -1.153726   -0.754630
      8          1           0       -0.539399   -1.311037    1.200575
      9          6           0        1.991624   -0.096938   -0.092487
     10          1           0        0.499581    1.199889    0.813018
     11          1           0        0.299126    1.339198   -0.964229
     12          1           0        2.605627   -0.987852    0.871991
     13          1           0        2.792966    0.616296   -0.268900
     14          1           0        2.220451   -0.768341   -0.995642
 ---------------------------------------------------------------------

 SCF Done:  E(RB2PLYPD3) =  -157.779851044     A.U. after   11 cycles
 E2(B2PLYPD3) =    -0.2566438382D+00 E(B2PLYPD3) =    -0.15803649488205D+03

 The electronic state is 1-A.
 Alpha  occ. eigenvalues --  -10.65022 -10.64884 -10.64501 -10.63897  -0.91161
 Alpha  occ. eigenvalues --   -0.83134  -0.72772  -0.66941  -0.52765  -0.47450
 Alpha  occ. eigenvalues --   -0.46578  -0.45020  -0.42606  -0.38633  -0.37825
 Alpha  occ. eigenvalues --   -0.35778  -0.35445
 Alpha virt. eigenvalues --    0.02860   0.04936   0.05913   0.07214   0.08715
 Alpha virt. eigenvalues --    0.10337   0.11515   0.11973   0.13426   0.14757
 Alpha virt. eigenvalues --    0.15557   0.16394   0.17450   0.19211   0.19905

 Mulliken charges:
               1
     1  C   -0.396303
     2  C   -0.049539
     3  H    0.015569
     4  H    0.292227
     5  H    0.064403
     6  C   -0.065830
     7  H    0.056239
     8  H    0.029929
     9  C   -0.145384
    10  H    0.101551
    11  H   -0.006065
    12  H    0.008367
    13  H    0.056578
    14  H    0.038258
 Sum of Mulliken charges =   0.00000

 Dipole moment (field-independent basis, Debye):
    X=              0.4162    Y=              0.4724    Z=             -0.4282  Tot=              0.7614
 Quadrupole moment (field-independent basis, Debye-Ang):
   XX=            -32.3483   YY=            -30.1286   ZZ=            -28.5736
   XY=             -0.1428   XZ=             -0.6935   YZ=              1.3623

 Normal termination of Gaussian 09 at Wed Aug 26 19:10:52 2020.
