 Gaussian 09, Revision D.01,
 Gaussian 09:  ES64L-G09RevD.01 24-Apr-2013

 --------------------
 #p B2PLYPD3/Def2QZVP
 --------------------

 ----------
 butane_opt
 ----------
 Symbolic Z-matrix:
 Charge =  0 Multiplicity = 1

                         Standard orientation:
 ---------------------------------------------------------------------
 Center     Atomic      Atomic             Coordinates (Angstroms)
 Number     Number       Type             X           Y           Z
 ---------------------------------------------------------------------
      1          6           0        1.926659    0.084762   -0.062846
      2          6           0        0.563385   -0.502548    0.074889
      3          1           0        2.653380   -0.605887   -0.065994
      4          1           0        2.076125    0.702768    0.799925
      5          1           0        2.057431    0.801065   -0.989609
      6          6           0       -0.538998    0.530559    0.090126
      7          1           0        0.583420   -1.124963    0.911030
      8          1           0        0.384467   -1.113210   -0.805936
      9          6           0       -1.942794   -0.137160   -0.064418
     10          1           0       -0.428797    1.170918   -0.730273
     11          1           0       -0.464522    1.210000    0.961942
     12          1           0       -1.927293   -0.776682   -0.932230
     13          1           0       -2.709674    0.641937   -0.229936
     14          1           0       -2.274051   -0.759615    0.854578
 ---------------------------------------------------------------------

 SCF Done:  E(RB2PLYPD3) =  -158.112524086     A.U. after   10 cycles
 E2(B2PLYPD3) =    -0.2457112925D+00 E(B2PLYPD3) =    -0.15835823537808D+03

 The electronic state is 1-A.
 Alpha  occ. eigenvalues --  -10.60573 -10.60081 -10.59247 -10.58918  -0.91650
 Alpha  occ. eigenvalues --   -0.83193  -0.72704  -0.67098  -0.54436  -0.50487
 Alpha  occ. eigenvalues --   -0.48780  -0.47134  -0.42889  -0.40676  -0.39039
 Alpha  occ. eigenvalues --   -0.38201  -0.37987
 Alpha virt. eigenvalues --    0.05931   0.06904   0.08277   0.08875   0.10980
 Alpha virt. eigenvalues --    0.12122   0.12943   0.14010   0.14924   0.15293
 Alpha virt. eigenvalues --    0.15569   0.16596   0.19712   0.20432   0.22253

 Mulliken charges:
               1
     1  C   -0.135437
     2  C   -0.041406
     3  H    0.051987
     4  H    0.038601
     5  H    0.021987
     6  C   -0.043916
     7  H    0.040040
     8  H    0.024257
     9  C   -0.148914
    10  H    0.043108
    11  H    0.021979
    12  H    0.051132
    13  H    0.041315
    14  H    0.035266
 Sum of Mulliken charges =   0.00000

 Dipole moment (field-independent basis, Debye):
    X=              0.0914    Y=             -0.0471    Z=              0.0086  Tot=              0.1032
 Quadrupole moment (field-independent basis, Debye-Ang):
   XX=            -29.7485   YY=            -28.6658   ZZ=            -28.1217
   XY=             -0.6966   XZ=              0.3708   YZ=             -0.1866

 Normal termination of Gaussian 09 at Wed Aug 26 22:07:25 2020.
