 Gaussian 09, Revision D.01,
 Gaussian 09:  ES64L-G09RevD.01 24-Apr-2013

 --------------------
 #p B2PLYPD3/Def2QZVP
 --------------------

 ----------
 butane_opt
 ----------
 Symbolic Z-matrix:
 Charge =  0 Multiplicity = 1

                         Standard orientation:
 ---------------------------------------------------------------------
 Center     Atomic      Atomic             Coordinates (Angstroms)
 Number     Number       Type             X           Y           Z
 ---------------------------------------------------------------------
      1          6           0       -2.007532    0.071962    0.073628
      2          6           0       -0.642302   -0.465072   -0.132563
      3          1           0       -2.740195   -0.865055    0.269248
      4          1           0       -1.956312    0.483695   -0.600659
      5          1           0       -1.902848    1.074026    1.237120
      6          6           0        0.585653    0.577050   -0.246028
      7          1           0       -0.877228   -0.949733   -0.810527
      8          1           0       -0.359124   -1.213173    0.746369
      9          6           0        2.038307   -0.144119    0.149982
     10          1           0        0.258784    1.079216    0.518636
     11          1           0        0.473707    1.232873   -1.199252
     12          1           0        1.902593   -0.341515    0.853528
     13          1           0        2.624754    0.324099    0.742817
     14          1           0        2.731114   -1.063356   -0.827391
 ---------------------------------------------------------------------

 SCF Done:  E(RB2PLYPD3) =  -157.545799234     A.U. after   11 cycles
 E2(B2PLYPD3) =    -0.2528157334D+00 E(B2PLYPD3) =    -0.15779861496698D+03

 The electronic state is 1-A.
 Alpha  occ. eigenvalues --  -10.62669 -10.61999 -10.60002 -10.59339  -0.94857
 Alpha  occ. eigenvalues --   -0.91518  -0.78333  -0.69490  -0.55324  -0.52136
 Alpha  occ. eigenvalues --   -0.48729  -0.45142  -0.42710  -0.39096  -0.38670
 Alpha  occ. eigenvalues --   -0.36204  -0.35248
 Alpha virt. eigenvalues --    0.04199   0.04786   0.07890   0.08073   0.09213
 Alpha virt. eigenvalues --    0.10824   0.11808   0.12467   0.14356   0.14834
 Alpha virt. eigenvalues --    0.16526   0.17305   0.18214   0.18593   0.20097

 Mulliken charges:
               1
     1  C   -0.399775
     2  C   -0.100450
     3  H    0.089009
     4  H    0.298653
     5  H   -0.033598
     6  C   -0.107196
     7  H    0.130795
     8  H    0.007911
     9  C   -0.525929
    10  H    0.095847
    11  H    0.032460
    12  H    0.397957
    13  H    0.066704
    14  H    0.047611
 Sum of Mulliken charges =   0.00000

 Dipole moment (field-independent basis, Debye):
    X=              0.0294    Y=             -0.4408    Z=             -0.0107  Tot=              0.4419
 Quadrupole moment (field-independent basis, Debye-Ang):
   XX=            -30.3896   YY=            -29.7237   ZZ=            -27.6221
   XY=              1.3511   XZ=              2.7888   YZ=              0.1145

 Normal termination of Gaussian 09 at Wed Aug 26 15:11:05 2020.
