 Gaussian 09, Revision D.01,
 Gaussian 09:  ES64L-G09RevD.01 24-Apr-2013

 --------------------
 #p B2PLYPD3/Def2QZVP
 --------------------

 ----------
 butane_opt
 ----------
 Symbolic Z-matrix:
 Charge =  0 Multiplicity = 1

                         Standard orientation:
 ---------------------------------------------------------------------
 Center     Atomic      Atomic             Coordinates (Angstroms)
 Number     Number       Type             X           Y           Z
 ---------------------------------------------------------------------
      1          6           0        1.960628   -0.219152   -0.113305
      2          6           0        0.551556    0.679169    0.110303
      3          1           0        2.684720    0.511848   -0.402816
      4          1           0        2.095181   -1.020983   -0.949751
      5          1           0        2.560634   -0.580516    0.767980
      6          6           0       -0.614664   -0.467945    0.204744
      7          1           0        0.385330    1.071995   -0.772668
      8          1           0        0.508696    1.370130    0.876215
      9          6           0       -1.956290    0.041575   -0.178101
     10          1           0       -0.388793   -1.360280    1.346577
     11          1           0       -0.500623   -0.753587   -0.309363
     12          1           0       -2.557739    1.038228    0.835779
     13          1           0       -2.896346   -0.918325   -0.542023
     14          1           0       -1.538435    0.439610   -0.991774
 ---------------------------------------------------------------------

 SCF Done:  E(RB2PLYPD3) =  -157.439847213     A.U. after   12 cycles
 E2(B2PLYPD3) =    -0.2541230487D+00 E(B2PLYPD3) =    -0.15769397026215D+03

 The electronic state is 1-A.
 Alpha  occ. eigenvalues --  -10.66139 -10.62249 -10.62102 -10.61426  -0.96507
 Alpha  occ. eigenvalues --   -0.83351  -0.73318  -0.71162  -0.54647  -0.48568
 Alpha  occ. eigenvalues --   -0.47597  -0.46068  -0.43525  -0.41688  -0.37905
 Alpha  occ. eigenvalues --   -0.36723  -0.34428
 Alpha virt. eigenvalues --    0.03282   0.05917   0.07066   0.08363   0.08962
 Alpha virt. eigenvalues --    0.10368   0.12128   0.12561   0.14057   0.14956
 Alpha virt. eigenvalues --    0.15852   0.16470   0.18220   0.18780   0.20454

 Mulliken charges:
               1
     1  C   -0.153327
     2  C   -0.045271
     3  H    0.032651
     4  H    0.041348
     5  H    0.042772
     6  C   -0.874232
     7  H    0.083375
     8  H    0.072332
     9  C   -0.156539
    10  H    0.013179
    11  H    0.784024
    12  H    0.015045
    13  H    0.042259
    14  H    0.102383
 Sum of Mulliken charges =   0.00000

 Dipole moment (field-independent basis, Debye):
    X=              0.7209    Y=              0.3018    Z=             -0.7317  Tot=              1.0706
 Quadrupole moment (field-independent basis, Debye-Ang):
   XX=            -30.5789   YY=            -29.3537   ZZ=            -28.7226
   XY=              0.5936   XZ=              0.5354   YZ=              1.0450

 Normal termination of Gaussian 09 at Wed Aug 26 11:31:03 2020.
