 Gaussian 09, Revision D.01,
 Gaussian 09:  ES64L-G09RevD.01 24-Apr-2013

 --------------------
 #p B2PLYPD3/Def2QZVP
 --------------------

 ----------
 butane_opt
 ----------
 Symbolic Z-matrix:
 Charge =  0 Multiplicity = 1

                         Standard orientation:
 ---------------------------------------------------------------------
 Center     Atomic      Atomic             Coordinates (Angstroms)
 Number     Number       Type             X           Y           Z
 ---------------------------------------------------------------------
      1          6           0       -1.908933    0.149871   -0.082056
      2          6           0       -0.599463   -0.470673   -0.030648
      3          1           0       -2.937829   -0.930534   -0.149437
      4          1           0       -1.964243    0.741916   -0.939111
      5          1           0       -2.003315    0.587123    0.709733
      6          6           0        0.511981    0.493685    0.209602
      7          1           0       -0.203806   -0.794602   -0.590643
      8          1           0       -0.354926   -1.425340    0.996813
      9          6           0        1.950112   -0.160749   -0.097697
     10          1           0        0.475112    1.390085    1.388585
     11          1           0        0.323290    1.139723   -0.553924
     12          1           0        2.469876   -0.936157    0.911654
     13          1           0        2.709453    0.666238   -0.836718
     14          1           0        1.764207   -0.511258   -0.932158
 ---------------------------------------------------------------------

 SCF Done:  E(RB2PLYPD3) =  -157.682033830     A.U. after   11 cycles
 E2(B2PLYPD3) =    -0.2551860327D+00 E(B2PLYPD3) =    -0.15793721986247D+03

 The electronic state is 1-A.
 Alpha  occ. eigenvalues --  -10.64824 -10.64575 -10.62070 -10.60550  -0.96488
 Alpha  occ. eigenvalues --   -0.84775  -0.76746  -0.68326  -0.56106  -0.51283
 Alpha  occ. eigenvalues --   -0.50405  -0.46200  -0.43051  -0.39739  -0.37982
 Alpha  occ. eigenvalues --   -0.35323  -0.33845
 Alpha virt. eigenvalues --    0.03319   0.04482   0.06594   0.06954   0.09616
 Alpha virt. eigenvalues --    0.09913   0.11625   0.11967   0.14473   0.14897
 Alpha virt. eigenvalues --    0.15645   0.15812   0.17837   0.19017   0.19699

 Mulliken charges:
               1
     1  C   -0.146763
     2  C   -0.398402
     3  H    0.005051
     4  H    0.067917
     5  H    0.122477
     6  C   -0.038501
     7  H    0.368315
     8  H   -0.011369
     9  C   -0.254678
    10  H   -0.017701
    11  H    0.071690
    12  H    0.074386
    13  H    0.021898
    14  H    0.135681
 Sum of Mulliken charges =   0.00000

 Dipole moment (field-independent basis, Debye):
    X=              0.0668    Y=              0.1925    Z=             -1.0278  Tot=              1.0478
 Quadrupole moment (field-independent basis, Debye-Ang):
   XX=            -31.9418   YY=            -30.7560   ZZ=            -28.4053
   XY=             -1.8101   XZ=             -0.5364   YZ=             -0.8431

 Normal termination of Gaussian 09 at Wed Aug 26 21:43:24 2020.
