 Gaussian 09, Revision D.01,
 Gaussian 09:  ES64L-G09RevD.01 24-Apr-2013

 --------------------
 #p B2PLYPD3/Def2QZVP
 --------------------

 ----------
 butane_opt
 ----------
 Symbolic Z-matrix:
 Charge =  0 Multiplicity = 1

                         Standard orientation:
 ---------------------------------------------------------------------
 Center     Atomic      Atomic             Coordinates (Angstroms)
 Number     Number       Type             X           Y           Z
 ---------------------------------------------------------------------
      1          6           0        1.962805   -0.178117   -0.093779
      2          6           0        0.515807    0.606156    0.033018
      3          1           0        2.682515    0.581537   -0.201754
      4          1           0        2.047061   -1.105291   -0.931956
      5          1           0        2.456151   -0.569243    0.772136
      6          6           0       -0.538895   -0.500931    0.176096
      7          1           0        0.501329    1.078963   -0.844006
      8          1           0        0.451298    1.496901    0.896829
      9          6           0       -1.979233    0.062110   -0.158795
     10          1           0       -0.355593   -1.183444    1.348857
     11          1           0       -0.510389   -0.720959   -0.340559
     12          1           0       -2.448403    1.010737    0.829939
     13          1           0       -2.851438   -0.895634   -0.351982
     14          1           0       -1.735436    0.371124   -0.916741
 ---------------------------------------------------------------------

 SCF Done:  E(RB2PLYPD3) =  -157.298864571     A.U. after   12 cycles
 E2(B2PLYPD3) =    -0.2526805107D+00 E(B2PLYPD3) =    -0.15755154508167D+03

 The electronic state is 1-A.
 Alpha  occ. eigenvalues --  -10.63313 -10.62873 -10.61665 -10.61528  -0.96677
 Alpha  occ. eigenvalues --   -0.83340  -0.74725  -0.70465  -0.55579  -0.49330
 Alpha  occ. eigenvalues --   -0.47590  -0.44871  -0.42755  -0.40344  -0.39196
 Alpha  occ. eigenvalues --   -0.36596  -0.35836
 Alpha virt. eigenvalues --    0.04464   0.06040   0.07735   0.08146   0.09700
 Alpha virt. eigenvalues --    0.10760   0.11752   0.13041   0.13985   0.14986
 Alpha virt. eigenvalues --    0.15658   0.16392   0.18480   0.19229   0.20470

 Mulliken charges:
               1
     1  C   -0.142017
     2  C    0.000288
     3  H    0.044677
     4  H    0.031358
     5  H    0.033871
     6  C   -0.957573
     7  H    0.064509
     8  H    0.027135
     9  C   -0.262979
    10  H    0.056211
    11  H    0.840097
    12  H    0.026516
    13  H    0.037438
    14  H    0.200469
 Sum of Mulliken charges =   0.00000

 Dipole moment (field-independent basis, Debye):
    X=              0.4936    Y=              0.0516    Z=             -0.3863  Tot=              0.6289
 Quadrupole moment (field-independent basis, Debye-Ang):
   XX=            -30.5994   YY=            -29.0051   ZZ=            -28.2066
   XY=              0.6388   XZ=              0.8213   YZ=              0.4162

 Normal termination of Gaussian 09 at Wed Aug 26 12:47:41 2020.
