 Gaussian 09, Revision D.01,
 Gaussian 09:  ES64L-G09RevD.01 24-Apr-2013

 --------------------
 #p B2PLYPD3/Def2QZVP
 --------------------

 ----------
 butane_opt
 ----------
 Symbolic Z-matrix:
 Charge =  0 Multiplicity = 1

                         Standard orientation:
 ---------------------------------------------------------------------
 Center     Atomic      Atomic             Coordinates (Angstroms)
 Number     Number       Type             X           Y           Z
 ---------------------------------------------------------------------
      1          6           0       -2.000223   -0.195928   -0.143584
      2          6           0       -0.508275    0.489110    0.284403
      3          1           0       -2.819381    0.662450   -0.448117
      4          1           0       -2.597549   -0.596553    0.471734
      5          1           0       -1.934961   -0.877382   -1.083263
      6          6           0        0.654016   -0.438124    0.120480
      7          1           0       -0.615982    1.404781    1.309899
      8          1           0       -0.290037    1.221394   -0.626499
      9          6           0        1.911757    0.089910   -0.169084
     10          1           0        0.485752   -0.906323   -0.539870
     11          1           0        0.654767   -1.378070    1.129501
     12          1           0        1.892908    0.982163   -1.186161
     13          1           0        2.809554   -0.637874    0.001339
     14          1           0        2.071280    0.455608    0.418146
 ---------------------------------------------------------------------

 SCF Done:  E(RB2PLYPD3) =  -157.663112785     A.U. after   11 cycles
 E2(B2PLYPD3) =    -0.2520220281D+00 E(B2PLYPD3) =    -0.15791513481340D+03

 The electronic state is 1-A.
 Alpha  occ. eigenvalues --  -10.66209 -10.62020 -10.59924 -10.58564  -0.95774
 Alpha  occ. eigenvalues --   -0.83910  -0.77365  -0.68467  -0.52825  -0.50973
 Alpha  occ. eigenvalues --   -0.48838  -0.46201  -0.42403  -0.40025  -0.39297
 Alpha  occ. eigenvalues --   -0.38102  -0.34445
 Alpha virt. eigenvalues --    0.05131   0.05541   0.06283   0.07556   0.10467
 Alpha virt. eigenvalues --    0.11767   0.12009   0.13887   0.14306   0.14907
 Alpha virt. eigenvalues --    0.15288   0.15690   0.18046   0.20215   0.21070

 Mulliken charges:
               1
     1  C   -0.138178
     2  C   -0.061415
     3  H    0.014045
     4  H    0.075922
     5  H    0.036608
     6  C   -0.174934
     7  H    0.024168
     8  H    0.031211
     9  C   -0.541358
    10  H    0.233053
    11  H   -0.020360
    12  H    0.036693
    13  H    0.065420
    14  H    0.419127
 Sum of Mulliken charges =   0.00000

 Dipole moment (field-independent basis, Debye):
    X=              0.0099    Y=             -0.0142    Z=             -0.0581  Tot=              0.0607
 Quadrupole moment (field-independent basis, Debye-Ang):
   XX=            -28.3886   YY=            -29.4633   ZZ=            -29.3489
   XY=              0.3418   XZ=              0.5624   YZ=              0.2730

 Normal termination of Gaussian 09 at Wed Aug 26 12:52:12 2020.
