 Gaussian 09, Revision D.01,
 Gaussian 09:  ES64L-G09RevD.01 24-Apr-2013

 --------------------
 #p B2PLYPD3/Def2QZVP
 --------------------

 ----------
 butane_opt
 ----------
 Symbolic Z-matrix:
 Charge =  0 Multiplicity = 1

                         Standard orientation:
 ---------------------------------------------------------------------
 Center     Atomic      Atomic             Coordinates (Angstroms)
 Number     Number       Type             X           Y           Z
 ---------------------------------------------------------------------
      1          6           0        2.044289    0.049331    0.102294
      2          6           0        0.609605   -0.513201   -0.150828
      3          1           0        2.809619   -0.729064    0.203454
      4          1           0        1.774222    0.528073    0.860307
      5          1           0        2.414862    1.110982   -0.922082
      6          6           0       -0.579139    0.579467    0.029653
      7          1           0        0.449204   -1.065555    0.413414
      8          1           0        0.250676   -1.027216   -1.010221
      9          6           0       -2.012365   -0.134256   -0.023372
     10          1           0       -0.432311    1.049339   -0.671524
     11          1           0       -0.478036    1.327125    1.059057
     12          1           0       -2.235465   -0.367814   -0.645848
     13          1           0       -2.841407    0.521241   -0.136319
     14          1           0       -2.085702   -1.235159    1.103281
 ---------------------------------------------------------------------

 SCF Done:  E(RB2PLYPD3) =  -157.554027489     A.U. after   11 cycles
 E2(B2PLYPD3) =    -0.2507641040D+00 E(B2PLYPD3) =    -0.15780479159260D+03

 The electronic state is 1-A.
 Alpha  occ. eigenvalues --  -10.63052 -10.61357 -10.61002 -10.58146  -0.93053
 Alpha  occ. eigenvalues --   -0.87782  -0.77889  -0.72302  -0.54792  -0.52739
 Alpha  occ. eigenvalues --   -0.48233  -0.46428  -0.43247  -0.40166  -0.37615
 Alpha  occ. eigenvalues --   -0.36797  -0.36466
 Alpha virt. eigenvalues --    0.03556   0.04708   0.07949   0.08165   0.09888
 Alpha virt. eigenvalues --    0.10711   0.12276   0.13256   0.14428   0.15235
 Alpha virt. eigenvalues --    0.15713   0.16155   0.18696   0.18802   0.20560

 Mulliken charges:
               1
     1  C   -0.194027
     2  C   -0.260197
     3  H    0.075291
     4  H    0.122262
     5  H   -0.012393
     6  C   -0.117773
     7  H    0.239230
     8  H    0.035497
     9  C   -0.525459
    10  H    0.171081
    11  H    0.012019
    12  H    0.386805
    13  H    0.057179
    14  H    0.010485
 Sum of Mulliken charges =   0.00000

 Dipole moment (field-independent basis, Debye):
    X=             -0.2342    Y=             -0.2446    Z=             -0.2899  Tot=              0.4458
 Quadrupole moment (field-independent basis, Debye-Ang):
   XX=            -29.8518   YY=            -28.9885   ZZ=            -28.6138
   XY=             -1.7872   XZ=              2.8557   YZ=             -0.5041

 Normal termination of Gaussian 09 at Wed Aug 26 10:16:01 2020.
