 Gaussian 09, Revision D.01,
 Gaussian 09:  ES64L-G09RevD.01 24-Apr-2013

 --------------------
 #p B2PLYPD3/Def2QZVP
 --------------------

 ----------
 butane_opt
 ----------
 Symbolic Z-matrix:
 Charge =  0 Multiplicity = 1

                         Standard orientation:
 ---------------------------------------------------------------------
 Center     Atomic      Atomic             Coordinates (Angstroms)
 Number     Number       Type             X           Y           Z
 ---------------------------------------------------------------------
      1          6           0       -1.917343   -0.091572   -0.008223
      2          6           0       -0.544625    0.495274   -0.047230
      3          1           0       -2.746014    0.659879   -0.113774
      4          1           0       -2.207130   -0.802262    1.021244
      5          1           0       -1.888161   -0.625028   -0.839570
      6          6           0        0.519426   -0.569154    0.053366
      7          1           0       -0.605702    1.129976    0.808984
      8          1           0       -0.491764    1.183018   -0.915200
      9          6           0        1.963624    0.136939    0.012571
     10          1           0        0.457567   -1.241461   -0.763991
     11          1           0        0.234187   -1.057416    0.812088
     12          1           0        1.924851    0.574951   -0.705090
     13          1           0        2.817559   -0.612525   -0.351384
     14          1           0        2.378111    0.961944    0.983791
 ---------------------------------------------------------------------

 SCF Done:  E(RB2PLYPD3) =  -157.965102689     A.U. after   11 cycles
 E2(B2PLYPD3) =    -0.2477646216D+00 E(B2PLYPD3) =    -0.15821286731077D+03

 The electronic state is 1-A.
 Alpha  occ. eigenvalues --  -10.60943 -10.60481 -10.59857 -10.59553  -0.92676
 Alpha  occ. eigenvalues --   -0.84042  -0.74884  -0.67703  -0.55070  -0.49953
 Alpha  occ. eigenvalues --   -0.47705  -0.47386  -0.43238  -0.40442  -0.39234
 Alpha  occ. eigenvalues --   -0.38340  -0.36607
 Alpha virt. eigenvalues --    0.05609   0.06249   0.08166   0.08584   0.10763
 Alpha virt. eigenvalues --    0.11637   0.12469   0.13146   0.15063   0.15437
 Alpha virt. eigenvalues --    0.16028   0.16621   0.19265   0.19458   0.21352

 Mulliken charges:
               1
     1  C   -0.159714
     2  C   -0.021784
     3  H    0.041876
     4  H    0.016441
     5  H    0.064929
     6  C   -0.052139
     7  H    0.031034
     8  H    0.020714
     9  C   -0.304452
    10  H    0.030184
    11  H    0.072218
    12  H    0.194652
    13  H    0.028140
    14  H    0.037900
 Sum of Mulliken charges =   0.00000

 Dipole moment (field-independent basis, Debye):
    X=             -0.1911    Y=              0.0932    Z=             -0.4577  Tot=              0.5046
 Quadrupole moment (field-independent basis, Debye-Ang):
   XX=            -30.5018   YY=            -28.8365   ZZ=            -28.0501
   XY=             -0.3423   XZ=             -0.8172   YZ=              0.1748

 Normal termination of Gaussian 09 at Wed Aug 26 21:48:44 2020.
