 Gaussian 09, Revision D.01,
 Gaussian 09:  ES64L-G09RevD.01 24-Apr-2013

 --------------------
 #p B2PLYPD3/Def2QZVP
 --------------------

 ----------
 butane_opt
 ----------
 Symbolic Z-matrix:
 Charge =  0 Multiplicity = 1

                         Standard orientation:
 ---------------------------------------------------------------------
 Center     Atomic      Atomic             Coordinates (Angstroms)
 Number     Number       Type             X           Y           Z
 ---------------------------------------------------------------------
      1          6           0        1.896685    0.067564   -0.178418
      2          6           0        0.582360   -0.379382    0.326688
      3          1           0        2.833012   -1.114095   -0.379655
      4          1           0        2.381917    0.877768    0.482059
      5          1           0        1.176746    0.419834   -0.975996
      6          6           0       -0.501574    0.560118    0.074960
      7          1           0        0.409906   -0.800280    1.232980
      8          1           0        0.443030   -1.018107   -0.452378
      9          6           0       -1.922670   -0.206757   -0.093137
     10          1           0       -0.037003    0.985333   -0.862309
     11          1           0       -0.389705    1.365505    0.798851
     12          1           0       -1.925695   -1.016665   -0.869389
     13          1           0       -2.657867    0.523071   -0.473572
     14          1           0       -2.563148   -0.471615    0.718856
 ---------------------------------------------------------------------

 SCF Done:  E(RB2PLYPD3) =  -157.951699461     A.U. after   11 cycles
 E2(B2PLYPD3) =    -0.2541088442D+00 E(B2PLYPD3) =    -0.15820580830540D+03

 The electronic state is 1-A.
 Alpha  occ. eigenvalues --  -10.64239 -10.62081 -10.61671 -10.57999  -0.95871
 Alpha  occ. eigenvalues --   -0.82619  -0.73197  -0.67099  -0.58841  -0.50002
 Alpha  occ. eigenvalues --   -0.47663  -0.45433  -0.42923  -0.39798  -0.38703
 Alpha  occ. eigenvalues --   -0.37226  -0.35067
 Alpha virt. eigenvalues --    0.03984   0.06065   0.08070   0.09003   0.09763
 Alpha virt. eigenvalues --    0.11153   0.12565   0.13174   0.14698   0.15026
 Alpha virt. eigenvalues --    0.15444   0.17367   0.18045   0.19461   0.20329

 Mulliken charges:
               1
     1  C   -0.161325
     2  C   -0.077682
     3  H    0.019198
     4  H    0.047097
     5  H    0.050881
     6  C   -0.047524
     7  H    0.031330
     8  H    0.077347
     9  C   -0.128715
    10  H    0.024409
    11  H    0.042854
    12  H    0.048538
    13  H    0.027338
    14  H    0.046254
 Sum of Mulliken charges =   0.00000

 Dipole moment (field-independent basis, Debye):
    X=             -0.9121    Y=              0.0593    Z=              0.3062  Tot=              0.9640
 Quadrupole moment (field-independent basis, Debye-Ang):
   XX=            -30.5216   YY=            -29.4669   ZZ=            -29.2641
   XY=              0.2959   XZ=              0.7770   YZ=              0.9787

 Normal termination of Gaussian 09 at Wed Aug 26 09:51:50 2020.
