 Gaussian 09, Revision D.01,
 Gaussian 09:  ES64L-G09RevD.01 24-Apr-2013

 --------------------
 #p B2PLYPD3/Def2QZVP
 --------------------

 ----------
 butane_opt
 ----------
 Symbolic Z-matrix:
 Charge =  0 Multiplicity = 1

                         Standard orientation:
 ---------------------------------------------------------------------
 Center     Atomic      Atomic             Coordinates (Angstroms)
 Number     Number       Type             X           Y           Z
 ---------------------------------------------------------------------
      1          6           0        1.939113    0.118856   -0.032876
      2          6           0        0.574269   -0.547846    0.009422
      3          1           0        2.654943   -0.523328    0.127838
      4          1           0        2.114210    0.661243    0.757873
      5          1           0        2.390539    0.888361   -0.980855
      6          6           0       -0.596785    0.501107    0.108986
      7          1           0        0.493475   -1.207614    0.773806
      8          1           0        0.360602   -1.132654   -0.818506
      9          6           0       -1.947825   -0.104279   -0.051069
     10          1           0       -0.427936    1.046931   -0.714080
     11          1           0       -0.570854    1.265999    1.053196
     12          1           0       -1.834469   -0.695705   -0.908626
     13          1           0       -2.761061    0.754475   -0.397736
     14          1           0       -2.232074   -0.864733    0.900314
 ---------------------------------------------------------------------

 SCF Done:  E(RB2PLYPD3) =  -158.027111638     A.U. after   11 cycles
 E2(B2PLYPD3) =    -0.2475926452D+00 E(B2PLYPD3) =    -0.15827470428321D+03

 The electronic state is 1-A.
 Alpha  occ. eigenvalues --  -10.62164 -10.60425 -10.59812 -10.59187  -0.91731
 Alpha  occ. eigenvalues --   -0.84312  -0.73720  -0.67108  -0.53997  -0.49613
 Alpha  occ. eigenvalues --   -0.48510  -0.46901  -0.43365  -0.40134  -0.39728
 Alpha  occ. eigenvalues --   -0.37931  -0.36488
 Alpha virt. eigenvalues --    0.05507   0.06376   0.08139   0.08841   0.10754
 Alpha virt. eigenvalues --    0.11314   0.12644   0.14018   0.14524   0.15147
 Alpha virt. eigenvalues --    0.15518   0.16244   0.19445   0.20144   0.21473

 Mulliken charges:
               1
     1  C   -0.137876
     2  C   -0.029836
     3  H    0.040147
     4  H    0.048538
     5  H    0.014088
     6  C   -0.049759
     7  H    0.035827
     8  H    0.034147
     9  C   -0.168768
    10  H    0.068924
    11  H    0.012389
    12  H    0.056953
    13  H    0.041655
    14  H    0.033570
 Sum of Mulliken charges =   0.00000

 Dipole moment (field-independent basis, Debye):
    X=              0.3113    Y=             -0.2539    Z=             -0.0144  Tot=              0.4019
 Quadrupole moment (field-independent basis, Debye-Ang):
   XX=            -30.0267   YY=            -28.7371   ZZ=            -28.4005
   XY=             -0.3230   XZ=              1.0867   YZ=             -0.4569

 Normal termination of Gaussian 09 at Wed Aug 26 23:03:58 2020.
