 Gaussian 09, Revision D.01,
 Gaussian 09:  ES64L-G09RevD.01 24-Apr-2013

 --------------------
 #p B2PLYPD3/Def2QZVP
 --------------------

 ----------
 butane_opt
 ----------
 Symbolic Z-matrix:
 Charge =  0 Multiplicity = 1

                         Standard orientation:
 ---------------------------------------------------------------------
 Center     Atomic      Atomic             Coordinates (Angstroms)
 Number     Number       Type             X           Y           Z
 ---------------------------------------------------------------------
      1          6           0       -1.925196    0.104045   -0.084666
      2          6           0       -0.534623   -0.488199    0.060331
      3          1           0       -2.629280   -0.604777    0.020769
      4          1           0       -2.009493    0.887698   -0.963383
      5          1           0       -2.221892    0.631644    0.696152
      6          6           0        0.542660    0.452735    0.145299
      7          1           0       -0.399459   -1.103089   -0.836065
      8          1           0       -0.429136   -1.146951    0.901490
      9          6           0        1.953900   -0.117100   -0.131616
     10          1           0        0.576988    1.166921    1.232711
     11          1           0        0.319633    1.164320   -0.702772
     12          1           0        2.064993   -0.839830    0.849314
     13          1           0        2.707665    0.709586   -0.215220
     14          1           0        1.799537   -0.574409   -0.919082
 ---------------------------------------------------------------------

 SCF Done:  E(RB2PLYPD3) =  -158.035206139     A.U. after   11 cycles
 E2(B2PLYPD3) =    -0.2478524617D+00 E(B2PLYPD3) =    -0.15828305860086D+03

 The electronic state is 1-A.
 Alpha  occ. eigenvalues --  -10.61962 -10.59969 -10.59907 -10.58569  -0.92895
 Alpha  occ. eigenvalues --   -0.84328  -0.74868  -0.64983  -0.55235  -0.51038
 Alpha  occ. eigenvalues --   -0.49491  -0.47689  -0.43338  -0.41085  -0.39703
 Alpha  occ. eigenvalues --   -0.36368  -0.36042
 Alpha virt. eigenvalues --    0.05633   0.06836   0.07848   0.08215   0.10732
 Alpha virt. eigenvalues --    0.12075   0.12873   0.14142   0.14401   0.14924
 Alpha virt. eigenvalues --    0.15629   0.16584   0.19375   0.20140   0.21378

 Mulliken charges:
               1
     1  C   -0.122396
     2  C   -0.011677
     3  H    0.041461
     4  H    0.029990
     5  H    0.035505
     6  C   -0.045834
     7  H    0.027320
     8  H    0.024471
     9  C   -0.183259
    10  H   -0.000909
    11  H    0.019657
    12  H    0.031526
    13  H    0.058129
    14  H    0.096017
 Sum of Mulliken charges =   0.00000

 Dipole moment (field-independent basis, Debye):
    X=             -0.2426    Y=             -0.1195    Z=             -0.1046  Tot=              0.2900
 Quadrupole moment (field-independent basis, Debye-Ang):
   XX=            -29.5528   YY=            -29.3621   ZZ=            -28.3182
   XY=              0.7095   XZ=             -0.8928   YZ=             -0.4951

 Normal termination of Gaussian 09 at Wed Aug 26 14:34:09 2020.
