 Gaussian 09, Revision D.01,
 Gaussian 09:  ES64L-G09RevD.01 24-Apr-2013

 --------------------
 #p B2PLYPD3/Def2QZVP
 --------------------

 ----------
 butane_opt
 ----------
 Symbolic Z-matrix:
 Charge =  0 Multiplicity = 1

                         Standard orientation:
 ---------------------------------------------------------------------
 Center     Atomic      Atomic             Coordinates (Angstroms)
 Number     Number       Type             X           Y           Z
 ---------------------------------------------------------------------
      1          6           0        1.942054    0.144679   -0.139451
      2          6           0        0.631901   -0.534722    0.183753
      3          1           0        2.918151   -0.860964   -0.146307
      4          1           0        2.155941    0.313248    0.480399
      5          1           0        1.982154    0.914062   -1.273698
      6          6           0       -0.591057    0.623596    0.220094
      7          1           0        0.544888   -1.176732    0.910168
      8          1           0        0.457943   -1.038279   -0.513103
      9          6           0       -1.978090   -0.150076   -0.207678
     10          1           0       -0.451807    0.980363   -0.462269
     11          1           0       -0.364006    1.658032    1.310242
     12          1           0       -1.949435   -0.640245   -0.809161
     13          1           0       -2.676048    0.310956   -0.749878
     14          1           0       -2.646633   -0.961303    0.913296
 ---------------------------------------------------------------------

 SCF Done:  E(RB2PLYPD3) =  -157.316556395     A.U. after   12 cycles
 E2(B2PLYPD3) =    -0.2530744100D+00 E(B2PLYPD3) =    -0.15756963080470D+03

 The electronic state is 1-A.
 Alpha  occ. eigenvalues --  -10.63572 -10.61952 -10.60956 -10.58221  -0.93781
 Alpha  occ. eigenvalues --   -0.88560  -0.80031  -0.74650  -0.55668  -0.48842
 Alpha  occ. eigenvalues --   -0.47945  -0.47652  -0.43756  -0.40839  -0.39106
 Alpha  occ. eigenvalues --   -0.36654  -0.33861
 Alpha virt. eigenvalues --    0.03240   0.04950   0.06072   0.07650   0.09767
 Alpha virt. eigenvalues --    0.10130   0.12178   0.12518   0.14304   0.15256
 Alpha virt. eigenvalues --    0.15718   0.16529   0.18034   0.18757   0.20076

 Mulliken charges:
               1
     1  C   -0.654035
     2  C   -0.051018
     3  H   -0.000815
     4  H    0.491715
     5  H    0.076916
     6  C   -0.389652
     7  H    0.048791
     8  H    0.129680
     9  C   -0.370616
    10  H    0.364258
    11  H    0.024800
    12  H    0.279308
    13  H    0.049366
    14  H    0.001302
 Sum of Mulliken charges =   0.00000

 Dipole moment (field-independent basis, Debye):
    X=              0.1229    Y=              0.0135    Z=             -0.9278  Tot=              0.9360
 Quadrupole moment (field-independent basis, Debye-Ang):
   XX=            -31.9567   YY=            -28.9816   ZZ=            -27.4400
   XY=              0.6494   XZ=              2.6676   YZ=             -0.7322

 Normal termination of Gaussian 09 at Wed Aug 26 10:20:33 2020.
