 Gaussian 09, Revision D.01,
 Gaussian 09:  ES64L-G09RevD.01 24-Apr-2013

 --------------------
 #p B2PLYPD3/Def2QZVP
 --------------------

 ----------
 butane_opt
 ----------
 Symbolic Z-matrix:
 Charge =  0 Multiplicity = 1

                         Standard orientation:
 ---------------------------------------------------------------------
 Center     Atomic      Atomic             Coordinates (Angstroms)
 Number     Number       Type             X           Y           Z
 ---------------------------------------------------------------------
      1          6           0        1.945684    0.110481    0.015919
      2          6           0        0.448873   -0.516775    0.092749
      3          1           0        2.635049   -0.611983   -0.805534
      4          1           0        2.310577    1.402913    1.117040
      5          1           0        1.666816    0.262491   -0.619863
      6          6           0       -0.533189    0.427401   -0.091533
      7          1           0        0.451064   -1.306500    1.091361
      8          1           0        0.326519   -1.288673   -0.752197
      9          6           0       -1.866637   -0.046431    0.072689
     10          1           0       -0.513664    1.328543   -1.154060
     11          1           0       -0.338023    0.987781    0.651311
     12          1           0       -1.903886   -0.762204   -0.761020
     13          1           0       -2.481100    0.683754   -0.180269
     14          1           0       -2.121737   -0.544175    0.874292
 ---------------------------------------------------------------------

 SCF Done:  E(RB2PLYPD3) =  -157.595981887     A.U. after   12 cycles
 E2(B2PLYPD3) =    -0.2574678267D+00 E(B2PLYPD3) =    -0.15785344971406D+03

 The electronic state is 1-A.
 Alpha  occ. eigenvalues --  -10.64103 -10.62738 -10.60531 -10.57323  -0.97162
 Alpha  occ. eigenvalues --   -0.88785  -0.77084  -0.66343  -0.56040  -0.52679
 Alpha  occ. eigenvalues --   -0.49209  -0.45735  -0.41509  -0.39758  -0.38696
 Alpha  occ. eigenvalues --   -0.34736  -0.34225
 Alpha virt. eigenvalues --   -0.00490   0.04736   0.05943   0.06884   0.10227
 Alpha virt. eigenvalues --    0.10773   0.11997   0.12777   0.13976   0.14928
 Alpha virt. eigenvalues --    0.16467   0.17041   0.17321   0.19465   0.20150

 Mulliken charges:
               1
     1  C   -0.708439
     2  C   -0.017515
     3  H    0.050164
     4  H    0.045327
     5  H    0.569267
     6  C   -0.055168
     7  H    0.023852
     8  H    0.010376
     9  C   -0.119699
    10  H   -0.004338
    11  H    0.071499
    12  H    0.022730
    13  H    0.050699
    14  H    0.061246
 Sum of Mulliken charges =   0.00000

 Dipole moment (field-independent basis, Debye):
    X=             -0.8755    Y=              0.1678    Z=             -0.2557  Tot=              0.9274
 Quadrupole moment (field-independent basis, Debye-Ang):
   XX=            -32.0963   YY=            -29.1842   ZZ=            -28.1565
   XY=              0.0013   XZ=             -1.2854   YZ=              0.9763

 Normal termination of Gaussian 09 at Wed Aug 26 23:39:03 2020.
