 Gaussian 09, Revision D.01,
 Gaussian 09:  ES64L-G09RevD.01 24-Apr-2013

 --------------------
 #p B2PLYPD3/Def2QZVP
 --------------------

 ----------
 butane_opt
 ----------
 Symbolic Z-matrix:
 Charge =  0 Multiplicity = 1

                         Standard orientation:
 ---------------------------------------------------------------------
 Center     Atomic      Atomic             Coordinates (Angstroms)
 Number     Number       Type             X           Y           Z
 ---------------------------------------------------------------------
      1          6           0       -2.024772   -0.181328    0.071623
      2          6           0       -0.609148    0.554155   -0.121133
      3          1           0       -2.757946    0.590756   -0.144755
      4          1           0       -2.158113   -1.012308    1.167233
      5          1           0       -2.212215   -0.628696   -0.714601
      6          6           0        0.617886   -0.448403    0.085721
      7          1           0       -0.208955    1.164554    0.631774
      8          1           0       -0.363029    1.358877   -1.265572
      9          6           0        1.956993    0.044144    0.042089
     10          1           0        0.630138   -1.272190   -0.972676
     11          1           0        0.631564   -0.786831    0.769088
     12          1           0        1.828313    0.263168   -0.674195
     13          1           0        2.826636   -0.752919   -0.554949
     14          1           0        2.137856    1.264175    1.288853
 ---------------------------------------------------------------------

 SCF Done:  E(RB2PLYPD3) =  -157.506771041     A.U. after   12 cycles
 E2(B2PLYPD3) =    -0.2582748961D+00 E(B2PLYPD3) =    -0.15776504593662D+03

 The electronic state is 1-A.
 Alpha  occ. eigenvalues --  -10.65253 -10.62896 -10.62475 -10.60233  -0.96270
 Alpha  occ. eigenvalues --   -0.85862  -0.77067  -0.70370  -0.52978  -0.49191
 Alpha  occ. eigenvalues --   -0.47322  -0.45737  -0.42152  -0.41405  -0.37842
 Alpha  occ. eigenvalues --   -0.37312  -0.31872
 Alpha virt. eigenvalues --    0.00275   0.03987   0.04941   0.06603   0.09792
 Alpha virt. eigenvalues --    0.10341   0.11961   0.12153   0.13418   0.14985
 Alpha virt. eigenvalues --    0.15291   0.15759   0.17952   0.18895   0.20121

 Mulliken charges:
               1
     1  C   -0.164933
     2  C   -0.058802
     3  H    0.046315
     4  H    0.053631
     5  H    0.095445
     6  C   -0.315068
     7  H    0.062602
     8  H    0.001430
     9  C   -0.501389
    10  H   -0.008273
    11  H    0.339548
    12  H    0.404177
    13  H    0.055259
    14  H   -0.009943
 Sum of Mulliken charges =   0.00000

 Dipole moment (field-independent basis, Debye):
    X=             -0.8117    Y=             -0.3670    Z=             -0.6025  Tot=              1.0754
 Quadrupole moment (field-independent basis, Debye-Ang):
   XX=            -31.2432   YY=            -30.5668   ZZ=            -28.3738
   XY=             -0.4214   XZ=             -1.1490   YZ=             -0.0290

 Normal termination of Gaussian 09 at Wed Aug 26 21:12:45 2020.
