 Gaussian 09, Revision D.01,
 Gaussian 09:  ES64L-G09RevD.01 24-Apr-2013

 --------------------
 #p B2PLYPD3/Def2QZVP
 --------------------

 ----------
 butane_opt
 ----------
 Symbolic Z-matrix:
 Charge =  0 Multiplicity = 1

                         Standard orientation:
 ---------------------------------------------------------------------
 Center     Atomic      Atomic             Coordinates (Angstroms)
 Number     Number       Type             X           Y           Z
 ---------------------------------------------------------------------
      1          6           0       -2.039901    0.071930   -0.102046
      2          6           0       -0.580269   -0.476079   -0.008192
      3          1           0       -2.855508   -0.787304    0.175670
      4          1           0       -2.076556    1.258614   -1.139451
      5          1           0       -1.814577    0.276393    0.606851
      6          6           0        0.516830    0.579967    0.240971
      7          1           0       -0.404916   -0.782122   -0.782314
      8          1           0       -0.507852   -1.293350    0.983200
      9          6           0        2.014691   -0.184219   -0.112232
     10          1           0        0.580420    1.308793    1.292456
     11          1           0        0.458073    0.926186   -0.389541
     12          1           0        2.450890   -0.701040    0.669926
     13          1           0        2.800533    0.417213   -0.620089
     14          1           0        1.901383   -0.572981   -0.907716
 ---------------------------------------------------------------------

 SCF Done:  E(RB2PLYPD3) =  -157.511997758     A.U. after   11 cycles
 E2(B2PLYPD3) =    -0.2524528307D+00 E(B2PLYPD3) =    -0.15776445058832D+03

 The electronic state is 1-A.
 Alpha  occ. eigenvalues --  -10.61490 -10.61170 -10.60342 -10.58488  -0.95193
 Alpha  occ. eigenvalues --   -0.86639  -0.78490  -0.70859  -0.56311  -0.51515
 Alpha  occ. eigenvalues --   -0.48010  -0.45097  -0.43973  -0.40847  -0.38760
 Alpha  occ. eigenvalues --   -0.37054  -0.34412
 Alpha virt. eigenvalues --    0.03137   0.05736   0.06953   0.08241   0.10657
 Alpha virt. eigenvalues --    0.11134   0.12107   0.13194   0.13852   0.15186
 Alpha virt. eigenvalues --    0.15635   0.16782   0.18066   0.18985   0.21492

 Mulliken charges:
               1
     1  C   -0.489667
     2  C   -0.147664
     3  H    0.066903
     4  H    0.022784
     5  H    0.373606
     6  C   -0.551632
     7  H    0.181457
     8  H    0.009727
     9  C   -0.199508
    10  H    0.055328
    11  H    0.479288
    12  H    0.069286
    13  H    0.021167
    14  H    0.108924
 Sum of Mulliken charges =   0.00000

 Dipole moment (field-independent basis, Debye):
    X=              0.5320    Y=             -0.1923    Z=             -0.0985  Tot=              0.5742
 Quadrupole moment (field-independent basis, Debye-Ang):
   XX=            -30.6227   YY=            -29.4870   ZZ=            -27.2604
   XY=              0.6498   XZ=             -1.3904   YZ=             -0.8105

 Normal termination of Gaussian 09 at Wed Aug 26 12:28:43 2020.
