 Gaussian 09, Revision D.01,
 Gaussian 09:  ES64L-G09RevD.01 24-Apr-2013

 --------------------
 #p B2PLYPD3/Def2QZVP
 --------------------

 ----------
 butane_opt
 ----------
 Symbolic Z-matrix:
 Charge =  0 Multiplicity = 1

                         Standard orientation:
 ---------------------------------------------------------------------
 Center     Atomic      Atomic             Coordinates (Angstroms)
 Number     Number       Type             X           Y           Z
 ---------------------------------------------------------------------
      1          6           0        1.921718   -0.063099    0.100866
      2          6           0        0.628633    0.495471   -0.205351
      3          1           0        2.596296    0.684234   -0.108791
      4          1           0        2.289126   -0.684145   -0.686821
      5          1           0        1.984703   -0.995772    1.335341
      6          6           0       -0.519377   -0.566127   -0.053369
      7          1           0        0.508577    1.158297   -1.120287
      8          1           0        0.817202    1.145252    0.729860
      9          6           0       -2.056241    0.132658    0.085444
     10          1           0       -0.444886   -1.216909    0.878888
     11          1           0       -0.601794   -1.238610   -0.851183
     12          1           0       -2.239676    1.377433    1.237996
     13          1           0       -2.726654   -0.455854   -0.484361
     14          1           0       -2.031289    0.232657   -0.496183
 ---------------------------------------------------------------------

 SCF Done:  E(RB2PLYPD3) =  -157.316832797     A.U. after   13 cycles
 E2(B2PLYPD3) =    -0.2580773181D+00 E(B2PLYPD3) =    -0.15757491011497D+03

 The electronic state is 1-A.
 Alpha  occ. eigenvalues --  -10.62796 -10.62700 -10.62348 -10.61327  -0.95434
 Alpha  occ. eigenvalues --   -0.90368  -0.76482  -0.66407  -0.53896  -0.50543
 Alpha  occ. eigenvalues --   -0.48681  -0.44279  -0.39974  -0.39181  -0.37708
 Alpha  occ. eigenvalues --   -0.35272  -0.33638
 Alpha virt. eigenvalues --    0.01158   0.03740   0.06248   0.07071   0.09561
 Alpha virt. eigenvalues --    0.10031   0.11627   0.12406   0.12651   0.15354
 Alpha virt. eigenvalues --    0.16000   0.16782   0.18196   0.19159   0.21218

 Mulliken charges:
               1
     1  C   -0.144977
     2  C   -0.028561
     3  H    0.065629
     4  H    0.016988
     5  H    0.025272
     6  C   -0.052346
     7  H    0.045947
     8  H    0.034993
     9  C   -0.898651
    10  H    0.049553
    11  H    0.043566
    12  H    0.054542
    13  H    0.031591
    14  H    0.756454
 Sum of Mulliken charges =   0.00000

 Dipole moment (field-independent basis, Debye):
    X=              0.4053    Y=              0.2770    Z=             -1.1857  Tot=              1.2833
 Quadrupole moment (field-independent basis, Debye-Ang):
   XX=            -31.6140   YY=            -29.0873   ZZ=            -27.8491
   XY=              0.8199   XZ=              1.2381   YZ=              0.5313

 Normal termination of Gaussian 09 at Wed Aug 26 19:00:18 2020.
