 Gaussian 09, Revision D.01,
 Gaussian 09:  ES64L-G09RevD.01 24-Apr-2013

 --------------------
 #p B2PLYPD3/Def2QZVP
 --------------------

 ----------
 butane_opt
 ----------
 Symbolic Z-matrix:
 Charge =  0 Multiplicity = 1

                         Standard orientation:
 ---------------------------------------------------------------------
 Center     Atomic      Atomic             Coordinates (Angstroms)
 Number     Number       Type             X           Y           Z
 ---------------------------------------------------------------------
      1          6           0       -1.865991    0.076705   -0.119074
      2          6           0       -0.519220   -0.464301    0.168205
      3          1           0       -2.695268   -0.767479   -0.694802
      4          1           0       -1.576103    0.374757   -0.755253
      5          1           0       -2.522395    0.897917    0.940860
      6          6           0        0.556652    0.538843    0.028106
      7          1           0       -0.220616   -0.895352   -0.397752
      8          1           0       -0.630889   -1.181263    1.041214
      9          6           0        1.889196   -0.119183   -0.091901
     10          1           0        0.472328    1.331461    0.915491
     11          1           0        0.031139    1.063110   -0.875450
     12          1           0        2.007765   -0.786449    0.868744
     13          1           0        2.599825    0.517079   -0.136206
     14          1           0        2.170386   -0.746167   -0.818860
 ---------------------------------------------------------------------

 SCF Done:  E(RB2PLYPD3) =  -157.696885115     A.U. after   11 cycles
 E2(B2PLYPD3) =    -0.2507299596D+00 E(B2PLYPD3) =    -0.15794761507479D+03

 The electronic state is 1-A.
 Alpha  occ. eigenvalues --  -10.62729 -10.61355 -10.58915 -10.56806  -0.97534
 Alpha  occ. eigenvalues --   -0.86712  -0.76948  -0.68961  -0.56620  -0.51990
 Alpha  occ. eigenvalues --   -0.50081  -0.46927  -0.42025  -0.41024  -0.39752
 Alpha  occ. eigenvalues --   -0.36760  -0.35547
 Alpha virt. eigenvalues --    0.04425   0.06277   0.07954   0.08519   0.09726
 Alpha virt. eigenvalues --    0.10916   0.12847   0.13237   0.14593   0.15548
 Alpha virt. eigenvalues --    0.16022   0.16846   0.19108   0.20105   0.21074

 Mulliken charges:
               1
     1  C   -0.480249
     2  C   -0.362547
     3  H    0.030766
     4  H    0.376631
     5  H    0.042914
     6  C   -0.039828
     7  H    0.354267
     8  H    0.033772
     9  C   -0.136753
    10  H    0.033103
    11  H    0.021615
    12  H    0.041383
    13  H    0.055979
    14  H    0.028946
 Sum of Mulliken charges =   0.00000

 Dipole moment (field-independent basis, Debye):
    X=              0.7574    Y=             -0.1936    Z=             -0.4822  Tot=              0.9185
 Quadrupole moment (field-independent basis, Debye-Ang):
   XX=            -29.6434   YY=            -29.3732   ZZ=            -28.2595
   XY=             -0.2899   XZ=             -0.4881   YZ=              0.6749

 Normal termination of Gaussian 09 at Wed Aug 26 13:03:17 2020.
