 Gaussian 09, Revision D.01,
 Gaussian 09:  ES64L-G09RevD.01 24-Apr-2013

 --------------------
 #p B2PLYPD3/Def2QZVP
 --------------------

 ----------
 butane_opt
 ----------
 Symbolic Z-matrix:
 Charge =  0 Multiplicity = 1

                         Standard orientation:
 ---------------------------------------------------------------------
 Center     Atomic      Atomic             Coordinates (Angstroms)
 Number     Number       Type             X           Y           Z
 ---------------------------------------------------------------------
      1          6           0        1.928984   -0.159610    0.051138
      2          6           0        0.563456    0.518039   -0.133235
      3          1           0        2.612813    0.466623    0.630445
      4          1           0        2.269869   -0.712375   -0.925441
      5          1           0        1.738120   -0.796370    0.939966
      6          6           0       -0.618663   -0.397780   -0.150359
      7          1           0        0.604221    1.089243   -0.965350
      8          1           0        0.322124    1.139334    0.814164
      9          6           0       -1.905326    0.052404    0.134489
     10          1           0       -0.055202   -1.079880    0.710362
     11          1           0       -0.631807   -0.916719   -0.995334
     12          1           0       -1.830450    0.639801    1.097477
     13          1           0       -2.806784   -0.898600    0.081929
     14          1           0       -2.033608    0.990621   -0.800422
 ---------------------------------------------------------------------

 SCF Done:  E(RB2PLYPD3) =  -158.003568450     A.U. after   11 cycles
 E2(B2PLYPD3) =    -0.2516818793D+00 E(B2PLYPD3) =    -0.15825525032909D+03

 The electronic state is 1-A.
 Alpha  occ. eigenvalues --  -10.64390 -10.61321 -10.60331 -10.59396  -0.93543
 Alpha  occ. eigenvalues --   -0.84170  -0.71860  -0.65323  -0.57031  -0.50587
 Alpha  occ. eigenvalues --   -0.48291  -0.45771  -0.42956  -0.40208  -0.40041
 Alpha  occ. eigenvalues --   -0.37014  -0.33162
 Alpha virt. eigenvalues --    0.05013   0.06187   0.07938   0.08048   0.10469
 Alpha virt. eigenvalues --    0.11214   0.11945   0.12330   0.13999   0.15149
 Alpha virt. eigenvalues --    0.15966   0.16156   0.19274   0.19488   0.21235

 Mulliken charges:
               1
     1  C   -0.155382
     2  C   -0.039884
     3  H    0.051710
     4  H    0.058523
     5  H    0.029609
     6  C    0.003680
     7  H    0.043181
     8  H    0.015838
     9  C   -0.181732
    10  H   -0.006512
    11  H    0.049756
    12  H    0.049844
    13  H    0.064373
    14  H    0.016998
 Sum of Mulliken charges =   0.00000

 Dipole moment (field-independent basis, Debye):
    X=              0.2819    Y=             -0.0421    Z=             -0.0472  Tot=              0.2889
 Quadrupole moment (field-independent basis, Debye-Ang):
   XX=            -30.8036   YY=            -30.4512   ZZ=            -27.9698
   XY=              0.8256   XZ=              0.2415   YZ=              0.7153

 Normal termination of Gaussian 09 at Wed Aug 26 20:09:32 2020.
