 Gaussian 09, Revision D.01,
 Gaussian 09:  ES64L-G09RevD.01 24-Apr-2013

 --------------------
 #p B2PLYPD3/Def2QZVP
 --------------------

 ----------
 butane_opt
 ----------
 Symbolic Z-matrix:
 Charge =  0 Multiplicity = 1

                         Standard orientation:
 ---------------------------------------------------------------------
 Center     Atomic      Atomic             Coordinates (Angstroms)
 Number     Number       Type             X           Y           Z
 ---------------------------------------------------------------------
      1          6           0       -1.914461    0.011069   -0.126607
      2          6           0       -0.603996   -0.389347    0.332285
      3          1           0       -2.766333   -1.001927   -0.765459
      4          1           0       -1.515368    0.233064   -1.018181
      5          1           0       -2.412524    1.075863    0.648459
      6          6           0        0.442733    0.565815   -0.086987
      7          1           0       -0.549987   -0.895023   -0.160252
      8          1           0       -0.401805   -0.936581    1.556182
      9          6           0        1.921386   -0.167417   -0.100606
     10          1           0        0.677857    1.832978    0.768636
     11          1           0        0.310662    0.920822   -0.797429
     12          1           0        2.581068   -0.470238    0.923309
     13          1           0        2.733839    0.284709   -0.445978
     14          1           0        2.268625   -1.164380   -0.817798
 ---------------------------------------------------------------------

 SCF Done:  E(RB2PLYPD3) =  -157.529071265     A.U. after   11 cycles
 E2(B2PLYPD3) =    -0.2568733342D+00 E(B2PLYPD3) =    -0.15778594459960D+03

 The electronic state is 1-A.
 Alpha  occ. eigenvalues --  -10.65811 -10.64673 -10.63509 -10.60121  -0.99111
 Alpha  occ. eigenvalues --   -0.84314  -0.74907  -0.71081  -0.56820  -0.51068
 Alpha  occ. eigenvalues --   -0.49000  -0.43312  -0.40720  -0.40061  -0.39013
 Alpha  occ. eigenvalues --   -0.36075  -0.34591
 Alpha virt. eigenvalues --    0.02540   0.04289   0.05749   0.07486   0.08929
 Alpha virt. eigenvalues --    0.10339   0.11854   0.12617   0.13175   0.14350
 Alpha virt. eigenvalues --    0.15469   0.17217   0.17482   0.18945   0.20366

 Mulliken charges:
               1
     1  C   -0.171663
     2  C   -0.589386
     3  H    0.024935
     4  H    0.084491
     5  H    0.049790
     6  C   -0.192941
     7  H    0.581438
     8  H    0.040359
     9  C   -0.150805
    10  H   -0.021056
    11  H    0.246483
    12  H    0.031749
    13  H    0.062747
    14  H    0.003857
 Sum of Mulliken charges =   0.00000

 Dipole moment (field-independent basis, Debye):
    X=              0.4610    Y=             -0.0650    Z=             -0.9664  Tot=              1.0727
 Quadrupole moment (field-independent basis, Debye-Ang):
   XX=            -30.3279   YY=            -30.6417   ZZ=            -29.0711
   XY=             -0.0289   XZ=              0.2728   YZ=              0.5498

 Normal termination of Gaussian 09 at Wed Aug 26 09:53:25 2020.
