 Gaussian 09, Revision D.01,
 Gaussian 09:  ES64L-G09RevD.01 24-Apr-2013

 --------------------
 #p B2PLYPD3/Def2QZVP
 --------------------

 ----------
 butane_opt
 ----------
 Symbolic Z-matrix:
 Charge =  0 Multiplicity = 1

                         Standard orientation:
 ---------------------------------------------------------------------
 Center     Atomic      Atomic             Coordinates (Angstroms)
 Number     Number       Type             X           Y           Z
 ---------------------------------------------------------------------
      1          6           0       -2.087377   -0.148204   -0.100383
      2          6           0       -0.535060    0.559640    0.019646
      3          1           0       -2.890386    0.547248   -0.187545
      4          1           0       -2.158315   -0.414298    0.699526
      5          1           0       -2.082192   -1.163372   -1.163976
      6          6           0        0.670134   -0.459337    0.330415
      7          1           0       -0.350139    1.506785    0.979815
      8          1           0       -0.371681    0.808730   -0.709068
      9          6           0        1.956488    0.045799   -0.258611
     10          1           0        0.328230   -0.736720   -0.199294
     11          1           0        0.552487   -1.177195    1.588574
     12          1           0        1.621400    0.268859   -0.946374
     13          1           0        2.773381   -0.684316   -0.544476
     14          1           0        2.552106    1.056892    0.536418
 ---------------------------------------------------------------------

 SCF Done:  E(RB2PLYPD3) =  -157.379738014     A.U. after   12 cycles
 E2(B2PLYPD3) =    -0.2536338877D+00 E(B2PLYPD3) =    -0.15763337190202D+03

 The electronic state is 1-A.
 Alpha  occ. eigenvalues --  -10.62662 -10.62617 -10.61014 -10.60482  -0.97589
 Alpha  occ. eigenvalues --   -0.85603  -0.78674  -0.72148  -0.54512  -0.51453
 Alpha  occ. eigenvalues --   -0.50098  -0.46181  -0.43696  -0.40915  -0.38247
 Alpha  occ. eigenvalues --   -0.37862  -0.32590
 Alpha virt. eigenvalues --    0.04538   0.04849   0.06942   0.07992   0.09851
 Alpha virt. eigenvalues --    0.10270   0.12141   0.12784   0.13601   0.14820
 Alpha virt. eigenvalues --    0.15876   0.16475   0.17729   0.18696   0.20337

 Mulliken charges:
               1
     1  C   -0.280679
     2  C   -0.352877
     3  H    0.069700
     4  H    0.199319
     5  H    0.024198
     6  C   -0.650265
     7  H    0.024313
     8  H    0.308881
     9  C   -0.339998
    10  H    0.611737
    11  H    0.023112
    12  H    0.278505
    13  H    0.062544
    14  H    0.021509
 Sum of Mulliken charges =   0.00000

 Dipole moment (field-independent basis, Debye):
    X=             -0.4293    Y=             -0.1411    Z=             -0.6306  Tot=              0.7758
 Quadrupole moment (field-independent basis, Debye-Ang):
   XX=            -28.8663   YY=            -30.5930   ZZ=            -28.0215
   XY=             -0.7769   XZ=             -1.0601   YZ=              0.4946

 Normal termination of Gaussian 09 at Wed Aug 26 23:38:12 2020.
