 Gaussian 09, Revision D.01,
 Gaussian 09:  ES64L-G09RevD.01 24-Apr-2013

 --------------------
 #p B2PLYPD3/Def2QZVP
 --------------------

 ----------
 butane_opt
 ----------
 Symbolic Z-matrix:
 Charge =  0 Multiplicity = 1

                         Standard orientation:
 ---------------------------------------------------------------------
 Center     Atomic      Atomic             Coordinates (Angstroms)
 Number     Number       Type             X           Y           Z
 ---------------------------------------------------------------------
      1          6           0        1.915787   -0.161085   -0.001723
      2          6           0        0.511257    0.531391    0.008604
      3          1           0        2.861996    0.699659   -0.378393
      4          1           0        2.089116   -0.631006   -0.745477
      5          1           0        2.001906   -0.987428    1.141573
      6          6           0       -0.551147   -0.424220    0.109201
      7          1           0        0.459728    1.221650   -1.013407
      8          1           0        0.478039    1.156331    0.731594
      9          6           0       -1.943607    0.094383   -0.077496
     10          1           0       -0.400572   -0.933933    1.039731
     11          1           0       -0.210297   -1.338418   -0.938829
     12          1           0       -2.289801    1.067277    1.005046
     13          1           0       -2.888957   -0.873955   -0.521890
     14          1           0       -1.694897    0.377009   -0.551462
 ---------------------------------------------------------------------

 SCF Done:  E(RB2PLYPD3) =  -157.382878367     A.U. after   12 cycles
 E2(B2PLYPD3) =    -0.2557858021D+00 E(B2PLYPD3) =    -0.15763866416882D+03

 The electronic state is 1-A.
 Alpha  occ. eigenvalues --  -10.63937 -10.63869 -10.63444 -10.61476  -0.96989
 Alpha  occ. eigenvalues --   -0.87483  -0.75967  -0.67336  -0.54940  -0.49852
 Alpha  occ. eigenvalues --   -0.48566  -0.45031  -0.41609  -0.41199  -0.38189
 Alpha  occ. eigenvalues --   -0.36905  -0.34336
 Alpha virt. eigenvalues --    0.03524   0.03950   0.05366   0.06847   0.09223
 Alpha virt. eigenvalues --    0.10589   0.11393   0.12204   0.13487   0.14637
 Alpha virt. eigenvalues --    0.15446   0.15900   0.17569   0.19628   0.20485

 Mulliken charges:
               1
     1  C   -0.201130
     2  C   -0.017693
     3  H    0.013139
     4  H    0.122787
     5  H    0.029375
     6  C   -0.005427
     7  H   -0.005053
     8  H    0.076469
     9  C   -0.843215
    10  H    0.058788
    11  H   -0.019114
    12  H    0.030677
    13  H    0.070816
    14  H    0.689581
 Sum of Mulliken charges =   0.00000

 Dipole moment (field-independent basis, Debye):
    X=              0.1042    Y=              0.1236    Z=             -0.2036  Tot=              0.2600
 Quadrupole moment (field-independent basis, Debye-Ang):
   XX=            -31.9635   YY=            -29.9469   ZZ=            -28.4940
   XY=              0.2569   XZ=             -1.0270   YZ=              0.2077

 Normal termination of Gaussian 09 at Wed Aug 26 22:09:59 2020.
