 Gaussian 09, Revision D.01,
 Gaussian 09:  ES64L-G09RevD.01 24-Apr-2013

 --------------------
 #p B2PLYPD3/Def2QZVP
 --------------------

 ----------
 butane_opt
 ----------
 Symbolic Z-matrix:
 Charge =  0 Multiplicity = 1

                         Standard orientation:
 ---------------------------------------------------------------------
 Center     Atomic      Atomic             Coordinates (Angstroms)
 Number     Number       Type             X           Y           Z
 ---------------------------------------------------------------------
      1          6           0        1.952494   -0.179949    0.198036
      2          6           0        0.517264    0.638297   -0.225425
      3          1           0        2.736193    0.440002    0.664051
      4          1           0        2.640241   -0.869899   -0.913913
      5          1           0        1.445326   -0.898625    1.098150
      6          6           0       -0.603888   -0.460332   -0.281709
      7          1           0        0.559512    1.396818   -1.014403
      8          1           0        0.148701    1.110314    0.679741
      9          6           0       -1.842950    0.007030    0.193482
     10          1           0       -0.371287   -1.039056    0.561707
     11          1           0       -0.535935   -0.817888   -1.120569
     12          1           0       -1.974836    0.719823    1.252380
     13          1           0       -2.690118   -0.721111    0.035166
     14          1           0       -2.095318    0.649348   -0.548612
 ---------------------------------------------------------------------

 SCF Done:  E(RB2PLYPD3) =  -157.944405466     A.U. after   11 cycles
 E2(B2PLYPD3) =    -0.2527781417D+00 E(B2PLYPD3) =    -0.15819718360784D+03

 The electronic state is 1-A.
 Alpha  occ. eigenvalues --  -10.66335 -10.62097 -10.60403 -10.57702  -0.93443
 Alpha  occ. eigenvalues --   -0.80923  -0.71232  -0.67415  -0.58266  -0.49316
 Alpha  occ. eigenvalues --   -0.48704  -0.44410  -0.43247  -0.39215  -0.37437
 Alpha  occ. eigenvalues --   -0.36403  -0.35250
 Alpha virt. eigenvalues --    0.04408   0.05783   0.08297   0.08585   0.09796
 Alpha virt. eigenvalues --    0.11062   0.11913   0.13017   0.14525   0.14792
 Alpha virt. eigenvalues --    0.15988   0.16304   0.17817   0.19668   0.21011

 Mulliken charges:
               1
     1  C   -0.197063
     2  C   -0.080338
     3  H    0.069101
     4  H    0.020230
     5  H    0.051284
     6  C   -0.063647
     7  H    0.046783
     8  H    0.055284
     9  C   -0.151592
    10  H    0.059217
    11  H    0.070943
    12  H    0.034547
    13  H    0.041623
    14  H    0.043629
 Sum of Mulliken charges =   0.00000

 Dipole moment (field-independent basis, Debye):
    X=             -0.4305    Y=              0.3095    Z=             -0.0990  Tot=              0.5394
 Quadrupole moment (field-independent basis, Debye-Ang):
   XX=            -30.5167   YY=            -30.0037   ZZ=            -28.0831
   XY=              0.8966   XZ=              0.4480   YZ=              0.2162

 Normal termination of Gaussian 09 at Wed Aug 26 23:04:45 2020.
