 Gaussian 09, Revision D.01,
 Gaussian 09:  ES64L-G09RevD.01 24-Apr-2013

 --------------------
 #p B2PLYPD3/Def2QZVP
 --------------------

 ----------
 butane_opt
 ----------
 Symbolic Z-matrix:
 Charge =  0 Multiplicity = 1

                         Standard orientation:
 ---------------------------------------------------------------------
 Center     Atomic      Atomic             Coordinates (Angstroms)
 Number     Number       Type             X           Y           Z
 ---------------------------------------------------------------------
      1          6           0       -1.990452    0.048794    0.128403
      2          6           0       -0.615865   -0.466918   -0.234057
      3          1           0       -2.812799   -0.695820    0.211639
      4          1           0       -2.038933    0.527323   -0.596518
      5          1           0       -1.914226    0.896714    1.393131
      6          6           0        0.485431    0.662021   -0.158121
      7          1           0       -0.826830   -1.043942   -1.073228
      8          1           0       -0.208852   -1.361408    0.688743
      9          6           0        2.024107   -0.154650    0.109896
     10          1           0        0.378991    0.933547    0.499880
     11          1           0        0.629013    1.384942   -1.101232
     12          1           0        2.004590   -0.743380    1.049668
     13          1           0        2.617095    0.348826    0.697512
     14          1           0        2.752629   -0.782287   -0.846324
 ---------------------------------------------------------------------

 SCF Done:  E(RB2PLYPD3) =  -157.686223767     A.U. after   11 cycles
 E2(B2PLYPD3) =    -0.2529373544D+00 E(B2PLYPD3) =    -0.15793916112180D+03

 The electronic state is 1-A.
 Alpha  occ. eigenvalues --  -10.63330 -10.62109 -10.61783 -10.61660  -0.92712
 Alpha  occ. eigenvalues --   -0.84902  -0.76584  -0.67972  -0.54692  -0.51900
 Alpha  occ. eigenvalues --   -0.48919  -0.45236  -0.42595  -0.38645  -0.37835
 Alpha  occ. eigenvalues --   -0.36510  -0.34371
 Alpha virt. eigenvalues --    0.04371   0.05666   0.07622   0.07817   0.09950
 Alpha virt. eigenvalues --    0.10779   0.11939   0.12491   0.13572   0.15151
 Alpha virt. eigenvalues --    0.15919   0.17020   0.18142   0.18550   0.20856

 Mulliken charges:
               1
     1  C   -0.251996
     2  C   -0.017474
     3  H    0.067599
     4  H    0.173490
     5  H   -0.019158
     6  C   -0.530055
     7  H    0.059818
     8  H   -0.005584
     9  C   -0.174968
    10  H    0.485450
    11  H    0.068223
    12  H    0.032902
    13  H    0.064818
    14  H    0.046933
 Sum of Mulliken charges =   0.00000

 Dipole moment (field-independent basis, Debye):
    X=             -0.1127    Y=              0.1020    Z=             -0.3351  Tot=              0.3680
 Quadrupole moment (field-independent basis, Debye-Ang):
   XX=            -29.6363   YY=            -30.1258   ZZ=            -27.8818
   XY=              1.2329   XZ=              2.2991   YZ=              0.1391

 Normal termination of Gaussian 09 at Wed Aug 26 23:05:26 2020.
