 Gaussian 09, Revision D.01,
 Gaussian 09:  ES64L-G09RevD.01 24-Apr-2013

 --------------------
 #p B2PLYPD3/Def2QZVP
 --------------------

 ----------
 butane_opt
 ----------
 Symbolic Z-matrix:
 Charge =  0 Multiplicity = 1

                         Standard orientation:
 ---------------------------------------------------------------------
 Center     Atomic      Atomic             Coordinates (Angstroms)
 Number     Number       Type             X           Y           Z
 ---------------------------------------------------------------------
      1          6           0        1.923712    0.142929   -0.188858
      2          6           0        0.582958   -0.527215    0.129077
      3          1           0        2.855640   -0.752419    0.121856
      4          1           0        1.997684    0.400033    0.455371
      5          1           0        2.076468    0.745424   -1.144917
      6          6           0       -0.538622    0.637409    0.220186
      7          1           0        0.622691   -1.291105    1.255535
      8          1           0        0.654021   -0.800175   -0.545263
      9          6           0       -1.967414   -0.143472   -0.168874
     10          1           0       -0.485119    0.815115   -0.346748
     11          1           0       -0.477061    1.588730    1.190159
     12          1           0       -1.757296   -0.914752   -1.034553
     13          1           0       -2.742603    0.386625   -0.770084
     14          1           0       -2.748233   -0.835383    0.869459
 ---------------------------------------------------------------------

 SCF Done:  E(RB2PLYPD3) =  -157.020621873     A.U. after   12 cycles
 E2(B2PLYPD3) =    -0.2552946902D+00 E(B2PLYPD3) =    -0.15727591656356D+03

 The electronic state is 1-A.
 Alpha  occ. eigenvalues --  -10.65557 -10.62729 -10.60355 -10.58898  -0.96889
 Alpha  occ. eigenvalues --   -0.88201  -0.75711  -0.72252  -0.57055  -0.51115
 Alpha  occ. eigenvalues --   -0.46687  -0.45580  -0.42815  -0.39741  -0.37934
 Alpha  occ. eigenvalues --   -0.35828  -0.34912
 Alpha virt. eigenvalues --    0.04434   0.05122   0.07214   0.07542   0.10103
 Alpha virt. eigenvalues --    0.10779   0.11651   0.12325   0.14068   0.15084
 Alpha virt. eigenvalues --    0.15792   0.16074   0.18519   0.18826   0.20627

 Mulliken charges:
               1
     1  C   -0.680643
     2  C   -0.459369
     3  H    0.029536
     4  H    0.496709
     5  H    0.092481
     6  C   -0.888595
     7  H    0.046120
     8  H    0.515175
     9  C   -0.141341
    10  H    0.808971
    11  H    0.073656
    12  H    0.042268
    13  H    0.049387
    14  H    0.015646
 Sum of Mulliken charges =   0.00000

 Dipole moment (field-independent basis, Debye):
    X=              0.3032    Y=              0.6365    Z=             -0.5544  Tot=              0.8969
 Quadrupole moment (field-independent basis, Debye-Ang):
   XX=            -31.3176   YY=            -29.4063   ZZ=            -26.9986
   XY=              0.0940   XZ=              1.0809   YZ=             -0.2310

 Normal termination of Gaussian 09 at Wed Aug 26 20:29:57 2020.
