 Gaussian 09, Revision D.01,
 Gaussian 09:  ES64L-G09RevD.01 24-Apr-2013

 --------------------
 #p B2PLYPD3/Def2QZVP
 --------------------

 ----------
 butane_opt
 ----------
 Symbolic Z-matrix:
 Charge =  0 Multiplicity = 1

                         Standard orientation:
 ---------------------------------------------------------------------
 Center     Atomic      Atomic             Coordinates (Angstroms)
 Number     Number       Type             X           Y           Z
 ---------------------------------------------------------------------
      1          6           0        1.878659    0.097306   -0.202217
      2          6           0        0.572400   -0.422504    0.260654
      3          1           0        2.565925   -0.822972   -0.613576
      4          1           0        2.648557    0.936764    0.692985
      5          1           0        1.523600    0.197349   -0.741139
      6          6           0       -0.534263    0.581995    0.051211
      7          1           0        0.797928   -1.153929    1.327588
      8          1           0        0.222530   -0.888580   -0.505443
      9          6           0       -1.887552   -0.167390   -0.080868
     10          1           0       -0.329430    0.886307   -0.819842
     11          1           0       -0.694913    1.349782    0.857701
     12          1           0       -2.128528   -0.818086   -0.990251
     13          1           0       -2.634268    0.446772   -0.208324
     14          1           0       -2.146869   -0.669852    0.827613
 ---------------------------------------------------------------------

 SCF Done:  E(RB2PLYPD3) =  -157.612602349     A.U. after   11 cycles
 E2(B2PLYPD3) =    -0.2509229838D+00 E(B2PLYPD3) =    -0.15786352533300D+03

 The electronic state is 1-A.
 Alpha  occ. eigenvalues --  -10.61177 -10.60572 -10.59956 -10.59053  -0.98262
 Alpha  occ. eigenvalues --   -0.87530  -0.75942  -0.67012  -0.56941  -0.51622
 Alpha  occ. eigenvalues --   -0.49540  -0.46951  -0.42850  -0.40988  -0.40388
 Alpha  occ. eigenvalues --   -0.36516  -0.34637
 Alpha virt. eigenvalues --    0.05118   0.06294   0.07836   0.08561   0.09206
 Alpha virt. eigenvalues --    0.11097   0.12550   0.13195   0.13991   0.15550
 Alpha virt. eigenvalues --    0.16285   0.17277   0.18750   0.19662   0.21556

 Mulliken charges:
               1
     1  C   -0.776402
     2  C   -0.064507
     3  H    0.058947
     4  H    0.051895
     5  H    0.595438
     6  C   -0.112695
     7  H    0.021388
     8  H    0.100906
     9  C   -0.122531
    10  H    0.106666
    11  H    0.030720
    12  H    0.013086
    13  H    0.043902
    14  H    0.053187
 Sum of Mulliken charges =   0.00000

 Dipole moment (field-independent basis, Debye):
    X=             -0.6348    Y=              0.1559    Z=             -0.3984  Tot=              0.7655
 Quadrupole moment (field-independent basis, Debye-Ang):
   XX=            -29.3878   YY=            -29.8011   ZZ=            -27.8237
   XY=             -0.5718   XZ=              0.7189   YZ=              0.7948

 Normal termination of Gaussian 09 at Wed Aug 26 22:02:22 2020.
