 Gaussian 09, Revision D.01,
 Gaussian 09:  ES64L-G09RevD.01 24-Apr-2013

 --------------------
 #p B2PLYPD3/Def2QZVP
 --------------------

 ----------
 butane_opt
 ----------
 Symbolic Z-matrix:
 Charge =  0 Multiplicity = 1

                         Standard orientation:
 ---------------------------------------------------------------------
 Center     Atomic      Atomic             Coordinates (Angstroms)
 Number     Number       Type             X           Y           Z
 ---------------------------------------------------------------------
      1          6           0       -1.913682    0.027302    0.180745
      2          6           0       -0.566089   -0.360763   -0.182026
      3          1           0       -2.882124   -0.781268   -0.208810
      4          1           0       -1.847856    0.599741   -0.556466
      5          1           0       -2.060913    0.754266    1.194161
      6          6           0        0.534511    0.498267   -0.033406
      7          1           0       -0.657110   -1.152547   -1.313230
      8          1           0       -0.107185   -0.879693    0.372638
      9          6           0        1.897511   -0.209150    0.085130
     10          1           0        0.355283    1.053631    0.837914
     11          1           0        0.362105    1.531140   -1.020148
     12          1           0        2.168298   -1.235042    1.142364
     13          1           0        2.750720    0.643604   -0.267618
     14          1           0        2.205274   -0.267765   -0.483462
 ---------------------------------------------------------------------

 SCF Done:  E(RB2PLYPD3) =  -157.418605335     A.U. after   12 cycles
 E2(B2PLYPD3) =    -0.2577870310D+00 E(B2PLYPD3) =    -0.15767639236591D+03

 The electronic state is 1-A.
 Alpha  occ. eigenvalues --  -10.64658 -10.62756 -10.61736 -10.60254  -0.97723
 Alpha  occ. eigenvalues --   -0.90320  -0.80215  -0.67061  -0.55025  -0.51824
 Alpha  occ. eigenvalues --   -0.48750  -0.46427  -0.41616  -0.40486  -0.37314
 Alpha  occ. eigenvalues --   -0.35173  -0.32603
 Alpha virt. eigenvalues --    0.02800   0.03994   0.06015   0.06535   0.09120
 Alpha virt. eigenvalues --    0.11556   0.12165   0.12601   0.13871   0.14966
 Alpha virt. eigenvalues --    0.15526   0.16334   0.17524   0.19027   0.20393

 Mulliken charges:
               1
     1  C   -0.207526
     2  C   -0.065069
     3  H    0.047327
     4  H    0.119205
     5  H    0.035169
     6  C   -0.023942
     7  H   -0.011257
     8  H    0.111894
     9  C   -0.739487
    10  H    0.081046
    11  H   -0.051877
    12  H    0.077955
    13  H    0.040347
    14  H    0.586216
 Sum of Mulliken charges =   0.00000

 Dipole moment (field-independent basis, Debye):
    X=              0.3509    Y=             -0.2857    Z=              0.1114  Tot=              0.4660
 Quadrupole moment (field-independent basis, Debye-Ang):
   XX=            -29.4793   YY=            -30.5341   ZZ=            -29.0710
   XY=             -1.0361   XZ=             -0.3732   YZ=             -0.0809

 Normal termination of Gaussian 09 at Wed Aug 26 22:06:42 2020.
