 Gaussian 09, Revision D.01,
 Gaussian 09:  ES64L-G09RevD.01 24-Apr-2013

 --------------------
 #p B2PLYPD3/Def2QZVP
 --------------------

 ----------
 butane_opt
 ----------
 Symbolic Z-matrix:
 Charge =  0 Multiplicity = 1

                         Standard orientation:
 ---------------------------------------------------------------------
 Center     Atomic      Atomic             Coordinates (Angstroms)
 Number     Number       Type             X           Y           Z
 ---------------------------------------------------------------------
      1          6           0       -1.922085   -0.232563    0.018776
      2          6           0       -0.550352    0.575711   -0.014655
      3          1           0       -2.689378    0.672365   -0.143363
      4          1           0       -2.309385   -0.970521    0.911137
      5          1           0       -2.111185   -0.596787   -0.671839
      6          6           0        0.635815   -0.416164   -0.156949
      7          1           0       -0.463738    1.294069    1.118857
      8          1           0       -0.404761    0.971627   -0.610767
      9          6           0        1.909912    0.058862    0.050434
     10          1           0        0.559197   -0.919149   -1.160361
     11          1           0        0.300234   -1.017587    0.607874
     12          1           0        2.097528    1.152121   -0.872716
     13          1           0        2.906487   -1.076093    0.530217
     14          1           0        1.675257    0.574879    0.905326
 ---------------------------------------------------------------------

 SCF Done:  E(RB2PLYPD3) =  -157.636313433     A.U. after   12 cycles
 E2(B2PLYPD3) =    -0.2544380469D+00 E(B2PLYPD3) =    -0.15789075147997D+03

 The electronic state is 1-A.
 Alpha  occ. eigenvalues --  -10.65371 -10.61000 -10.60391 -10.59509  -0.95350
 Alpha  occ. eigenvalues --   -0.86176  -0.77626  -0.66925  -0.57703  -0.50670
 Alpha  occ. eigenvalues --   -0.47070  -0.46103  -0.43809  -0.40770  -0.38715
 Alpha  occ. eigenvalues --   -0.36710  -0.33160
 Alpha virt. eigenvalues --    0.01529   0.05337   0.07180   0.07609   0.09539
 Alpha virt. eigenvalues --    0.10411   0.12161   0.13108   0.13806   0.14323
 Alpha virt. eigenvalues --    0.15202   0.16037   0.19010   0.19730   0.20396

 Mulliken charges:
               1
     1  C   -0.297685
     2  C   -0.419725
     3  H    0.025919
     4  H    0.054134
     5  H    0.211265
     6  C   -0.027499
     7  H    0.015594
     8  H    0.406217
     9  C   -0.159406
    10  H    0.026624
    11  H    0.064045
    12  H    0.006442
    13  H    0.020875
    14  H    0.073201
 Sum of Mulliken charges =   0.00000

 Dipole moment (field-independent basis, Debye):
    X=             -0.9558    Y=             -0.1234    Z=             -0.0819  Tot=              0.9672
 Quadrupole moment (field-independent basis, Debye-Ang):
   XX=            -32.6304   YY=            -29.1936   ZZ=            -28.4016
   XY=              0.2905   XZ=              0.9616   YZ=             -0.9038

 Normal termination of Gaussian 09 at Wed Aug 26 13:08:23 2020.
