 Gaussian 09, Revision D.01,
 Gaussian 09:  ES64L-G09RevD.01 24-Apr-2013

 --------------------
 #p B2PLYPD3/Def2QZVP
 --------------------

 ----------
 butane_opt
 ----------
 Symbolic Z-matrix:
 Charge =  0 Multiplicity = 1

                         Standard orientation:
 ---------------------------------------------------------------------
 Center     Atomic      Atomic             Coordinates (Angstroms)
 Number     Number       Type             X           Y           Z
 ---------------------------------------------------------------------
      1          6           0       -1.994772   -0.052271    0.137943
      2          6           0       -0.606284    0.517749   -0.256541
      3          1           0       -2.745989    0.578878    0.192597
      4          1           0       -1.796569   -0.614953    1.117415
      5          1           0       -2.389462   -0.936627   -0.687095
      6          6           0        0.571562   -0.634683   -0.059368
      7          1           0       -0.398526    1.333242    0.730678
      8          1           0       -0.612708    1.141026   -1.222311
      9          6           0        1.993754    0.149778    0.071092
     10          1           0        0.774496   -1.328923   -0.785043
     11          1           0        0.141342   -1.236889    0.921230
     12          1           0        2.140659    0.574522   -0.690799
     13          1           0        2.780547   -0.680400   -0.013315
     14          1           0        2.320649    1.286682    1.077883
 ---------------------------------------------------------------------

 SCF Done:  E(RB2PLYPD3) =  -157.930774322     A.U. after   11 cycles
 E2(B2PLYPD3) =    -0.2528335145D+00 E(B2PLYPD3) =    -0.15818360783692D+03

 The electronic state is 1-A.
 Alpha  occ. eigenvalues --  -10.64845 -10.64249 -10.62969 -10.61589  -0.88639
 Alpha  occ. eigenvalues --   -0.83022  -0.72655  -0.66181  -0.53129  -0.49124
 Alpha  occ. eigenvalues --   -0.47809  -0.44882  -0.42585  -0.40043  -0.37545
 Alpha  occ. eigenvalues --   -0.36226  -0.35554
 Alpha virt. eigenvalues --    0.04031   0.05671   0.07416   0.08124   0.09257
 Alpha virt. eigenvalues --    0.11321   0.11918   0.13071   0.13951   0.14542
 Alpha virt. eigenvalues --    0.15157   0.16048   0.18772   0.19225   0.20360

 Mulliken charges:
               1
     1  C   -0.135021
     2  C   -0.075615
     3  H    0.071909
     4  H    0.046762
     5  H    0.009099
     6  C   -0.041121
     7  H    0.023880
     8  H    0.044878
     9  C   -0.222317
    10  H    0.065573
    11  H    0.028955
    12  H    0.137531
    13  H    0.036296
    14  H    0.009191
 Sum of Mulliken charges =   0.00000

 Dipole moment (field-independent basis, Debye):
    X=             -0.1520    Y=             -0.1638    Z=             -0.6396  Tot=              0.6775
 Quadrupole moment (field-independent basis, Debye-Ang):
   XX=            -30.4809   YY=            -29.2031   ZZ=            -29.2877
   XY=             -1.2323   XZ=             -1.7130   YZ=              0.0429

 Normal termination of Gaussian 09 at Wed Aug 26 10:52:13 2020.
