 Gaussian 09, Revision D.01,
 Gaussian 09:  ES64L-G09RevD.01 24-Apr-2013

 --------------------
 #p B2PLYPD3/Def2QZVP
 --------------------

 ----------
 butane_opt
 ----------
 Symbolic Z-matrix:
 Charge =  0 Multiplicity = 1

                         Standard orientation:
 ---------------------------------------------------------------------
 Center     Atomic      Atomic             Coordinates (Angstroms)
 Number     Number       Type             X           Y           Z
 ---------------------------------------------------------------------
      1          6           0       -1.972398   -0.184142   -0.018463
      2          6           0       -0.507842    0.528410    0.117093
      3          1           0       -2.884385    0.714639   -0.559047
      4          1           0       -2.416489   -1.410057    1.019425
      5          1           0       -1.846259   -0.392373   -0.614033
      6          6           0        0.628393   -0.400117   -0.151963
      7          1           0       -0.432311    1.103091    1.047311
      8          1           0       -0.403436    1.270392   -0.715395
      9          6           0        1.887061    0.020533    0.000950
     10          1           0        0.632476   -0.738936   -0.946993
     11          1           0        0.626500   -1.011916    0.648129
     12          1           0        1.973920    0.571306   -0.743223
     13          1           0        2.658825   -0.769367    0.034832
     14          1           0        1.879874    0.875112    1.143287
 ---------------------------------------------------------------------

 SCF Done:  E(RB2PLYPD3) =  -157.467213939     A.U. after   12 cycles
 E2(B2PLYPD3) =    -0.2535681489D+00 E(B2PLYPD3) =    -0.15772078208789D+03

 The electronic state is 1-A.
 Alpha  occ. eigenvalues --  -10.64016 -10.62366 -10.60264 -10.55696  -0.97672
 Alpha  occ. eigenvalues --   -0.89011  -0.75951  -0.68349  -0.60880  -0.52582
 Alpha  occ. eigenvalues --   -0.48287  -0.47814  -0.41634  -0.39389  -0.38083
 Alpha  occ. eigenvalues --   -0.36843  -0.34795
 Alpha virt. eigenvalues --    0.01445   0.05211   0.06692   0.08241   0.09742
 Alpha virt. eigenvalues --    0.10213   0.11033   0.12499   0.13303   0.15063
 Alpha virt. eigenvalues --    0.15725   0.16570   0.18436   0.19667   0.20563

 Mulliken charges:
               1
     1  C   -0.814281
     2  C    0.023746
     3  H    0.042527
     4  H    0.037391
     5  H    0.642031
     6  C   -0.086620
     7  H    0.048390
     8  H    0.013401
     9  C   -0.166919
    10  H    0.093814
    11  H    0.041071
    12  H    0.069835
    13  H    0.068340
    14  H   -0.012726
 Sum of Mulliken charges =   0.00000

 Dipole moment (field-independent basis, Debye):
    X=              0.5564    Y=             -0.3838    Z=             -0.9525  Tot=              1.1680
 Quadrupole moment (field-independent basis, Debye-Ang):
   XX=            -32.1791   YY=            -29.1710   ZZ=            -27.9236
   XY=             -1.2802   XZ=             -0.1446   YZ=             -0.6756

 Normal termination of Gaussian 09 at Wed Aug 26 10:04:05 2020.
