 Gaussian 09, Revision D.01,
 Gaussian 09:  ES64L-G09RevD.01 24-Apr-2013

 --------------------
 #p B2PLYPD3/Def2QZVP
 --------------------

 ----------
 butane_opt
 ----------
 Symbolic Z-matrix:
 Charge =  0 Multiplicity = 1

                         Standard orientation:
 ---------------------------------------------------------------------
 Center     Atomic      Atomic             Coordinates (Angstroms)
 Number     Number       Type             X           Y           Z
 ---------------------------------------------------------------------
      1          6           0       -1.978142    0.097977   -0.166293
      2          6           0       -0.663626   -0.439438    0.340505
      3          1           0       -2.837405   -0.891974   -0.583370
      4          1           0       -1.834769    0.521134   -1.007968
      5          1           0       -2.457828    0.894454    0.685394
      6          6           0        0.588106    0.558306    0.054000
      7          1           0       -0.527863   -1.090542   -0.434429
      8          1           0       -0.362048   -0.953537    1.306576
      9          6           0        1.997628   -0.137667   -0.153094
     10          1           0        0.791544    1.365460    0.798412
     11          1           0        0.375645    0.970634   -0.808516
     12          1           0        2.315334   -0.693605    0.760757
     13          1           0        2.678182    0.553626   -0.157900
     14          1           0        2.195406   -1.150721   -1.009663
 ---------------------------------------------------------------------

 SCF Done:  E(RB2PLYPD3) =  -157.977605351     A.U. after   11 cycles
 E2(B2PLYPD3) =    -0.2500541039D+00 E(B2PLYPD3) =    -0.15822765945502D+03

 The electronic state is 1-A.
 Alpha  occ. eigenvalues --  -10.63537 -10.61588 -10.61062 -10.60986  -0.90818
 Alpha  occ. eigenvalues --   -0.83596  -0.72821  -0.67665  -0.53755  -0.49888
 Alpha  occ. eigenvalues --   -0.47876  -0.45767  -0.44649  -0.40659  -0.38246
 Alpha  occ. eigenvalues --   -0.36683  -0.35304
 Alpha virt. eigenvalues --    0.04891   0.05956   0.08109   0.08727   0.10395
 Alpha virt. eigenvalues --    0.10869   0.12052   0.13636   0.14026   0.14520
 Alpha virt. eigenvalues --    0.15673   0.16296   0.18684   0.19285   0.20507

 Mulliken charges:
               1
     1  C   -0.179292
     2  C   -0.082370
     3  H    0.019658
     4  H    0.099197
     5  H    0.036755
     6  C   -0.059672
     7  H    0.069564
     8  H    0.049294
     9  C   -0.150778
    10  H    0.025398
    11  H    0.064705
    12  H    0.017749
    13  H    0.069129
    14  H    0.020664
 Sum of Mulliken charges =   0.00000

 Dipole moment (field-independent basis, Debye):
    X=              0.3916    Y=              0.2731    Z=             -0.1159  Tot=              0.4913
 Quadrupole moment (field-independent basis, Debye-Ang):
   XX=            -31.0720   YY=            -29.0257   ZZ=            -28.6007
   XY=              0.3019   XZ=              1.4457   YZ=              0.3561

 Normal termination of Gaussian 09 at Wed Aug 26 15:17:29 2020.
