 Gaussian 09, Revision D.01,
 Gaussian 09:  ES64L-G09RevD.01 24-Apr-2013

 --------------------
 #p B2PLYPD3/Def2QZVP
 --------------------

 ----------
 butane_opt
 ----------
 Symbolic Z-matrix:
 Charge =  0 Multiplicity = 1

                         Standard orientation:
 ---------------------------------------------------------------------
 Center     Atomic      Atomic             Coordinates (Angstroms)
 Number     Number       Type             X           Y           Z
 ---------------------------------------------------------------------
      1          6           0        1.885163   -0.175617   -0.158535
      2          6           0        0.471906    0.581381    0.012008
      3          1           0        2.627798    0.583149    0.035120
      4          1           0        2.045318   -1.203064   -1.017799
      5          1           0        2.220878   -0.644663    0.825341
      6          6           0       -0.530371   -0.384089    0.319533
      7          1           0        0.144713    1.125967   -0.926576
      8          1           0        0.869678    1.486986    0.721472
      9          6           0       -1.924648    0.014099   -0.149711
     10          1           0       -0.546682   -1.005447    1.500317
     11          1           0       -0.273276   -1.157143   -0.376376
     12          1           0       -2.346736    1.011250    0.734526
     13          1           0       -2.779339   -0.801595   -0.642623
     14          1           0       -1.374652    0.389919   -0.993171
 ---------------------------------------------------------------------

 SCF Done:  E(RB2PLYPD3) =  -157.926201101     A.U. after   11 cycles
 E2(B2PLYPD3) =    -0.2567374190D+00 E(B2PLYPD3) =    -0.15818293851975D+03

 The electronic state is 1-A.
 Alpha  occ. eigenvalues --  -10.64544 -10.63886 -10.63544 -10.63115  -0.93887
 Alpha  occ. eigenvalues --   -0.82008  -0.71385  -0.64883  -0.53462  -0.49863
 Alpha  occ. eigenvalues --   -0.48069  -0.44954  -0.40848  -0.39912  -0.37510
 Alpha  occ. eigenvalues --   -0.35763  -0.34834
 Alpha virt. eigenvalues --    0.04672   0.05483   0.06970   0.07090   0.09836
 Alpha virt. eigenvalues --    0.10379   0.11884   0.12505   0.13609   0.14139
 Alpha virt. eigenvalues --    0.15902   0.16576   0.18410   0.18926   0.19755

 Mulliken charges:
               1
     1  C   -0.151160
     2  C   -0.007646
     3  H    0.042915
     4  H    0.033661
     5  H    0.039948
     6  C   -0.060797
     7  H    0.036500
     8  H    0.017980
     9  C   -0.183924
    10  H    0.007473
    11  H    0.075823
    12  H    0.028101
    13  H    0.058320
    14  H    0.062808
 Sum of Mulliken charges =   0.00000

 Dipole moment (field-independent basis, Debye):
    X=              0.4307    Y=             -0.0572    Z=             -0.1964  Tot=              0.4768
 Quadrupole moment (field-independent basis, Debye-Ang):
   XX=            -31.2446   YY=            -29.5704   ZZ=            -29.8579
   XY=              1.1572   XZ=              1.4924   YZ=              1.2525

 Normal termination of Gaussian 09 at Wed Aug 26 11:02:33 2020.
