 Gaussian 09, Revision D.01,
 Gaussian 09:  ES64L-G09RevD.01 24-Apr-2013

 --------------------
 #p B2PLYPD3/Def2QZVP
 --------------------

 ----------
 butane_opt
 ----------
 Symbolic Z-matrix:
 Charge =  0 Multiplicity = 1

                         Standard orientation:
 ---------------------------------------------------------------------
 Center     Atomic      Atomic             Coordinates (Angstroms)
 Number     Number       Type             X           Y           Z
 ---------------------------------------------------------------------
      1          6           0        1.989400    0.096507    0.148935
      2          6           0        0.595873   -0.480053   -0.210713
      3          1           0        2.949425   -0.695236   -0.055374
      4          1           0        2.202348    1.088427    1.247332
      5          1           0        1.989950    0.316439   -0.518161
      6          6           0       -0.533073    0.534107   -0.118392
      7          1           0        0.370375   -1.265141    0.644597
      8          1           0        0.657679   -0.948431   -1.068767
      9          6           0       -2.021191   -0.141239    0.129607
     10          1           0       -0.490149    1.143050   -1.061401
     11          1           0       -0.440438    1.042729    0.722889
     12          1           0       -2.100352   -0.258240   -0.366254
     13          1           0       -2.747957    0.483214   -0.372835
     14          1           0       -2.576931   -0.962738    1.131353
 ---------------------------------------------------------------------

 SCF Done:  E(RB2PLYPD3) =  -156.835752714     A.U. after   12 cycles
 E2(B2PLYPD3) =    -0.2543682924D+00 E(B2PLYPD3) =    -0.15709012100652D+03

 The electronic state is 1-A.
 Alpha  occ. eigenvalues --  -10.62398 -10.61529 -10.60943 -10.60849  -0.95877
 Alpha  occ. eigenvalues --   -0.92045  -0.79946  -0.68379  -0.55079  -0.49336
 Alpha  occ. eigenvalues --   -0.47318  -0.46127  -0.43692  -0.40078  -0.37819
 Alpha  occ. eigenvalues --   -0.36983  -0.34454
 Alpha virt. eigenvalues --    0.04525   0.05226   0.06585   0.07970   0.09868
 Alpha virt. eigenvalues --    0.10213   0.11499   0.12722   0.14679   0.15884
 Alpha virt. eigenvalues --    0.15997   0.16537   0.18551   0.18951   0.20882

 Mulliken charges:
               1
     1  C   -0.683238
     2  C   -0.018824
     3  H    0.049621
     4  H    0.049527
     5  H    0.520534
     6  C   -0.036049
     7  H    0.019096
     8  H    0.057181
     9  C   -0.964489
    10  H    0.029334
    11  H    0.081282
    12  H    0.800207
    13  H    0.003324
    14  H    0.092495
 Sum of Mulliken charges =   0.00000

 Dipole moment (field-independent basis, Debye):
    X=             -0.2881    Y=             -0.0292    Z=             -0.9628  Tot=              1.0054
 Quadrupole moment (field-independent basis, Debye-Ang):
   XX=            -29.2710   YY=            -29.6344   ZZ=            -26.8219
   XY=              0.7224   XZ=             -0.1634   YZ=             -0.0565

 Normal termination of Gaussian 09 at Wed Aug 26 22:29:51 2020.
