 Gaussian 09, Revision D.01,
 Gaussian 09:  ES64L-G09RevD.01 24-Apr-2013

 --------------------
 #p B2PLYPD3/Def2QZVP
 --------------------

 ----------
 butane_opt
 ----------
 Symbolic Z-matrix:
 Charge =  0 Multiplicity = 1

                         Standard orientation:
 ---------------------------------------------------------------------
 Center     Atomic      Atomic             Coordinates (Angstroms)
 Number     Number       Type             X           Y           Z
 ---------------------------------------------------------------------
      1          6           0        1.959503   -0.135087    0.086775
      2          6           0        0.500773    0.528789   -0.133074
      3          1           0        2.771598    0.536034   -0.161034
      4          1           0        1.999030   -0.558891   -0.627666
      5          1           0        2.170925   -0.875830    1.060725
      6          6           0       -0.564302   -0.433993   -0.052319
      7          1           0        0.379429    1.208899   -1.037702
      8          1           0        0.353840    1.131137    0.747725
      9          6           0       -1.877305    0.072482    0.041225
     10          1           0       -0.401163   -1.160311    0.966611
     11          1           0       -0.564089   -1.109322   -0.960866
     12          1           0       -2.333255    1.139299    1.166999
     13          1           0       -2.681295   -0.773710   -0.341398
     14          1           0       -1.807028    0.269555   -0.469036
 ---------------------------------------------------------------------

 SCF Done:  E(RB2PLYPD3) =  -157.233451326     A.U. after   12 cycles
 E2(B2PLYPD3) =    -0.2527952315D+00 E(B2PLYPD3) =    -0.15748624655732D+03

 The electronic state is 1-A.
 Alpha  occ. eigenvalues --  -10.62296 -10.62194 -10.61373 -10.58989  -0.98879
 Alpha  occ. eigenvalues --   -0.88084  -0.77621  -0.66049  -0.55167  -0.50267
 Alpha  occ. eigenvalues --   -0.49463  -0.47848  -0.42741  -0.41351  -0.38532
 Alpha  occ. eigenvalues --   -0.35854  -0.35668
 Alpha virt. eigenvalues --    0.03374   0.05630   0.06601   0.07575   0.09880
 Alpha virt. eigenvalues --    0.11105   0.12486   0.12826   0.14195   0.15647
 Alpha virt. eigenvalues --    0.15858   0.16263   0.18456   0.19187   0.21238

 Mulliken charges:
               1
     1  C   -0.300223
     2  C   -0.041106
     3  H    0.038537
     4  H    0.191625
     5  H    0.054676
     6  C    0.055834
     7  H    0.024326
     8  H    0.046171
     9  C   -0.979910
    10  H    0.007701
    11  H    0.026268
    12  H    0.025015
    13  H    0.092236
    14  H    0.758849
 Sum of Mulliken charges =   0.00000

 Dipole moment (field-independent basis, Debye):
    X=              0.3460    Y=             -0.0523    Z=             -0.8589  Tot=              0.9274
 Quadrupole moment (field-independent basis, Debye-Ang):
   XX=            -30.1265   YY=            -29.3847   ZZ=            -27.7417
   XY=              0.1182   XZ=              0.4964   YZ=              0.2800

 Normal termination of Gaussian 09 at Wed Aug 26 23:07:11 2020.
