 Gaussian 09, Revision D.01,
 Gaussian 09:  ES64L-G09RevD.01 24-Apr-2013

 --------------------
 #p B2PLYPD3/Def2QZVP
 --------------------

 ----------
 butane_opt
 ----------
 Symbolic Z-matrix:
 Charge =  0 Multiplicity = 1

                         Standard orientation:
 ---------------------------------------------------------------------
 Center     Atomic      Atomic             Coordinates (Angstroms)
 Number     Number       Type             X           Y           Z
 ---------------------------------------------------------------------
      1          6           0        1.879203    0.024350   -0.069367
      2          6           0        0.563404   -0.491076    0.103541
      3          1           0        2.724126   -0.863975   -0.040568
      4          1           0        1.990897    0.645405    0.675274
      5          1           0        2.232267    0.796188   -1.088908
      6          6           0       -0.507713    0.623929    0.179717
      7          1           0        0.767372   -0.977798    0.935012
      8          1           0        0.323843   -1.310096   -0.826988
      9          6           0       -2.018622   -0.147171   -0.116213
     10          1           0        0.092171    1.357223   -0.723483
     11          1           0       -0.439835    1.484690    1.081933
     12          1           0       -1.641312   -0.675392   -0.751939
     13          1           0       -2.803206    0.474195   -0.828337
     14          1           0       -2.743963   -0.990633    0.981938
 ---------------------------------------------------------------------

 SCF Done:  E(RB2PLYPD3) =  -157.855764092     A.U. after   11 cycles
 E2(B2PLYPD3) =    -0.2564932601D+00 E(B2PLYPD3) =    -0.15811225735246D+03

 The electronic state is 1-A.
 Alpha  occ. eigenvalues --  -10.66766 -10.65159 -10.62017 -10.61730  -0.93009
 Alpha  occ. eigenvalues --   -0.82600  -0.71547  -0.66077  -0.53827  -0.49934
 Alpha  occ. eigenvalues --   -0.48164  -0.43093  -0.40794  -0.39194  -0.38470
 Alpha  occ. eigenvalues --   -0.36607  -0.35208
 Alpha virt. eigenvalues --    0.02958   0.05081   0.06771   0.07955   0.08878
 Alpha virt. eigenvalues --    0.10523   0.11736   0.12282   0.13800   0.15117
 Alpha virt. eigenvalues --    0.15761   0.16089   0.16984   0.19210   0.19281

 Mulliken charges:
               1
     1  C   -0.174324
     2  C   -0.003857
     3  H    0.037133
     4  H    0.095438
     5  H    0.004652
     6  C   -0.091885
     7  H    0.065336
     8  H    0.008836
     9  C   -0.256520
    10  H    0.026057
    11  H    0.032549
    12  H    0.170524
    13  H    0.048469
    14  H    0.037591
 Sum of Mulliken charges =   0.00000

 Dipole moment (field-independent basis, Debye):
    X=              0.3596    Y=             -0.2423    Z=              0.1428  Tot=              0.4566
 Quadrupole moment (field-independent basis, Debye-Ang):
   XX=            -30.9783   YY=            -29.7283   ZZ=            -29.3689
   XY=              0.2135   XZ=              1.1859   YZ=              0.0904

 Normal termination of Gaussian 09 at Wed Aug 26 13:21:52 2020.
