 Gaussian 09, Revision D.01,
 Gaussian 09:  ES64L-G09RevD.01 24-Apr-2013

 --------------------
 #p B2PLYPD3/Def2QZVP
 --------------------

 ----------
 butane_opt
 ----------
 Symbolic Z-matrix:
 Charge =  0 Multiplicity = 1

                         Standard orientation:
 ---------------------------------------------------------------------
 Center     Atomic      Atomic             Coordinates (Angstroms)
 Number     Number       Type             X           Y           Z
 ---------------------------------------------------------------------
      1          6           0        1.978658    0.095792   -0.106634
      2          6           0        0.590755   -0.450739    0.115410
      3          1           0        2.763836   -0.751708    0.019218
      4          1           0        2.145201    0.696491    0.583353
      5          1           0        2.087783    0.883426   -1.130206
      6          6           0       -0.579699    0.529268    0.151094
      7          1           0        0.800957   -1.147261    1.065737
      8          1           0        0.541456   -1.266624   -0.770815
      9          6           0       -2.078379   -0.127740   -0.111578
     10          1           0       -0.118015    0.847790   -0.678616
     11          1           0       -0.706164    1.598492    1.206098
     12          1           0       -1.854102   -0.521279   -0.722681
     13          1           0       -2.793772    0.284619   -0.794155
     14          1           0       -2.335189   -0.903430    0.932315
 ---------------------------------------------------------------------

 SCF Done:  E(RB2PLYPD3) =  -157.761171020     A.U. after   11 cycles
 E2(B2PLYPD3) =    -0.2540722929D+00 E(B2PLYPD3) =    -0.15801524331280D+03

 The electronic state is 1-A.
 Alpha  occ. eigenvalues --  -10.65021 -10.64120 -10.61360 -10.59868  -0.92802
 Alpha  occ. eigenvalues --   -0.86675  -0.76815  -0.65087  -0.53564  -0.50142
 Alpha  occ. eigenvalues --   -0.47578  -0.46496  -0.41502  -0.40983  -0.39827
 Alpha  occ. eigenvalues --   -0.35364  -0.34418
 Alpha virt. eigenvalues --    0.04768   0.05550   0.06089   0.07948   0.10314
 Alpha virt. eigenvalues --    0.10763   0.11897   0.12917   0.13523   0.14814
 Alpha virt. eigenvalues --    0.15951   0.16619   0.17132   0.18994   0.20632

 Mulliken charges:
               1
     1  C   -0.158775
     2  C   -0.022194
     3  H    0.054945
     4  H    0.101422
     5  H    0.006266
     6  C   -0.104275
     7  H    0.003110
     8  H    0.025825
     9  C   -0.481678
    10  H    0.086133
    11  H    0.007597
    12  H    0.363915
    13  H    0.058765
    14  H    0.058945
 Sum of Mulliken charges =   0.00000

 Dipole moment (field-independent basis, Debye):
    X=              0.2964    Y=             -0.4961    Z=             -0.5422  Tot=              0.7924
 Quadrupole moment (field-independent basis, Debye-Ang):
   XX=            -29.7467   YY=            -30.2206   ZZ=            -28.5472
   XY=              0.0904   XZ=              1.8918   YZ=             -0.2430

 Normal termination of Gaussian 09 at Wed Aug 26 16:07:59 2020.
