 Gaussian 09, Revision D.01,
 Gaussian 09:  ES64L-G09RevD.01 24-Apr-2013

 --------------------
 #p B2PLYPD3/Def2QZVP
 --------------------

 ----------
 butane_opt
 ----------
 Symbolic Z-matrix:
 Charge =  0 Multiplicity = 1

                         Standard orientation:
 ---------------------------------------------------------------------
 Center     Atomic      Atomic             Coordinates (Angstroms)
 Number     Number       Type             X           Y           Z
 ---------------------------------------------------------------------
      1          6           0       -2.037988    0.156657   -0.134547
      2          6           0       -0.575274   -0.541795    0.123260
      3          1           0       -2.894389   -0.611252   -0.291283
      4          1           0       -2.002889    1.140406   -1.197130
      5          1           0       -2.395996    0.492633    0.603541
      6          6           0        0.687491    0.444682    0.267053
      7          1           0       -0.221762   -0.949892   -0.718992
      8          1           0       -0.587967   -1.318382    0.977882
      9          6           0        1.982636   -0.075772   -0.183203
     10          1           0        0.631880    1.383557    1.576699
     11          1           0        0.456587    0.772995   -0.193402
     12          1           0        2.421728   -0.885531    0.734001
     13          1           0        2.745771    0.507833   -1.052829
     14          1           0        1.505843   -0.434998   -0.873869
 ---------------------------------------------------------------------

 SCF Done:  E(RB2PLYPD3) =  -157.387134015     A.U. after   12 cycles
 E2(B2PLYPD3) =    -0.2545895711D+00 E(B2PLYPD3) =    -0.15764172358619D+03

 The electronic state is 1-A.
 Alpha  occ. eigenvalues --  -10.63694 -10.63422 -10.62877 -10.62178  -0.97830
 Alpha  occ. eigenvalues --   -0.84687  -0.76816  -0.71578  -0.54689  -0.49603
 Alpha  occ. eigenvalues --   -0.48732  -0.46303  -0.43332  -0.41378  -0.39534
 Alpha  occ. eigenvalues --   -0.37348  -0.32203
 Alpha virt. eigenvalues --    0.04154   0.04974   0.05437   0.07986   0.09872
 Alpha virt. eigenvalues --    0.10855   0.11221   0.12594   0.13195   0.14877
 Alpha virt. eigenvalues --    0.15307   0.16914   0.17399   0.18769   0.20771

 Mulliken charges:
               1
     1  C   -0.205914
     2  C   -0.032418
     3  H    0.040866
     4  H    0.018166
     5  H    0.130326
     6  C   -0.794551
     7  H    0.076870
     8  H    0.037848
     9  C   -0.190137
    10  H   -0.049457
    11  H    0.720191
    12  H    0.053249
    13  H    0.057834
    14  H    0.137127
 Sum of Mulliken charges =   0.00000

 Dipole moment (field-independent basis, Debye):
    X=             -0.4972    Y=             -0.7969    Z=             -0.8418  Tot=              1.2613
 Quadrupole moment (field-independent basis, Debye-Ang):
   XX=            -29.0636   YY=            -30.8435   ZZ=            -28.8712
   XY=             -0.2863   XZ=             -2.1977   YZ=             -1.8595

 Normal termination of Gaussian 09 at Wed Aug 26 19:28:31 2020.
