 Gaussian 09, Revision D.01,
 Gaussian 09:  ES64L-G09RevD.01 24-Apr-2013

 --------------------
 #p B2PLYPD3/Def2QZVP
 --------------------

 ----------
 butane_opt
 ----------
 Symbolic Z-matrix:
 Charge =  0 Multiplicity = 1

                         Standard orientation:
 ---------------------------------------------------------------------
 Center     Atomic      Atomic             Coordinates (Angstroms)
 Number     Number       Type             X           Y           Z
 ---------------------------------------------------------------------
      1          6           0        2.123049   -0.147895    0.100518
      2          6           0        0.557293    0.567886   -0.257516
      3          1           0        2.663162    0.559786    0.920116
      4          1           0        2.593474   -1.054282   -0.894200
      5          1           0        1.706401   -0.533909    0.829341
      6          6           0       -0.616179   -0.425597   -0.058219
      7          1           0        0.273385    1.207510   -1.171447
      8          1           0        0.214329    1.318836    0.631412
      9          6           0       -1.955241    0.018911    0.082169
     10          1           0       -0.562132   -1.171993    0.843805
     11          1           0       -0.532143   -1.185979   -0.842558
     12          1           0       -2.065462    0.881506    1.135974
     13          1           0       -2.779384   -0.792283    0.124219
     14          1           0       -2.165164    0.690980   -0.778372
 ---------------------------------------------------------------------

 SCF Done:  E(RB2PLYPD3) =  -157.918387886     A.U. after   11 cycles
 E2(B2PLYPD3) =    -0.2553486553D+00 E(B2PLYPD3) =    -0.15817373654137D+03

 The electronic state is 1-A.
 Alpha  occ. eigenvalues --  -10.64761 -10.64723 -10.63233 -10.61194  -0.91185
 Alpha  occ. eigenvalues --   -0.82689  -0.72825  -0.64943  -0.52088  -0.49604
 Alpha  occ. eigenvalues --   -0.47255  -0.45615  -0.40816  -0.39713  -0.38186
 Alpha  occ. eigenvalues --   -0.36742  -0.34187
 Alpha virt. eigenvalues --    0.03822   0.05151   0.07675   0.07879   0.09550
 Alpha virt. eigenvalues --    0.10639   0.12023   0.12092   0.13371   0.15004
 Alpha virt. eigenvalues --    0.16002   0.16266   0.17390   0.18193   0.19830

 Mulliken charges:
               1
     1  C   -0.265044
     2  C   -0.082707
     3  H    0.057530
     4  H    0.074566
     5  H    0.160475
     6  C    0.022625
     7  H    0.046648
     8  H    0.007013
     9  C   -0.151508
    10  H   -0.002893
    11  H    0.020000
    12  H    0.002185
    13  H    0.068933
    14  H    0.042175
 Sum of Mulliken charges =   0.00000

 Dipole moment (field-independent basis, Debye):
    X=             -0.1438    Y=             -0.5607    Z=              0.0193  Tot=              0.5792
 Quadrupole moment (field-independent basis, Debye-Ang):
   XX=            -31.0529   YY=            -29.8103   ZZ=            -28.7487
   XY=             -0.1516   XZ=              1.0681   YZ=              0.6747

 Normal termination of Gaussian 09 at Wed Aug 26 14:16:26 2020.
