 Gaussian 09, Revision D.01,
 Gaussian 09:  ES64L-G09RevD.01 24-Apr-2013

 --------------------
 #p B2PLYPD3/Def2QZVP
 --------------------

 ----------
 butane_opt
 ----------
 Symbolic Z-matrix:
 Charge =  0 Multiplicity = 1

                         Standard orientation:
 ---------------------------------------------------------------------
 Center     Atomic      Atomic             Coordinates (Angstroms)
 Number     Number       Type             X           Y           Z
 ---------------------------------------------------------------------
      1          6           0       -1.893394   -0.116286    0.085388
      2          6           0       -0.526742    0.604397   -0.103037
      3          1           0       -2.660654    0.545701   -0.137907
      4          1           0       -2.225625   -0.792709    1.003499
      5          1           0       -2.003923   -0.822002   -0.752115
      6          6           0        0.544187   -0.528071    0.028617
      7          1           0       -0.510603    0.943971    0.588744
      8          1           0       -0.274940    1.377712   -1.254220
      9          6           0        1.960219    0.045146    0.078517
     10          1           0        0.239963   -1.091931   -0.845691
     11          1           0        0.280950   -1.039945    0.748131
     12          1           0        1.919241    0.263998   -0.637605
     13          1           0        2.704927   -0.664390   -0.529864
     14          1           0        2.025040    1.248475    1.280117
 ---------------------------------------------------------------------

 SCF Done:  E(RB2PLYPD3) =  -157.591505845     A.U. after   11 cycles
 E2(B2PLYPD3) =    -0.2546057230D+00 E(B2PLYPD3) =    -0.15784611156772D+03

 The electronic state is 1-A.
 Alpha  occ. eigenvalues --  -10.61832 -10.60660 -10.60417 -10.58991  -0.94553
 Alpha  occ. eigenvalues --   -0.87281  -0.75955  -0.71196  -0.55373  -0.49586
 Alpha  occ. eigenvalues --   -0.47710  -0.45420  -0.40968  -0.39742  -0.39560
 Alpha  occ. eigenvalues --   -0.37064  -0.35020
 Alpha virt. eigenvalues --    0.00318   0.05381   0.06286   0.07638   0.10384
 Alpha virt. eigenvalues --    0.11512   0.11873   0.13101   0.13649   0.14981
 Alpha virt. eigenvalues --    0.16365   0.16952   0.18726   0.19061   0.20807

 Mulliken charges:
               1
     1  C   -0.137820
     2  C   -0.390390
     3  H    0.054148
     4  H    0.043774
     5  H    0.026588
     6  C   -0.058984
     7  H    0.339389
     8  H    0.029446
     9  C   -0.538955
    10  H    0.030576
    11  H    0.088503
    12  H    0.430416
    13  H    0.042705
    14  H    0.040605
 Sum of Mulliken charges =   0.00000

 Dipole moment (field-independent basis, Debye):
    X=             -0.5565    Y=             -0.0398    Z=             -0.4333  Tot=              0.7064
 Quadrupole moment (field-independent basis, Debye-Ang):
   XX=            -31.2100   YY=            -29.4287   ZZ=            -27.5915
   XY=              0.4581   XZ=             -2.1747   YZ=              0.6282

 Normal termination of Gaussian 09 at Wed Aug 26 16:33:47 2020.
