 Gaussian 09, Revision D.01,
 Gaussian 09:  ES64L-G09RevD.01 24-Apr-2013

 --------------------
 #p B2PLYPD3/Def2QZVP
 --------------------

 ----------
 butane_opt
 ----------
 Symbolic Z-matrix:
 Charge =  0 Multiplicity = 1

                         Standard orientation:
 ---------------------------------------------------------------------
 Center     Atomic      Atomic             Coordinates (Angstroms)
 Number     Number       Type             X           Y           Z
 ---------------------------------------------------------------------
      1          6           0        2.069158   -0.128834   -0.109383
      2          6           0        0.598714    0.554950    0.203069
      3          1           0        2.856321    0.430308   -1.081081
      4          1           0        1.621645   -0.354219   -0.802219
      5          1           0        2.434226   -0.977590    0.833503
      6          6           0       -0.542331   -0.507320    0.162878
      7          1           0        0.452871    0.765828   -0.398585
      8          1           0        0.219773    1.533600    1.361054
      9          6           0       -2.022415    0.076642   -0.173526
     10          1           0       -0.599585   -1.088311    1.040589
     11          1           0       -0.482267   -1.095237   -0.632889
     12          1           0       -2.315353    0.674330    0.549956
     13          1           0       -2.802591   -0.731961   -0.180100
     14          1           0       -2.003802    0.870619   -1.188454
 ---------------------------------------------------------------------

 SCF Done:  E(RB2PLYPD3) =  -157.511304038     A.U. after   11 cycles
 E2(B2PLYPD3) =    -0.2546245525D+00 E(B2PLYPD3) =    -0.15776592859022D+03

 The electronic state is 1-A.
 Alpha  occ. eigenvalues --  -10.63942 -10.62798 -10.62076 -10.60765  -0.95767
 Alpha  occ. eigenvalues --   -0.84438  -0.75998  -0.70649  -0.55017  -0.48962
 Alpha  occ. eigenvalues --   -0.47942  -0.45514  -0.42541  -0.40535  -0.39520
 Alpha  occ. eigenvalues --   -0.37998  -0.33151
 Alpha virt. eigenvalues --    0.03776   0.04587   0.06359   0.08374   0.09935
 Alpha virt. eigenvalues --    0.10424   0.11948   0.12345   0.13788   0.14354
 Alpha virt. eigenvalues --    0.15456   0.17092   0.17372   0.18549   0.20624

 Mulliken charges:
               1
     1  C   -0.327709
     2  C   -0.777642
     3  H    0.035220
     4  H    0.247478
     5  H    0.073197
     6  C   -0.031294
     7  H    0.696557
     8  H   -0.001166
     9  C   -0.158113
    10  H    0.039236
    11  H    0.064636
    12  H    0.069790
    13  H    0.053144
    14  H    0.016666
 Sum of Mulliken charges =   0.00000

 Dipole moment (field-independent basis, Debye):
    X=             -0.5454    Y=             -0.8254    Z=             -0.5674  Tot=              1.1405
 Quadrupole moment (field-independent basis, Debye-Ang):
   XX=            -30.6289   YY=            -30.2724   ZZ=            -27.9247
   XY=             -0.7705   XZ=             -1.5916   YZ=             -1.2865

 Normal termination of Gaussian 09 at Wed Aug 26 15:14:40 2020.
