 Gaussian 09, Revision D.01,
 Gaussian 09:  ES64L-G09RevD.01 24-Apr-2013

 --------------------
 #p B2PLYPD3/Def2QZVP
 --------------------

 ----------
 butane_opt
 ----------
 Symbolic Z-matrix:
 Charge =  0 Multiplicity = 1

                         Standard orientation:
 ---------------------------------------------------------------------
 Center     Atomic      Atomic             Coordinates (Angstroms)
 Number     Number       Type             X           Y           Z
 ---------------------------------------------------------------------
      1          6           0        1.965035   -0.126609    0.165489
      2          6           0        0.506474    0.496161   -0.250087
      3          1           0        2.641067    0.301865    0.503623
      4          1           0        2.402721   -0.730052   -0.733905
      5          1           0        1.798974   -0.673876    0.904412
      6          6           0       -0.553349   -0.415596   -0.142865
      7          1           0        0.722387    1.229921   -1.212579
      8          1           0        0.098855    0.981951    0.479231
      9          6           0       -1.907404    0.124249    0.121275
     10          1           0       -0.404700   -1.078630    0.770118
     11          1           0       -0.633319   -0.980787   -0.755625
     12          1           0       -1.702350    1.113921    1.281292
     13          1           0       -2.917533   -0.870842   -0.153912
     14          1           0       -2.070641    0.237302   -0.445530
 ---------------------------------------------------------------------

 SCF Done:  E(RB2PLYPD3) =  -157.307282503     A.U. after   12 cycles
 E2(B2PLYPD3) =    -0.2528561655D+00 E(B2PLYPD3) =    -0.15756013866834D+03

 The electronic state is 1-A.
 Alpha  occ. eigenvalues --  -10.63400 -10.60657 -10.57643 -10.56979  -0.97560
 Alpha  occ. eigenvalues --   -0.87747  -0.80716  -0.71064  -0.58591  -0.51853
 Alpha  occ. eigenvalues --   -0.49480  -0.46701  -0.43653  -0.40447  -0.38386
 Alpha  occ. eigenvalues --   -0.37047  -0.34962
 Alpha virt. eigenvalues --    0.01993   0.05781   0.06644   0.07937   0.10118
 Alpha virt. eigenvalues --    0.11203   0.12463   0.13759   0.14217   0.14946
 Alpha virt. eigenvalues --    0.16014   0.17005   0.18339   0.19793   0.21519

 Mulliken charges:
               1
     1  C   -0.192220
     2  C   -0.051638
     3  H    0.083188
     4  H    0.022690
     5  H    0.057193
     6  C   -0.076539
     7  H    0.021185
     8  H    0.075422
     9  C   -0.836800
    10  H    0.032800
    11  H    0.129137
    12  H    0.051138
    13  H    0.005886
    14  H    0.678558
 Sum of Mulliken charges =   0.00000

 Dipole moment (field-independent basis, Debye):
    X=              0.3954    Y=              0.0237    Z=             -0.1787  Tot=              0.4346
 Quadrupole moment (field-independent basis, Debye-Ang):
   XX=            -30.2063   YY=            -29.4899   ZZ=            -27.4930
   XY=              0.1801   XZ=              1.8316   YZ=              0.7494

 Normal termination of Gaussian 09 at Wed Aug 26 23:05:51 2020.
