 Gaussian 09, Revision D.01,
 Gaussian 09:  ES64L-G09RevD.01 24-Apr-2013

 --------------------
 #p B2PLYPD3/Def2QZVP
 --------------------

 ----------
 butane_opt
 ----------
 Symbolic Z-matrix:
 Charge =  0 Multiplicity = 1

                         Standard orientation:
 ---------------------------------------------------------------------
 Center     Atomic      Atomic             Coordinates (Angstroms)
 Number     Number       Type             X           Y           Z
 ---------------------------------------------------------------------
      1          6           0        1.914920    0.026279   -0.156419
      2          6           0        0.532211   -0.466012    0.253376
      3          1           0        2.772127   -0.873937   -0.620664
      4          1           0        2.441626    1.170562    0.837787
      5          1           0        1.208022    0.378808   -0.878939
      6          6           0       -0.431117    0.630546    0.069659
      7          1           0        0.260760   -1.170272    1.373322
      8          1           0        0.496311   -0.934194   -0.568918
      9          6           0       -1.909086   -0.110966   -0.073757
     10          1           0       -0.371706    1.114572   -0.822820
     11          1           0       -0.474866    1.013477    0.679154
     12          1           0       -2.015164   -1.098579   -0.977481
     13          1           0       -2.561875    0.526529   -0.250459
     14          1           0       -2.396801   -0.606048    0.671865
 ---------------------------------------------------------------------

 SCF Done:  E(RB2PLYPD3) =  -157.644551260     A.U. after   11 cycles
 E2(B2PLYPD3) =    -0.2556178324D+00 E(B2PLYPD3) =    -0.15790016909259D+03

 The electronic state is 1-A.
 Alpha  occ. eigenvalues --  -10.66455 -10.62432 -10.60399 -10.58254  -0.97399
 Alpha  occ. eigenvalues --   -0.85665  -0.76913  -0.65871  -0.59802  -0.50668
 Alpha  occ. eigenvalues --   -0.48843  -0.47514  -0.43361  -0.39712  -0.37959
 Alpha  occ. eigenvalues --   -0.35640  -0.34321
 Alpha virt. eigenvalues --    0.02945   0.05581   0.07208   0.08113   0.09836
 Alpha virt. eigenvalues --    0.10190   0.11687   0.13459   0.13764   0.14312
 Alpha virt. eigenvalues --    0.16344   0.16630   0.18391   0.19844   0.20262

 Mulliken charges:
               1
     1  C   -0.171430
     2  C   -0.100785
     3  H    0.058149
     4  H   -0.014012
     5  H    0.080673
     6  C   -0.442032
     7  H    0.013332
     8  H    0.143900
     9  C   -0.146004
    10  H    0.083424
    11  H    0.387430
    12  H   -0.002673
    13  H    0.072651
    14  H    0.037377
 Sum of Mulliken charges =   0.00000

 Dipole moment (field-independent basis, Debye):
    X=             -0.9043    Y=              0.0330    Z=             -0.3170  Tot=              0.9588
 Quadrupole moment (field-independent basis, Debye-Ang):
   XX=            -31.3365   YY=            -29.3181   ZZ=            -29.1073
   XY=             -2.0335   XZ=             -1.3225   YZ=              0.7356

 Normal termination of Gaussian 09 at Wed Aug 26 15:37:44 2020.
