 Gaussian 09, Revision D.01,
 Gaussian 09:  ES64L-G09RevD.01 24-Apr-2013

 --------------------
 #p B2PLYPD3/Def2QZVP
 --------------------

 ----------
 butane_opt
 ----------
 Symbolic Z-matrix:
 Charge =  0 Multiplicity = 1

                         Standard orientation:
 ---------------------------------------------------------------------
 Center     Atomic      Atomic             Coordinates (Angstroms)
 Number     Number       Type             X           Y           Z
 ---------------------------------------------------------------------
      1          6           0        1.948938    0.112240   -0.023205
      2          6           0        0.556215   -0.506499    0.055520
      3          1           0        2.808397   -0.723264   -0.096927
      4          1           0        2.148173    0.517454    0.685737
      5          1           0        1.969522    0.836177   -1.036033
      6          6           0       -0.553384    0.602295    0.109795
      7          1           0        0.651989   -1.165209    0.898066
      8          1           0        0.463865   -1.072343   -0.858089
      9          6           0       -1.948567   -0.160285   -0.084450
     10          1           0       -0.440800    1.075411   -0.648067
     11          1           0       -0.507318    1.303927    1.029469
     12          1           0       -1.961280   -0.703522   -0.934643
     13          1           0       -2.659232    0.575124   -0.303768
     14          1           0       -2.492524   -0.930264    0.918295
 ---------------------------------------------------------------------

 SCF Done:  E(RB2PLYPD3) =  -157.961317276     A.U. after   11 cycles
 E2(B2PLYPD3) =    -0.2474069779D+00 E(B2PLYPD3) =    -0.15820872425381D+03

 The electronic state is 1-A.
 Alpha  occ. eigenvalues --  -10.61435 -10.60510 -10.60193 -10.59296  -0.91373
 Alpha  occ. eigenvalues --   -0.83870  -0.73745  -0.68752  -0.54935  -0.49860
 Alpha  occ. eigenvalues --   -0.47850  -0.46961  -0.43796  -0.40210  -0.39282
 Alpha  occ. eigenvalues --   -0.37912  -0.36327
 Alpha virt. eigenvalues --    0.05416   0.06314   0.08275   0.08842   0.10700
 Alpha virt. eigenvalues --    0.11361   0.12615   0.13261   0.14812   0.15269
 Alpha virt. eigenvalues --    0.15780   0.16600   0.19064   0.19810   0.21674

 Mulliken charges:
               1
     1  C   -0.249230
     2  C   -0.023337
     3  H    0.025535
     4  H    0.147850
     5  H    0.018822
     6  C   -0.129579
     7  H    0.039034
     8  H    0.047241
     9  C   -0.157603
    10  H    0.124679
    11  H    0.033085
    12  H    0.060148
    13  H    0.043188
    14  H    0.020168
 Sum of Mulliken charges =   0.00000

 Dipole moment (field-independent basis, Debye):
    X=              0.0024    Y=              0.2334    Z=             -0.1703  Tot=              0.2889
 Quadrupole moment (field-independent basis, Debye-Ang):
   XX=            -30.6071   YY=            -28.8559   ZZ=            -27.8478
   XY=             -0.7577   XZ=              1.4894   YZ=              0.0070

 Normal termination of Gaussian 09 at Wed Aug 26 21:18:08 2020.
