 Gaussian 09, Revision D.01,
 Gaussian 09:  ES64L-G09RevD.01 24-Apr-2013

 --------------------
 #p B2PLYPD3/Def2QZVP
 --------------------

 ----------
 butane_opt
 ----------
 Symbolic Z-matrix:
 Charge =  0 Multiplicity = 1

                         Standard orientation:
 ---------------------------------------------------------------------
 Center     Atomic      Atomic             Coordinates (Angstroms)
 Number     Number       Type             X           Y           Z
 ---------------------------------------------------------------------
      1          6           0        1.935223    0.138905   -0.026187
      2          6           0        0.479998   -0.547165    0.150537
      3          1           0        2.825331   -0.913834   -0.621484
      4          1           0        2.435927    1.458859    1.013902
      5          1           0        1.613717    0.353346   -0.631819
      6          6           0       -0.535224    0.443504   -0.092323
      7          1           0        0.392056   -0.928106    1.002068
      8          1           0        0.362058   -1.214633   -0.712301
      9          6           0       -1.932113   -0.063748    0.033651
     10          1           0       -0.248498    1.045658   -1.037026
     11          1           0       -0.707268    1.070337    0.668446
     12          1           0       -1.862774   -0.549769   -0.760950
     13          1           0       -2.573237    0.597736   -0.386982
     14          1           0       -1.924614   -0.748569    1.072077
 ---------------------------------------------------------------------

 SCF Done:  E(RB2PLYPD3) =  -157.609693469     A.U. after   12 cycles
 E2(B2PLYPD3) =    -0.2562952655D+00 E(B2PLYPD3) =    -0.15786598873444D+03

 The electronic state is 1-A.
 Alpha  occ. eigenvalues --  -10.64548 -10.60187 -10.59238 -10.59059  -0.96335
 Alpha  occ. eigenvalues --   -0.88021  -0.76205  -0.68365  -0.58335  -0.52248
 Alpha  occ. eigenvalues --   -0.47931  -0.46209  -0.42232  -0.40399  -0.38217
 Alpha  occ. eigenvalues --   -0.35322  -0.34336
 Alpha virt. eigenvalues --   -0.00434   0.05430   0.06371   0.07621   0.09886
 Alpha virt. eigenvalues --    0.10123   0.12091   0.12339   0.13293   0.15260
 Alpha virt. eigenvalues --    0.15866   0.16685   0.18557   0.18924   0.21108

 Mulliken charges:
               1
     1  C   -0.617530
     2  C   -0.038107
     3  H    0.023049
     4  H    0.030349
     5  H    0.486036
     6  C   -0.052044
     7  H    0.063168
     8  H    0.039855
     9  C   -0.206317
    10  H    0.020881
    11  H    0.050735
    12  H    0.072454
    13  H    0.053813
    14  H    0.073656
 Sum of Mulliken charges =   0.00000

 Dipole moment (field-independent basis, Debye):
    X=             -1.0509    Y=             -0.0754    Z=             -0.4114  Tot=              1.1310
 Quadrupole moment (field-independent basis, Debye-Ang):
   XX=            -33.2904   YY=            -29.2989   ZZ=            -27.6879
   XY=             -0.5910   XZ=             -0.1179   YZ=              0.2340

 Normal termination of Gaussian 09 at Wed Aug 26 16:01:15 2020.
