 Gaussian 09, Revision D.01,
 Gaussian 09:  ES64L-G09RevD.01 24-Apr-2013

 --------------------
 #p B2PLYPD3/Def2QZVP
 --------------------

 ----------
 butane_opt
 ----------
 Symbolic Z-matrix:
 Charge =  0 Multiplicity = 1

                         Standard orientation:
 ---------------------------------------------------------------------
 Center     Atomic      Atomic             Coordinates (Angstroms)
 Number     Number       Type             X           Y           Z
 ---------------------------------------------------------------------
      1          6           0       -2.008459   -0.146174    0.021545
      2          6           0       -0.522578    0.576982   -0.072734
      3          1           0       -2.687395    0.537963    0.008386
      4          1           0       -2.277559   -0.778800    0.954817
      5          1           0       -2.145349   -0.729582   -0.849439
      6          6           0        0.617953   -0.488917    0.059811
      7          1           0       -0.593639    1.089151    0.715305
      8          1           0       -0.340777    1.280072   -0.982898
      9          6           0        1.946362    0.075383    0.010390
     10          1           0        0.569468   -1.262419   -0.788915
     11          1           0        0.539191   -1.031903    0.836385
     12          1           0        1.802652    0.378341   -0.667840
     13          1           0        2.652234   -0.487315   -0.407039
     14          1           0        2.281512    0.900857    1.067162
 ---------------------------------------------------------------------

 SCF Done:  E(RB2PLYPD3) =  -157.842294690     A.U. after   11 cycles
 E2(B2PLYPD3) =    -0.2470819919D+00 E(B2PLYPD3) =    -0.15808937668227D+03

 The electronic state is 1-A.
 Alpha  occ. eigenvalues --  -10.60702 -10.59298 -10.59094 -10.56631  -0.94455
 Alpha  occ. eigenvalues --   -0.85379  -0.75662  -0.69450  -0.54803  -0.50858
 Alpha  occ. eigenvalues --   -0.48583  -0.48015  -0.42471  -0.41889  -0.39426
 Alpha  occ. eigenvalues --   -0.37465  -0.36595
 Alpha virt. eigenvalues --    0.05853   0.06717   0.07964   0.08576   0.10736
 Alpha virt. eigenvalues --    0.12006   0.12845   0.13553   0.14775   0.15142
 Alpha virt. eigenvalues --    0.16521   0.17193   0.19249   0.19743   0.21329

 Mulliken charges:
               1
     1  C   -0.145541
     2  C   -0.095976
     3  H    0.059786
     4  H    0.033373
     5  H    0.045180
     6  C   -0.008390
     7  H    0.076979
     8  H    0.026192
     9  C   -0.473629
    10  H   -0.000246
    11  H    0.059175
    12  H    0.340975
    13  H    0.044793
    14  H    0.037328
 Sum of Mulliken charges =   0.00000

 Dipole moment (field-independent basis, Debye):
    X=             -0.2312    Y=              0.0326    Z=             -0.2301  Tot=              0.3279
 Quadrupole moment (field-independent basis, Debye-Ang):
   XX=            -29.3104   YY=            -28.7770   ZZ=            -27.3728
   XY=             -0.7181   XZ=             -1.2630   YZ=              0.2911

 Normal termination of Gaussian 09 at Wed Aug 26 22:33:14 2020.
