 Gaussian 09, Revision D.01,
 Gaussian 09:  ES64L-G09RevD.01 24-Apr-2013

 --------------------
 #p B2PLYPD3/Def2QZVP
 --------------------

 ----------
 butane_opt
 ----------
 Symbolic Z-matrix:
 Charge =  0 Multiplicity = 1

                         Standard orientation:
 ---------------------------------------------------------------------
 Center     Atomic      Atomic             Coordinates (Angstroms)
 Number     Number       Type             X           Y           Z
 ---------------------------------------------------------------------
      1          6           0       -1.948761    0.093756    0.064274
      2          6           0       -0.530609   -0.481308   -0.098956
      3          1           0       -2.840462   -0.784441   -0.263628
      4          1           0       -1.801105    0.338481   -0.488263
      5          1           0       -2.130270    1.100821    1.216721
      6          6           0        0.538280    0.535937   -0.074998
      7          1           0       -0.435742   -1.054695   -0.939557
      8          1           0       -0.550444   -0.987363    0.742995
      9          6           0        1.934080   -0.156226    0.100675
     10          1           0        0.424833    0.922042    0.590199
     11          1           0        0.360288    1.437108   -1.111311
     12          1           0        2.112713   -0.997326    1.023186
     13          1           0        2.749803    0.688197    0.005821
     14          1           0        2.152452   -0.615780   -0.722129
 ---------------------------------------------------------------------

 SCF Done:  E(RB2PLYPD3) =  -157.400369541     A.U. after   12 cycles
 E2(B2PLYPD3) =    -0.2520258143D+00 E(B2PLYPD3) =    -0.15765239535567D+03

 The electronic state is 1-A.
 Alpha  occ. eigenvalues --  -10.61718 -10.61396 -10.60169 -10.58617  -0.96551
 Alpha  occ. eigenvalues --   -0.87513  -0.75915  -0.70714  -0.57052  -0.49017
 Alpha  occ. eigenvalues --   -0.47460  -0.46830  -0.43355  -0.41576  -0.38665
 Alpha  occ. eigenvalues --   -0.37172  -0.34860
 Alpha virt. eigenvalues --    0.03785   0.05916   0.06368   0.07777   0.10490
 Alpha virt. eigenvalues --    0.11201   0.11941   0.13016   0.13850   0.14996
 Alpha virt. eigenvalues --    0.15542   0.16248   0.18404   0.19679   0.21779

 Mulliken charges:
               1
     1  C   -0.871279
     2  C   -0.005151
     3  H    0.069055
     4  H    0.680995
     5  H    0.034203
     6  C   -0.343076
     7  H    0.050963
     8  H    0.066240
     9  C   -0.146682
    10  H    0.314424
    11  H    0.002813
    12  H    0.046183
    13  H    0.035154
    14  H    0.066157
 Sum of Mulliken charges =   0.00000

 Dipole moment (field-independent basis, Debye):
    X=              0.3596    Y=             -0.3398    Z=             -0.2356  Tot=              0.5480
 Quadrupole moment (field-independent basis, Debye-Ang):
   XX=            -30.9272   YY=            -28.8449   ZZ=            -27.9566
   XY=              0.2727   XZ=              0.2441   YZ=              0.5723

 Normal termination of Gaussian 09 at Wed Aug 26 14:52:16 2020.
