 Gaussian 09, Revision D.01,
 Gaussian 09:  ES64L-G09RevD.01 24-Apr-2013

 --------------------
 #p B2PLYPD3/Def2QZVP
 --------------------

 ----------
 butane_opt
 ----------
 Symbolic Z-matrix:
 Charge =  0 Multiplicity = 1

                         Standard orientation:
 ---------------------------------------------------------------------
 Center     Atomic      Atomic             Coordinates (Angstroms)
 Number     Number       Type             X           Y           Z
 ---------------------------------------------------------------------
      1          6           0       -1.922080    0.078459   -0.179552
      2          6           0       -0.635481   -0.540137    0.262622
      3          1           0       -2.684342   -0.810509   -0.585301
      4          1           0       -1.504580    0.532502   -1.095089
      5          1           0       -2.638521    0.933760    0.733608
      6          6           0        0.569225    0.617573   -0.017541
      7          1           0       -0.532541   -0.931831   -0.211244
      8          1           0       -0.717843   -1.125437    1.308891
      9          6           0        2.040822   -0.138959   -0.090259
     10          1           0        0.335230    1.649915    0.878373
     11          1           0        0.352908    0.970814   -0.706038
     12          1           0        2.147487   -0.542944    0.854269
     13          1           0        2.719243    0.412062    0.062916
     14          1           0        2.208043   -1.189946   -1.092004
 ---------------------------------------------------------------------

 SCF Done:  E(RB2PLYPD3) =  -157.410682756     A.U. after   11 cycles
 E2(B2PLYPD3) =    -0.2529153759D+00 E(B2PLYPD3) =    -0.15766359813163D+03

 The electronic state is 1-A.
 Alpha  occ. eigenvalues --  -10.64673 -10.62713 -10.61838 -10.59168  -0.94414
 Alpha  occ. eigenvalues --   -0.85048  -0.75790  -0.71068  -0.54279  -0.49827
 Alpha  occ. eigenvalues --   -0.48103  -0.44698  -0.42447  -0.39935  -0.39039
 Alpha  occ. eigenvalues --   -0.37775  -0.35035
 Alpha virt. eigenvalues --    0.04246   0.04610   0.07227   0.08512   0.09667
 Alpha virt. eigenvalues --    0.10570   0.11901   0.13681   0.14034   0.14713
 Alpha virt. eigenvalues --    0.15634   0.16182   0.18032   0.18849   0.19832

 Mulliken charges:
               1
     1  C   -0.127907
     2  C   -0.745294
     3  H    0.032890
     4  H    0.060649
     5  H    0.032670
     6  C   -0.268325
     7  H    0.665031
     8  H    0.066164
     9  C   -0.209645
    10  H    0.015086
    11  H    0.270172
    12  H    0.060631
    13  H    0.112004
    14  H    0.035872
 Sum of Mulliken charges =   0.00000

 Dipole moment (field-independent basis, Debye):
    X=              0.3975    Y=             -0.2938    Z=             -0.1905  Tot=              0.5297
 Quadrupole moment (field-independent basis, Debye-Ang):
   XX=            -30.1319   YY=            -29.1250   ZZ=            -28.4403
   XY=              0.5733   XZ=              0.3937   YZ=              0.5091

 Normal termination of Gaussian 09 at Wed Aug 26 15:53:31 2020.
