 Gaussian 09, Revision D.01,
 Gaussian 09:  ES64L-G09RevD.01 24-Apr-2013

 --------------------
 #p B2PLYPD3/Def2QZVP
 --------------------

 ----------
 butane_opt
 ----------
 Symbolic Z-matrix:
 Charge =  0 Multiplicity = 1

                         Standard orientation:
 ---------------------------------------------------------------------
 Center     Atomic      Atomic             Coordinates (Angstroms)
 Number     Number       Type             X           Y           Z
 ---------------------------------------------------------------------
      1          6           0       -1.962363    0.069478    0.130983
      2          6           0       -0.563374   -0.495545   -0.119115
      3          1           0       -2.783495   -0.778989   -0.187181
      4          1           0       -2.336040    0.256011   -0.468722
      5          1           0       -2.006045    0.915124    1.233644
      6          6           0        0.565713    0.629283   -0.242214
      7          1           0       -0.681377   -0.930589   -0.830098
      8          1           0       -0.224590   -1.190184    0.818408
      9          6           0        1.947228   -0.110797    0.162027
     10          1           0        0.266109    1.145521    0.398767
     11          1           0        0.446443    1.394445   -1.124575
     12          1           0        2.066172   -0.548656    1.043621
     13          1           0        2.697040    0.359479    0.512045
     14          1           0        2.632560   -1.176667   -0.985992
 ---------------------------------------------------------------------

 SCF Done:  E(RB2PLYPD3) =  -157.572659982     A.U. after   11 cycles
 E2(B2PLYPD3) =    -0.2532811952D+00 E(B2PLYPD3) =    -0.15782594117695D+03

 The electronic state is 1-A.
 Alpha  occ. eigenvalues --  -10.63266 -10.61486 -10.60671 -10.59892  -0.93235
 Alpha  occ. eigenvalues --   -0.86871  -0.79476  -0.72930  -0.55823  -0.51864
 Alpha  occ. eigenvalues --   -0.47412  -0.45231  -0.41776  -0.39917  -0.39466
 Alpha  occ. eigenvalues --   -0.34677  -0.34466
 Alpha virt. eigenvalues --    0.02483   0.04077   0.07614   0.08067   0.09387
 Alpha virt. eigenvalues --    0.10246   0.11928   0.13396   0.14611   0.15271
 Alpha virt. eigenvalues --    0.15736   0.16850   0.18443   0.19302   0.20094

 Mulliken charges:
               1
     1  C   -0.508599
     2  C   -0.103630
     3  H    0.012386
     4  H    0.370291
     5  H    0.049953
     6  C   -0.156540
     7  H    0.151707
     8  H    0.043928
     9  C   -0.158964
    10  H    0.156958
    11  H    0.032119
    12  H    0.066070
    13  H    0.067997
    14  H   -0.023676
 Sum of Mulliken charges =   0.00000

 Dipole moment (field-independent basis, Debye):
    X=             -0.4271    Y=              0.7073    Z=              0.2651  Tot=              0.8677
 Quadrupole moment (field-independent basis, Debye-Ang):
   XX=            -30.3364   YY=            -29.7415   ZZ=            -27.9992
   XY=              0.5121   XZ=              4.3809   YZ=              0.6984

 Normal termination of Gaussian 09 at Wed Aug 26 12:07:24 2020.
