 Gaussian 09, Revision D.01,
 Gaussian 09:  ES64L-G09RevD.01 24-Apr-2013

 --------------------
 #p B2PLYPD3/Def2QZVP
 --------------------

 ----------
 butane_opt
 ----------
 Symbolic Z-matrix:
 Charge =  0 Multiplicity = 1

                         Standard orientation:
 ---------------------------------------------------------------------
 Center     Atomic      Atomic             Coordinates (Angstroms)
 Number     Number       Type             X           Y           Z
 ---------------------------------------------------------------------
      1          6           0        2.067548   -0.172445   -0.107387
      2          6           0        0.482970    0.597631    0.071873
      3          1           0        2.895448    0.527581   -0.190656
      4          1           0        1.967153   -0.818518   -0.947560
      5          1           0        2.557918   -0.741052    0.771022
      6          6           0       -0.590065   -0.454089    0.152462
      7          1           0        0.299143    0.992997   -0.684369
      8          1           0        0.294094    1.431472    0.973184
      9          6           0       -1.967752    0.054611   -0.117337
     10          1           0       -0.782300   -1.406804    1.475150
     11          1           0       -0.576128   -0.815890   -0.467819
     12          1           0       -2.366205    1.064910    0.827372
     13          1           0       -2.740341   -0.864870   -0.682506
     14          1           0       -1.504991    0.475922   -1.071483
 ---------------------------------------------------------------------

 SCF Done:  E(RB2PLYPD3) =  -157.651554914     A.U. after   12 cycles
 E2(B2PLYPD3) =    -0.2559578875D+00 E(B2PLYPD3) =    -0.15790751280191D+03

 The electronic state is 1-A.
 Alpha  occ. eigenvalues --  -10.66688 -10.62789 -10.62637 -10.61880  -0.96831
 Alpha  occ. eigenvalues --   -0.82649  -0.74769  -0.68377  -0.55203  -0.49688
 Alpha  occ. eigenvalues --   -0.47415  -0.45921  -0.42188  -0.41511  -0.38803
 Alpha  occ. eigenvalues --   -0.37566  -0.31884
 Alpha virt. eigenvalues --    0.02743   0.05369   0.06024   0.08115   0.09378
 Alpha virt. eigenvalues --    0.10094   0.11201   0.12867   0.14212   0.14283
 Alpha virt. eigenvalues --    0.15655   0.15977   0.17893   0.18715   0.19831

 Mulliken charges:
               1
     1  C   -0.150900
     2  C   -0.139067
     3  H    0.046794
     4  H    0.058724
     5  H    0.049213
     6  C   -0.553110
     7  H    0.163620
     8  H    0.038106
     9  C   -0.129167
    10  H   -0.046244
    11  H    0.535799
    12  H    0.045637
    13  H    0.054366
    14  H    0.026229
 Sum of Mulliken charges =   0.00000

 Dipole moment (field-independent basis, Debye):
    X=              0.4129    Y=              0.3947    Z=             -1.1254  Tot=              1.2620
 Quadrupole moment (field-independent basis, Debye-Ang):
   XX=            -29.7243   YY=            -30.4280   ZZ=            -29.3768
   XY=              0.3146   XZ=              0.6189   YZ=              1.9859

 Normal termination of Gaussian 09 at Wed Aug 26 14:41:05 2020.
