 Gaussian 09, Revision D.01,
 Gaussian 09:  ES64L-G09RevD.01 24-Apr-2013

 --------------------
 #p B2PLYPD3/Def2QZVP
 --------------------

 ----------
 butane_opt
 ----------
 Symbolic Z-matrix:
 Charge =  0 Multiplicity = 1

                         Standard orientation:
 ---------------------------------------------------------------------
 Center     Atomic      Atomic             Coordinates (Angstroms)
 Number     Number       Type             X           Y           Z
 ---------------------------------------------------------------------
      1          6           0       -2.016942    0.146728   -0.105788
      2          6           0       -0.560080   -0.539769    0.063811
      3          1           0       -2.939647   -0.761168   -0.221707
      4          1           0       -1.899994    0.872860   -1.146171
      5          1           0       -2.317530    0.437664    0.447256
      6          6           0        0.569206    0.523560    0.255747
      7          1           0       -0.392304   -0.861472   -0.608319
      8          1           0       -0.562496   -1.184630    1.051712
      9          6           0        2.027194   -0.155263   -0.157400
     10          1           0        0.427309    1.538638    1.421024
     11          1           0        0.507023    0.825469   -0.348278
     12          1           0        2.577509   -0.974993    0.885857
     13          1           0        2.673786    0.540145   -1.024701
     14          1           0        1.810079   -0.284053   -0.794894
 ---------------------------------------------------------------------

 SCF Done:  E(RB2PLYPD3) =  -156.994409375     A.U. after   12 cycles
 E2(B2PLYPD3) =    -0.2549620084D+00 E(B2PLYPD3) =    -0.15724937138334D+03

 The electronic state is 1-A.
 Alpha  occ. eigenvalues --  -10.62852 -10.62027 -10.61204 -10.60086  -0.96662
 Alpha  occ. eigenvalues --   -0.88242  -0.81386  -0.74752  -0.56319  -0.50890
 Alpha  occ. eigenvalues --   -0.49932  -0.45544  -0.42882  -0.39688  -0.38060
 Alpha  occ. eigenvalues --   -0.36836  -0.34097
 Alpha virt. eigenvalues --    0.03388   0.04864   0.06215   0.07475   0.09146
 Alpha virt. eigenvalues --    0.10257   0.11716   0.12362   0.14498   0.14826
 Alpha virt. eigenvalues --    0.16068   0.16894   0.17405   0.18894   0.20179

 Mulliken charges:
               1
     1  C   -0.539343
     2  C   -0.300906
     3  H    0.028662
     4  H    0.046257
     5  H    0.408118
     6  C   -0.673576
     7  H    0.351834
     8  H    0.047804
     9  C   -0.709734
    10  H    0.013570
    11  H    0.628348
    12  H    0.086910
    13  H    0.022578
    14  H    0.589480
 Sum of Mulliken charges =   0.00000

 Dipole moment (field-independent basis, Debye):
    X=             -0.2328    Y=             -0.3710    Z=             -0.5865  Tot=              0.7320
 Quadrupole moment (field-independent basis, Debye-Ang):
   XX=            -31.1667   YY=            -30.1549   ZZ=            -26.9333
   XY=             -1.1464   XZ=             -1.6382   YZ=             -1.1123

 Normal termination of Gaussian 09 at Wed Aug 26 13:59:29 2020.
