 Gaussian 09, Revision D.01,
 Gaussian 09:  ES64L-G09RevD.01 24-Apr-2013

 --------------------
 #p B2PLYPD3/Def2QZVP
 --------------------

 ----------
 butane_opt
 ----------
 Symbolic Z-matrix:
 Charge =  0 Multiplicity = 1

                         Standard orientation:
 ---------------------------------------------------------------------
 Center     Atomic      Atomic             Coordinates (Angstroms)
 Number     Number       Type             X           Y           Z
 ---------------------------------------------------------------------
      1          6           0        1.952824    0.024614   -0.220474
      2          6           0        0.586573   -0.449337    0.302298
      3          1           0        2.737641   -0.617489   -0.379361
      4          1           0        2.414760    0.842039    0.567375
      5          1           0        1.898426    0.418062   -1.028022
      6          6           0       -0.541805    0.639661    0.155932
      7          1           0        0.573060   -1.230607    1.326163
      8          1           0        0.185038   -0.994978   -0.481116
      9          6           0       -1.949736   -0.169452   -0.180933
     10          1           0       -0.349651    0.994096   -0.695874
     11          1           0       -0.452942    1.301250    1.008819
     12          1           0       -1.961152   -0.845032   -0.915901
     13          1           0       -2.619935    0.456884   -0.289624
     14          1           0       -2.712378   -0.597142    0.546601
 ---------------------------------------------------------------------

 SCF Done:  E(RB2PLYPD3) =  -157.953867280     A.U. after   11 cycles
 E2(B2PLYPD3) =    -0.2480091900D+00 E(B2PLYPD3) =    -0.15820187647008D+03

 The electronic state is 1-A.
 Alpha  occ. eigenvalues --  -10.61684 -10.60996 -10.58424 -10.58118  -0.91303
 Alpha  occ. eigenvalues --   -0.84362  -0.77220  -0.67646  -0.55329  -0.50312
 Alpha  occ. eigenvalues --   -0.49080  -0.48948  -0.43158  -0.40697  -0.39234
 Alpha  occ. eigenvalues --   -0.37094  -0.35467
 Alpha virt. eigenvalues --    0.05873   0.06702   0.08473   0.09027   0.10604
 Alpha virt. eigenvalues --    0.11974   0.13012   0.13890   0.15192   0.15553
 Alpha virt. eigenvalues --    0.16669   0.17028   0.19461   0.19648   0.20881

 Mulliken charges:
               1
     1  C   -0.155463
     2  C   -0.069720
     3  H    0.036535
     4  H    0.010396
     5  H    0.076144
     6  C   -0.115246
     7  H    0.025227
     8  H    0.051884
     9  C   -0.172035
    10  H    0.116692
    11  H    0.055829
    12  H    0.056901
    13  H    0.071987
    14  H    0.010869
 Sum of Mulliken charges =   0.00000

 Dipole moment (field-independent basis, Debye):
    X=             -0.2816    Y=              0.1876    Z=             -0.6177  Tot=              0.7043
 Quadrupole moment (field-independent basis, Debye-Ang):
   XX=            -27.8439   YY=            -29.2810   ZZ=            -28.0911
   XY=             -0.2123   XZ=             -0.4549   YZ=              0.5584

 Normal termination of Gaussian 09 at Wed Aug 26 18:40:48 2020.
