 Gaussian 09, Revision D.01,
 Gaussian 09:  ES64L-G09RevD.01 24-Apr-2013

 --------------------
 #p B2PLYPD3/Def2QZVP
 --------------------

 ----------
 butane_opt
 ----------
 Symbolic Z-matrix:
 Charge =  0 Multiplicity = 1

                         Standard orientation:
 ---------------------------------------------------------------------
 Center     Atomic      Atomic             Coordinates (Angstroms)
 Number     Number       Type             X           Y           Z
 ---------------------------------------------------------------------
      1          6           0       -1.932018   -0.019026    0.078862
      2          6           0       -0.528381    0.363576   -0.148340
      3          1           0       -2.770233    0.919027   -0.258932
      4          1           0       -1.909037   -1.098470    1.346733
      5          1           0       -1.806367   -0.520723   -0.462889
      6          6           0        0.504919   -0.515207   -0.060412
      7          1           0       -0.490136    1.114431    0.760195
      8          1           0       -0.502102    1.103803   -1.140226
      9          6           0        1.931415    0.133933    0.065629
     10          1           0        0.608583   -1.195444   -0.990326
     11          1           0        0.069740   -1.111304    0.891495
     12          1           0        1.663064    0.311691   -0.610352
     13          1           0        2.643027   -0.625963   -0.437729
     14          1           0        2.637855    1.323297    1.287593
 ---------------------------------------------------------------------

 SCF Done:  E(RB2PLYPD3) =  -157.428195821     A.U. after   13 cycles
 E2(B2PLYPD3) =    -0.2637760501D+00 E(B2PLYPD3) =    -0.15769197187062D+03

 The electronic state is 1-A.
 Alpha  occ. eigenvalues --  -10.64185 -10.62979 -10.62773 -10.62694  -0.98661
 Alpha  occ. eigenvalues --   -0.91048  -0.77427  -0.64811  -0.55389  -0.51858
 Alpha  occ. eigenvalues --   -0.49320  -0.44842  -0.42919  -0.37930  -0.35947
 Alpha  occ. eigenvalues --   -0.35590  -0.32819
 Alpha virt. eigenvalues --   -0.01641   0.01530   0.05358   0.06269   0.09275
 Alpha virt. eigenvalues --    0.10028   0.10621   0.12106   0.13253   0.14738
 Alpha virt. eigenvalues --    0.15582   0.16284   0.17668   0.18334   0.20245

 Mulliken charges:
               1
     1  C   -0.524728
     2  C   -0.008711
     3  H    0.084482
     4  H   -0.016736
     5  H    0.420798
     6  C   -0.046898
     7  H    0.042293
     8  H    0.006361
     9  C   -0.546796
    10  H    0.032128
    11  H    0.036486
    12  H    0.418392
    13  H    0.054221
    14  H    0.048710
 Sum of Mulliken charges =   0.00000

 Dipole moment (field-independent basis, Debye):
    X=             -0.1386    Y=              0.1506    Z=             -1.2494  Tot=              1.2660
 Quadrupole moment (field-independent basis, Debye-Ang):
   XX=            -32.0149   YY=            -30.0553   ZZ=            -29.1428
   XY=             -1.4739   XZ=              0.6346   YZ=              1.0350

 Normal termination of Gaussian 09 at Wed Aug 26 16:27:09 2020.
