 Gaussian 09, Revision D.01,
 Gaussian 09:  ES64L-G09RevD.01 24-Apr-2013

 --------------------
 #p B2PLYPD3/Def2QZVP
 --------------------

 ----------
 butane_opt
 ----------
 Symbolic Z-matrix:
 Charge =  0 Multiplicity = 1

                         Standard orientation:
 ---------------------------------------------------------------------
 Center     Atomic      Atomic             Coordinates (Angstroms)
 Number     Number       Type             X           Y           Z
 ---------------------------------------------------------------------
      1          6           0       -2.003391   -0.157489    0.054822
      2          6           0       -0.487699    0.666523   -0.037739
      3          1           0       -2.541132    0.350006    0.326899
      4          1           0       -2.225153   -1.443854    1.078405
      5          1           0       -2.486925   -0.278604   -0.582816
      6          6           0        0.620516   -0.467076   -0.359839
      7          1           0       -0.341913    1.124035    1.058065
      8          1           0       -0.442410    1.321371   -0.750153
      9          6           0        1.912774    0.031778    0.183413
     10          1           0        0.280470   -0.877466   -1.391092
     11          1           0        0.443583   -0.940742    0.192688
     12          1           0        2.433199    1.053136   -0.603027
     13          1           0        2.902255   -1.036783    0.475278
     14          1           0        1.724831    0.286489    1.151811
 ---------------------------------------------------------------------

 SCF Done:  E(RB2PLYPD3) =  -157.530664712     A.U. after   12 cycles
 E2(B2PLYPD3) =    -0.2534840602D+00 E(B2PLYPD3) =    -0.15778414877169D+03

 The electronic state is 1-A.
 Alpha  occ. eigenvalues --  -10.65943 -10.63690 -10.59510 -10.58616  -0.93715
 Alpha  occ. eigenvalues --   -0.89049  -0.76029  -0.70101  -0.55857  -0.50249
 Alpha  occ. eigenvalues --   -0.47914  -0.46733  -0.43801  -0.40783  -0.38512
 Alpha  occ. eigenvalues --   -0.36330  -0.33891
 Alpha virt. eigenvalues --    0.02730   0.04059   0.07556   0.07850   0.09021
 Alpha virt. eigenvalues --    0.10353   0.11226   0.13449   0.13731   0.15041
 Alpha virt. eigenvalues --    0.15628   0.16727   0.18511   0.18883   0.20613

 Mulliken charges:
               1
     1  C   -0.437304
     2  C   -0.050339
     3  H    0.228712
     4  H   -0.014269
     5  H    0.151271
     6  C   -0.474325
     7  H    0.033409
     8  H    0.084726
     9  C   -0.161016
    10  H    0.066907
    11  H    0.445447
    12  H    0.029444
    13  H   -0.000223
    14  H    0.097561
 Sum of Mulliken charges =   0.00000

 Dipole moment (field-independent basis, Debye):
    X=             -0.8575    Y=              0.7743    Z=             -0.2216  Tot=              1.1764
 Quadrupole moment (field-independent basis, Debye-Ang):
   XX=            -31.3177   YY=            -29.6397   ZZ=            -28.1858
   XY=             -0.8695   XZ=              1.5668   YZ=             -0.4857

 Normal termination of Gaussian 09 at Wed Aug 26 11:09:07 2020.
