 Gaussian 09, Revision D.01,
 Gaussian 09:  ES64L-G09RevD.01 24-Apr-2013

 --------------------
 #p B2PLYPD3/Def2QZVP
 --------------------

 ----------
 butane_opt
 ----------
 Symbolic Z-matrix:
 Charge =  0 Multiplicity = 1

                         Standard orientation:
 ---------------------------------------------------------------------
 Center     Atomic      Atomic             Coordinates (Angstroms)
 Number     Number       Type             X           Y           Z
 ---------------------------------------------------------------------
      1          6           0       -1.914089   -0.079092    0.110914
      2          6           0       -0.639502    0.408449   -0.103145
      3          1           0       -2.850015    0.651590   -0.321724
      4          1           0       -1.953080   -0.709110    1.046751
      5          1           0       -1.892007   -0.405741   -0.545788
      6          6           0        0.534805   -0.553429   -0.027490
      7          1           0       -0.697892    1.139489    0.689409
      8          1           0       -0.648093    1.040579   -1.248542
      9          6           0        2.067639    0.137967   -0.021301
     10          1           0        0.269776   -1.191160   -0.801735
     11          1           0        0.419100   -1.343786    1.077049
     12          1           0        2.061569    0.272916   -0.562541
     13          1           0        2.717304   -0.462473   -0.367227
     14          1           0        2.280216    1.524321    1.280480
 ---------------------------------------------------------------------

 SCF Done:  E(RB2PLYPD3) =  -156.996919467     A.U. after   13 cycles
 E2(B2PLYPD3) =    -0.2582823603D+00 E(B2PLYPD3) =    -0.15725520182698D+03

 The electronic state is 1-A.
 Alpha  occ. eigenvalues --  -10.65133 -10.63517 -10.61778 -10.57049  -0.97159
 Alpha  occ. eigenvalues --   -0.94689  -0.78871  -0.66600  -0.56336  -0.50437
 Alpha  occ. eigenvalues --   -0.49613  -0.47340  -0.43249  -0.39577  -0.35822
 Alpha  occ. eigenvalues --   -0.35607  -0.34058
 Alpha virt. eigenvalues --   -0.02481   0.05190   0.06283   0.06785   0.09705
 Alpha virt. eigenvalues --    0.10053   0.11930   0.12712   0.14201   0.15535
 Alpha virt. eigenvalues --    0.15677   0.16822   0.18432   0.18666   0.20582

 Mulliken charges:
               1
     1  C   -0.575334
     2  C    0.006313
     3  H    0.049248
     4  H    0.081814
     5  H    0.411496
     6  C   -0.052778
     7  H    0.042297
     8  H   -0.012725
     9  C   -0.803450
    10  H    0.069514
    11  H   -0.002986
    12  H    0.702977
    13  H    0.045100
    14  H    0.038513
 Sum of Mulliken charges =   0.00000

 Dipole moment (field-independent basis, Debye):
    X=             -0.0233    Y=             -0.3731    Z=             -0.9200  Tot=              0.9931
 Quadrupole moment (field-independent basis, Debye-Ang):
   XX=            -29.9739   YY=            -29.9319   ZZ=            -27.6233
   XY=             -0.3088   XZ=             -1.2225   YZ=              0.9052

 Normal termination of Gaussian 09 at Wed Aug 26 13:21:42 2020.
