 Gaussian 09, Revision D.01,
 Gaussian 09:  ES64L-G09RevD.01 24-Apr-2013

 --------------------
 #p B2PLYPD3/Def2QZVP
 --------------------

 ----------
 butane_opt
 ----------
 Symbolic Z-matrix:
 Charge =  0 Multiplicity = 1

                         Standard orientation:
 ---------------------------------------------------------------------
 Center     Atomic      Atomic             Coordinates (Angstroms)
 Number     Number       Type             X           Y           Z
 ---------------------------------------------------------------------
      1          6           0       -1.989175   -0.084037   -0.114071
      2          6           0       -0.614126    0.410913    0.225133
      3          1           0       -2.709334    0.703939   -0.205634
      4          1           0       -2.209322   -0.682482    0.656223
      5          1           0       -2.043883   -0.572294   -1.145443
      6          6           0        0.511909   -0.575862   -0.026402
      7          1           0       -0.725596    1.338129    1.372627
      8          1           0       -0.416979    1.178695   -0.669701
      9          6           0        2.046904    0.201505   -0.053752
     10          1           0        0.323181   -1.032465   -0.771578
     11          1           0        0.610510   -1.466182    0.818976
     12          1           0        2.537222    1.183361   -1.074798
     13          1           0        2.913296   -0.593506    0.320213
     14          1           0        1.987832    0.227687    0.513675
 ---------------------------------------------------------------------

 SCF Done:  E(RB2PLYPD3) =  -157.312426951     A.U. after   12 cycles
 E2(B2PLYPD3) =    -0.2549232970D+00 E(B2PLYPD3) =    -0.15756735024824D+03

 The electronic state is 1-A.
 Alpha  occ. eigenvalues --  -10.65292 -10.63093 -10.62587 -10.59721  -0.93031
 Alpha  occ. eigenvalues --   -0.87822  -0.78139  -0.65521  -0.53566  -0.49236
 Alpha  occ. eigenvalues --   -0.48394  -0.47255  -0.43911  -0.38975  -0.38153
 Alpha  occ. eigenvalues --   -0.36280  -0.34319
 Alpha virt. eigenvalues --    0.04387   0.04936   0.06401   0.06739   0.09746
 Alpha virt. eigenvalues --    0.10099   0.12135   0.12264   0.14554   0.15336
 Alpha virt. eigenvalues --    0.15538   0.16030   0.18535   0.19163   0.20239

 Mulliken charges:
               1
     1  C   -0.122200
     2  C   -0.071644
     3  H    0.051041
     4  H    0.070051
     5  H    0.032217
     6  C   -0.075980
     7  H    0.003886
     8  H    0.025615
     9  C   -0.936604
    10  H    0.130463
    11  H   -0.003309
    12  H    0.087596
    13  H    0.047907
    14  H    0.760960
 Sum of Mulliken charges =   0.00000

 Dipole moment (field-independent basis, Debye):
    X=             -0.4215    Y=             -0.1312    Z=             -0.2448  Tot=              0.5048
 Quadrupole moment (field-independent basis, Debye-Ang):
   XX=            -29.4609   YY=            -29.4318   ZZ=            -28.2976
   XY=              0.1841   XZ=              0.5253   YZ=             -1.0579

 Normal termination of Gaussian 09 at Wed Aug 26 13:56:19 2020.
