 Gaussian 09, Revision D.01,
 Gaussian 09:  ES64L-G09RevD.01 24-Apr-2013

 --------------------
 #p B2PLYPD3/Def2QZVP
 --------------------

 ----------
 butane_opt
 ----------
 Symbolic Z-matrix:
 Charge =  0 Multiplicity = 1

                         Standard orientation:
 ---------------------------------------------------------------------
 Center     Atomic      Atomic             Coordinates (Angstroms)
 Number     Number       Type             X           Y           Z
 ---------------------------------------------------------------------
      1          6           0        2.044161   -0.167662    0.024613
      2          6           0        0.583244    0.593150   -0.095669
      3          1           0        2.820194    0.832005    0.092617
      4          1           0        2.144510   -0.863465   -0.842266
      5          1           0        2.097670   -0.825333    1.007145
      6          6           0       -0.636828   -0.496413    0.129720
      7          1           0        0.290824    1.192867   -1.110727
      8          1           0        0.617089    1.151900    0.686344
      9          6           0       -1.966063    0.101730   -0.011059
     10          1           0       -0.623570   -1.165052    0.947997
     11          1           0       -0.283523   -1.271598   -0.856143
     12          1           0       -2.615569    1.169391    1.009759
     13          1           0       -2.774479   -0.729558   -0.522048
     14          1           0       -1.820234    0.324010   -0.698310
 ---------------------------------------------------------------------

 SCF Done:  E(RB2PLYPD3) =  -157.746436620     A.U. after   11 cycles
 E2(B2PLYPD3) =    -0.2547637858D+00 E(B2PLYPD3) =    -0.15800120040531D+03

 The electronic state is 1-A.
 Alpha  occ. eigenvalues --  -10.64409 -10.63236 -10.62599 -10.61630  -0.92677
 Alpha  occ. eigenvalues --   -0.83885  -0.71994  -0.67435  -0.53735  -0.47579
 Alpha  occ. eigenvalues --   -0.47082  -0.45195  -0.41760  -0.40668  -0.39387
 Alpha  occ. eigenvalues --   -0.36879  -0.33268
 Alpha virt. eigenvalues --    0.02685   0.04783   0.06544   0.07896   0.10034
 Alpha virt. eigenvalues --    0.10400   0.11906   0.12434   0.13994   0.14915
 Alpha virt. eigenvalues --    0.15571   0.15658   0.17865   0.19509   0.19947

 Mulliken charges:
               1
     1  C   -0.178539
     2  C   -0.080880
     3  H    0.049236
     4  H    0.060209
     5  H    0.059546
     6  C   -0.026268
     7  H    0.039187
     8  H    0.079334
     9  C   -0.569812
    10  H    0.055999
    11  H   -0.007452
    12  H    0.038206
    13  H    0.041953
    14  H    0.439280
 Sum of Mulliken charges =   0.00000

 Dipole moment (field-independent basis, Debye):
    X=              0.3393    Y=              0.0728    Z=             -0.1738  Tot=              0.3881
 Quadrupole moment (field-independent basis, Debye-Ang):
   XX=            -32.1511   YY=            -29.2572   ZZ=            -28.4799
   XY=             -0.1151   XZ=              0.8186   YZ=              0.3391

 Normal termination of Gaussian 09 at Wed Aug 26 09:40:38 2020.
