 Gaussian 09, Revision D.01,
 Gaussian 09:  ES64L-G09RevD.01 24-Apr-2013

 --------------------
 #p B2PLYPD3/Def2QZVP
 --------------------

 ----------
 butane_opt
 ----------
 Symbolic Z-matrix:
 Charge =  0 Multiplicity = 1

                         Standard orientation:
 ---------------------------------------------------------------------
 Center     Atomic      Atomic             Coordinates (Angstroms)
 Number     Number       Type             X           Y           Z
 ---------------------------------------------------------------------
      1          6           0       -2.029365   -0.111053   -0.126256
      2          6           0       -0.511306    0.598377    0.146659
      3          1           0       -2.740506    0.619401   -0.099050
      4          1           0       -2.465371   -0.837488    0.812699
      5          1           0       -1.854544   -0.840797   -1.119879
      6          6           0        0.646560   -0.565016    0.165293
      7          1           0       -0.593216    0.995890    0.791130
      8          1           0       -0.330401    1.473700   -0.790794
      9          6           0        1.929424    0.099215   -0.113356
     10          1           0        0.440696   -1.055147   -0.604149
     11          1           0        0.530738   -1.371089    1.093186
     12          1           0        1.788500    0.313200   -0.772791
     13          1           0        2.586400   -0.497778   -0.653228
     14          1           0        2.425822    1.070969    0.908836
 ---------------------------------------------------------------------

 SCF Done:  E(RB2PLYPD3) =  -157.585346265     A.U. after   11 cycles
 E2(B2PLYPD3) =    -0.2512527539D+00 E(B2PLYPD3) =    -0.15783659901922D+03

 The electronic state is 1-A.
 Alpha  occ. eigenvalues --  -10.63420 -10.61316 -10.60928 -10.58862  -0.94893
 Alpha  occ. eigenvalues --   -0.85587  -0.74616  -0.71503  -0.53728  -0.50896
 Alpha  occ. eigenvalues --   -0.48165  -0.45678  -0.42525  -0.39423  -0.38205
 Alpha  occ. eigenvalues --   -0.37636  -0.35599
 Alpha virt. eigenvalues --    0.04765   0.05798   0.07242   0.07866   0.10259
 Alpha virt. eigenvalues --    0.10955   0.12117   0.12887   0.14136   0.14885
 Alpha virt. eigenvalues --    0.16623   0.17043   0.18524   0.18924   0.20672

 Mulliken charges:
               1
     1  C   -0.171470
     2  C   -0.325561
     3  H    0.076668
     4  H    0.023388
     5  H    0.042221
     6  C   -0.047041
     7  H    0.302211
     8  H    0.013601
     9  C   -0.603518
    10  H    0.098124
    11  H    0.030160
    12  H    0.473761
    13  H    0.045406
    14  H    0.042049
 Sum of Mulliken charges =   0.00000

 Dipole moment (field-independent basis, Debye):
    X=             -0.0922    Y=              0.0764    Z=             -0.4200  Tot=              0.4368
 Quadrupole moment (field-independent basis, Debye-Ang):
   XX=            -30.6735   YY=            -28.8911   ZZ=            -27.8236
   XY=             -0.7665   XZ=             -1.8805   YZ=              0.9819

 Normal termination of Gaussian 09 at Wed Aug 26 11:32:59 2020.
