 Gaussian 09, Revision D.01,
 Gaussian 09:  ES64L-G09RevD.01 24-Apr-2013

 --------------------
 #p B2PLYPD3/Def2QZVP
 --------------------

 ----------
 butane_opt
 ----------
 Symbolic Z-matrix:
 Charge =  0 Multiplicity = 1

                         Standard orientation:
 ---------------------------------------------------------------------
 Center     Atomic      Atomic             Coordinates (Angstroms)
 Number     Number       Type             X           Y           Z
 ---------------------------------------------------------------------
      1          6           0       -1.948022    0.139377    0.113878
      2          6           0       -0.554737   -0.622205   -0.013975
      3          1           0       -2.694835   -0.584210   -0.652362
      4          1           0       -1.832043    0.428481   -0.592261
      5          1           0       -2.355193    1.338741    1.226498
      6          6           0        0.566936    0.453250   -0.250863
      7          1           0       -0.307140   -1.217615   -0.848449
      8          1           0       -0.218169   -1.085858    0.809234
      9          6           0        1.870641   -0.079058    0.113110
     10          1           0        0.379916    1.315767    0.632877
     11          1           0        0.653903    1.050223   -1.067146
     12          1           0        1.972173   -0.881696    1.374754
     13          1           0        2.780895    0.818070   -0.135614
     14          1           0        2.011588   -0.530086   -0.520436
 ---------------------------------------------------------------------

 SCF Done:  E(RB2PLYPD3) =  -157.594658319     A.U. after   11 cycles
 E2(B2PLYPD3) =    -0.2576741696D+00 E(B2PLYPD3) =    -0.15785233248906D+03

 The electronic state is 1-A.
 Alpha  occ. eigenvalues --  -10.63353 -10.61812 -10.61366 -10.61134  -0.94149
 Alpha  occ. eigenvalues --   -0.87529  -0.75914  -0.68676  -0.54968  -0.49196
 Alpha  occ. eigenvalues --   -0.47692  -0.45385  -0.40746  -0.39385  -0.38818
 Alpha  occ. eigenvalues --   -0.35964  -0.33920
 Alpha virt. eigenvalues --   -0.00244   0.03931   0.06527   0.07364   0.09624
 Alpha virt. eigenvalues --    0.10402   0.11620   0.12091   0.13445   0.15407
 Alpha virt. eigenvalues --    0.15573   0.16664   0.18010   0.18458   0.19991

 Mulliken charges:
               1
     1  C   -0.543202
     2  C   -0.070571
     3  H    0.016820
     4  H    0.433303
     5  H    0.075277
     6  C   -0.014862
     7  H    0.049577
     8  H    0.073178
     9  C   -0.382602
    10  H   -0.007099
    11  H    0.045138
    12  H    0.024464
    13  H    0.027978
    14  H    0.272602
 Sum of Mulliken charges =   0.00000

 Dipole moment (field-independent basis, Debye):
    X=              0.2744    Y=              0.1474    Z=             -1.0744  Tot=              1.1187
 Quadrupole moment (field-independent basis, Debye-Ang):
   XX=            -33.0282   YY=            -29.2391   ZZ=            -27.7870
   XY=             -1.3139   XZ=             -0.4312   YZ=              0.5274

 Normal termination of Gaussian 09 at Wed Aug 26 10:25:49 2020.
