 Gaussian 09, Revision D.01,
 Gaussian 09:  ES64L-G09RevD.01 24-Apr-2013

 --------------------
 #p B2PLYPD3/Def2QZVP
 --------------------

 ----------
 butane_opt
 ----------
 Symbolic Z-matrix:
 Charge =  0 Multiplicity = 1

                         Standard orientation:
 ---------------------------------------------------------------------
 Center     Atomic      Atomic             Coordinates (Angstroms)
 Number     Number       Type             X           Y           Z
 ---------------------------------------------------------------------
      1          6           0       -1.978352    0.097830   -0.189658
      2          6           0       -0.628255   -0.488907    0.143721
      3          1           0       -2.687017   -0.605016   -0.161096
      4          1           0       -1.955139    0.664019   -0.926718
      5          1           0       -2.278743    0.874133    0.725096
      6          6           0        0.513500    0.526836    0.193948
      7          1           0       -0.514589   -0.987056   -0.561317
      8          1           0       -0.705702   -1.288465    1.052849
      9          6           0        2.032728   -0.141870   -0.164644
     10          1           0        0.685892    1.319848    1.115341
     11          1           0        0.272938    0.845748   -0.529909
     12          1           0        2.687392   -0.885067    0.910124
     13          1           0        2.885031    0.789659   -0.544171
     14          1           0        1.972212   -0.691141   -0.980398
 ---------------------------------------------------------------------

 SCF Done:  E(RB2PLYPD3) =  -157.844099910     A.U. after   11 cycles
 E2(B2PLYPD3) =    -0.2496257986D+00 E(B2PLYPD3) =    -0.15809372570865D+03

 The electronic state is 1-A.
 Alpha  occ. eigenvalues --  -10.65315 -10.60974 -10.59604 -10.58829  -0.93941
 Alpha  occ. eigenvalues --   -0.83294  -0.73967  -0.69922  -0.55384  -0.51712
 Alpha  occ. eigenvalues --   -0.49583  -0.46000  -0.41450  -0.40526  -0.38800
 Alpha  occ. eigenvalues --   -0.36896  -0.36417
 Alpha virt. eigenvalues --    0.04554   0.06055   0.08476   0.08897   0.09736
 Alpha virt. eigenvalues --    0.10907   0.12364   0.12625   0.13901   0.15405
 Alpha virt. eigenvalues --    0.15944   0.16357   0.19084   0.19437   0.21486

 Mulliken charges:
               1
     1  C   -0.151363
     2  C   -0.128889
     3  H    0.062392
     4  H    0.066389
     5  H    0.010356
     6  C   -0.282712
     7  H    0.140663
     8  H    0.012736
     9  C   -0.196390
    10  H    0.056349
    11  H    0.269097
    12  H    0.025712
    13  H    0.025449
    14  H    0.090213
 Sum of Mulliken charges =   0.00000

 Dipole moment (field-independent basis, Debye):
    X=             -0.5308    Y=             -0.0570    Z=             -0.8302  Tot=              0.9870
 Quadrupole moment (field-independent basis, Debye-Ang):
   XX=            -30.8401   YY=            -29.0568   ZZ=            -28.2579
   XY=              0.8085   XZ=              0.1791   YZ=              0.1717

 Normal termination of Gaussian 09 at Wed Aug 26 19:01:16 2020.
