 Gaussian 09, Revision D.01,
 Gaussian 09:  ES64L-G09RevD.01 24-Apr-2013

 --------------------
 #p B2PLYPD3/Def2QZVP
 --------------------

 ----------
 butane_opt
 ----------
 Symbolic Z-matrix:
 Charge =  0 Multiplicity = 1

                         Standard orientation:
 ---------------------------------------------------------------------
 Center     Atomic      Atomic             Coordinates (Angstroms)
 Number     Number       Type             X           Y           Z
 ---------------------------------------------------------------------
      1          6           0       -1.941039   -0.119112   -0.122483
      2          6           0       -0.465400    0.533920    0.014085
      3          1           0       -2.710129    0.611276   -0.038938
      4          1           0       -2.117577   -0.590229    0.817457
      5          1           0       -2.319736   -0.989167   -1.037217
      6          6           0        0.565055   -0.461856    0.266228
      7          1           0       -0.343945    1.506450    0.929989
      8          1           0       -0.543474    0.839610   -0.684984
      9          6           0        1.905193    0.025506   -0.147529
     10          1           0        0.484239   -0.859382   -0.362101
     11          1           0        0.449763   -1.269465    1.313813
     12          1           0        1.616789    0.590766   -1.005520
     13          1           0        2.704211   -0.641660   -0.780498
     14          1           0        2.397009    0.931058    0.786192
 ---------------------------------------------------------------------

 SCF Done:  E(RB2PLYPD3) =  -157.666964760     A.U. after   11 cycles
 E2(B2PLYPD3) =    -0.2525333077D+00 E(B2PLYPD3) =    -0.15791949806789D+03

 The electronic state is 1-A.
 Alpha  occ. eigenvalues --  -10.63973 -10.62067 -10.60584 -10.59137  -0.97085
 Alpha  occ. eigenvalues --   -0.84881  -0.73168  -0.70487  -0.57157  -0.50027
 Alpha  occ. eigenvalues --   -0.48547  -0.45176  -0.42042  -0.39857  -0.38322
 Alpha  occ. eigenvalues --   -0.37025  -0.35965
 Alpha virt. eigenvalues --    0.04651   0.05829   0.07380   0.08026   0.10189
 Alpha virt. eigenvalues --    0.11070   0.11934   0.13127   0.13766   0.14503
 Alpha virt. eigenvalues --    0.15642   0.17060   0.18404   0.19116   0.21003

 Mulliken charges:
               1
     1  C   -0.171737
     2  C   -0.369473
     3  H    0.053072
     4  H    0.049676
     5  H    0.032895
     6  C   -0.443725
     7  H    0.016330
     8  H    0.354801
     9  C   -0.153620
    10  H    0.474164
    11  H    0.037791
    12  H    0.053700
    13  H    0.051197
    14  H    0.014930
 Sum of Mulliken charges =   0.00000

 Dipole moment (field-independent basis, Debye):
    X=             -0.3540    Y=             -0.2042    Z=             -0.7364  Tot=              0.8422
 Quadrupole moment (field-independent basis, Debye-Ang):
   XX=            -30.5584   YY=            -29.7232   ZZ=            -28.1488
   XY=             -0.4972   XZ=             -1.0240   YZ=              0.4597

 Normal termination of Gaussian 09 at Wed Aug 26 15:33:55 2020.
