 Gaussian 09, Revision D.01,
 Gaussian 09:  ES64L-G09RevD.01 24-Apr-2013

 --------------------
 #p B2PLYPD3/Def2QZVP
 --------------------

 ----------
 butane_opt
 ----------
 Symbolic Z-matrix:
 Charge =  0 Multiplicity = 1

                         Standard orientation:
 ---------------------------------------------------------------------
 Center     Atomic      Atomic             Coordinates (Angstroms)
 Number     Number       Type             X           Y           Z
 ---------------------------------------------------------------------
      1          6           0       -1.925552   -0.036675    0.149523
      2          6           0       -0.648618    0.498221   -0.202461
      3          1           0       -2.712804    0.751477   -0.204762
      4          1           0       -2.136960   -1.262971    1.471971
      5          1           0       -2.113733   -0.290582   -0.438430
      6          6           0        0.511716   -0.594833   -0.099982
      7          1           0       -0.361920    1.192994    0.512439
      8          1           0       -0.640656    1.040585   -1.089424
      9          6           0        2.085565    0.100114    0.090719
     10          1           0        0.594069   -1.304499   -0.962037
     11          1           0        0.178474   -1.036306    0.568780
     12          1           0        1.832139    0.125145   -0.407406
     13          1           0        2.569993   -0.424659   -0.393949
     14          1           0        2.652736    1.407857    1.316023
 ---------------------------------------------------------------------

 SCF Done:  E(RB2PLYPD3) =  -156.699721270     A.U. after   13 cycles
 E2(B2PLYPD3) =    -0.2618134918D+00 E(B2PLYPD3) =    -0.15696153476185D+03

 The electronic state is 1-A.
 Alpha  occ. eigenvalues --  -10.61924 -10.61763 -10.60861 -10.60546  -0.99608
 Alpha  occ. eigenvalues --   -0.95332  -0.81907  -0.71768  -0.55570  -0.50865
 Alpha  occ. eigenvalues --   -0.48635  -0.47849  -0.42627  -0.39115  -0.37373
 Alpha  occ. eigenvalues --   -0.36104  -0.32751
 Alpha virt. eigenvalues --   -0.02238  -0.00899   0.05646   0.07039   0.08889
 Alpha virt. eigenvalues --    0.10362   0.11787   0.12838   0.14020   0.15866
 Alpha virt. eigenvalues --    0.16064   0.16976   0.17720   0.18784   0.20083

 Mulliken charges:
               1
     1  C   -0.681460
     2  C    0.018388
     3  H    0.050871
     4  H    0.025146
     5  H    0.524914
     6  C   -0.137761
     7  H    0.052571
     8  H    0.024147
     9  C   -0.947382
    10  H    0.016018
    11  H    0.151392
    12  H    0.786629
    13  H    0.053920
    14  H    0.062608
 Sum of Mulliken charges =   0.00000

 Dipole moment (field-independent basis, Debye):
    X=             -0.6250    Y=              0.1107    Z=             -1.3738  Tot=              1.5133
 Quadrupole moment (field-independent basis, Debye-Ang):
   XX=            -31.2617   YY=            -28.4089   ZZ=            -27.6146
   XY=              0.3072   XZ=              0.8105   YZ=              0.7435

 Normal termination of Gaussian 09 at Wed Aug 26 10:23:56 2020.
