 Gaussian 09, Revision D.01,
 Gaussian 09:  ES64L-G09RevD.01 24-Apr-2013

 --------------------
 #p B2PLYPD3/Def2QZVP
 --------------------

 ----------
 butane_opt
 ----------
 Symbolic Z-matrix:
 Charge =  0 Multiplicity = 1

                         Standard orientation:
 ---------------------------------------------------------------------
 Center     Atomic      Atomic             Coordinates (Angstroms)
 Number     Number       Type             X           Y           Z
 ---------------------------------------------------------------------
      1          6           0        1.907924    0.058607   -0.101029
      2          6           0        0.626305   -0.458214    0.247474
      3          1           0        2.682530   -0.758378   -0.711203
      4          1           0        2.493452    0.911519    0.768624
      5          1           0        1.423231    0.348395   -0.855363
      6          6           0       -0.501626    0.626345    0.011556
      7          1           0        0.430221   -1.129276    1.230978
      8          1           0        0.577799   -1.311247   -0.649683
      9          6           0       -2.038953   -0.128741   -0.011365
     10          1           0       -0.282141    1.185687   -0.930367
     11          1           0       -0.166375    1.279941    0.612287
     12          1           0       -2.386157   -1.058548   -0.904103
     13          1           0       -2.613367    0.461167   -0.090463
     14          1           0       -2.121092   -0.517250    0.649473
 ---------------------------------------------------------------------

 SCF Done:  E(RB2PLYPD3) =  -157.721842725     A.U. after   11 cycles
 E2(B2PLYPD3) =    -0.2520816973D+00 E(B2PLYPD3) =    -0.15797392442249D+03

 The electronic state is 1-A.
 Alpha  occ. eigenvalues --  -10.63432 -10.61996 -10.61468 -10.57885  -0.94039
 Alpha  occ. eigenvalues --   -0.87222  -0.77095  -0.64787  -0.55986  -0.53362
 Alpha  occ. eigenvalues --   -0.48938  -0.45751  -0.43733  -0.41275  -0.38665
 Alpha  occ. eigenvalues --   -0.36166  -0.33716
 Alpha virt. eigenvalues --    0.04964   0.05616   0.07587   0.07940   0.10024
 Alpha virt. eigenvalues --    0.11333   0.12656   0.13888   0.14439   0.15518
 Alpha virt. eigenvalues --    0.15957   0.16905   0.17875   0.19391   0.20822

 Mulliken charges:
               1
     1  C   -0.214946
     2  C   -0.036958
     3  H    0.036989
     4  H    0.029915
     5  H    0.125007
     6  C   -0.092079
     7  H    0.017316
     8  H    0.023875
     9  C   -0.452946
    10  H    0.019718
    11  H    0.080415
    12  H    0.023710
    13  H    0.167095
    14  H    0.272889
 Sum of Mulliken charges =   0.00000

 Dipole moment (field-independent basis, Debye):
    X=             -0.6253    Y=              0.2434    Z=              0.0400  Tot=              0.6722
 Quadrupole moment (field-independent basis, Debye-Ang):
   XX=            -29.6488   YY=            -28.9902   ZZ=            -28.6551
   XY=             -0.0373   XZ=             -0.5721   YZ=              0.5858

 Normal termination of Gaussian 09 at Wed Aug 26 23:28:23 2020.
