 Gaussian 09, Revision D.01,
 Gaussian 09:  ES64L-G09RevD.01 24-Apr-2013

 --------------------
 #p B2PLYPD3/Def2QZVP
 --------------------

 ----------
 butane_opt
 ----------
 Symbolic Z-matrix:
 Charge =  0 Multiplicity = 1

                         Standard orientation:
 ---------------------------------------------------------------------
 Center     Atomic      Atomic             Coordinates (Angstroms)
 Number     Number       Type             X           Y           Z
 ---------------------------------------------------------------------
      1          6           0        1.913903    0.104452   -0.061144
      2          6           0        0.625842   -0.471894    0.147572
      3          1           0        2.950617   -0.921822   -0.279507
      4          1           0        2.101539    0.339802    0.596894
      5          1           0        1.850894    0.909549   -1.121756
      6          6           0       -0.540152    0.654715    0.153185
      7          1           0        0.707465   -1.061657    0.997983
      8          1           0        0.348215   -1.375277   -0.838129
      9          6           0       -1.993838   -0.140349   -0.124937
     10          1           0       -0.280731    1.036162   -0.520786
     11          1           0       -0.442448    1.652047    1.088244
     12          1           0       -1.870420   -0.574904   -0.898523
     13          1           0       -2.609993    0.245628   -0.896138
     14          1           0       -2.789669   -1.131077    1.183658
 ---------------------------------------------------------------------

 SCF Done:  E(RB2PLYPD3) =  -157.482092208     A.U. after   12 cycles
 E2(B2PLYPD3) =    -0.2584287293D+00 E(B2PLYPD3) =    -0.15774052093716D+03

 The electronic state is 1-A.
 Alpha  occ. eigenvalues --  -10.64377 -10.63990 -10.63300 -10.62123  -0.94320
 Alpha  occ. eigenvalues --   -0.87776  -0.79114  -0.68964  -0.56026  -0.49532
 Alpha  occ. eigenvalues --   -0.46677  -0.45989  -0.41519  -0.38473  -0.36847
 Alpha  occ. eigenvalues --   -0.35654  -0.34455
 Alpha virt. eigenvalues --   -0.00685   0.03557   0.05852   0.07077   0.08786
 Alpha virt. eigenvalues --    0.09671   0.11064   0.12392   0.14160   0.14836
 Alpha virt. eigenvalues --    0.15993   0.16776   0.17821   0.17896   0.19266

 Mulliken charges:
               1
     1  C   -0.513120
     2  C    0.030679
     3  H    0.010574
     4  H    0.385273
     5  H    0.045865
     6  C   -0.309655
     7  H    0.053203
     8  H   -0.004752
     9  C   -0.277158
    10  H    0.284046
    11  H    0.027028
    12  H    0.181862
    13  H    0.063824
    14  H    0.022333
 Sum of Mulliken charges =   0.00000

 Dipole moment (field-independent basis, Debye):
    X=              0.1877    Y=              0.2701    Z=             -0.5654  Tot=              0.6541
 Quadrupole moment (field-independent basis, Debye-Ang):
   XX=            -32.9071   YY=            -30.1889   ZZ=            -27.6812
   XY=              0.7041   XZ=              2.9250   YZ=             -0.6252

 Normal termination of Gaussian 09 at Wed Aug 26 23:38:51 2020.
