 Gaussian 09, Revision D.01,
 Gaussian 09:  ES64L-G09RevD.01 24-Apr-2013

 --------------------
 #p B2PLYPD3/Def2QZVP
 --------------------

 ----------
 butane_opt
 ----------
 Symbolic Z-matrix:
 Charge =  0 Multiplicity = 1

                         Standard orientation:
 ---------------------------------------------------------------------
 Center     Atomic      Atomic             Coordinates (Angstroms)
 Number     Number       Type             X           Y           Z
 ---------------------------------------------------------------------
      1          6           0        1.951916   -0.139981    0.084661
      2          6           0        0.547717    0.572596   -0.112625
      3          1           0        2.643758    0.497753   -0.080753
      4          1           0        2.104574   -0.616210   -0.704412
      5          1           0        2.078448   -1.027657    1.126986
      6          6           0       -0.587750   -0.484611   -0.037388
      7          1           0        0.445342    1.292816   -1.128751
      8          1           0        0.352309    1.216365    0.687058
      9          6           0       -1.903477    0.065708    0.091622
     10          1           0       -0.411997   -1.069517    0.793138
     11          1           0       -0.476400   -1.099572   -0.908139
     12          1           0       -2.291501    1.095565    1.231371
     13          1           0       -2.788391   -0.760929   -0.572648
     14          1           0       -1.706580    0.389116   -0.601464
 ---------------------------------------------------------------------

 SCF Done:  E(RB2PLYPD3) =  -157.760064029     A.U. after   11 cycles
 E2(B2PLYPD3) =    -0.2532928063D+00 E(B2PLYPD3) =    -0.15801335683532D+03

 The electronic state is 1-A.
 Alpha  occ. eigenvalues --  -10.62629 -10.61999 -10.60088 -10.60007  -0.95372
 Alpha  occ. eigenvalues --   -0.86421  -0.74839  -0.67414  -0.54922  -0.49422
 Alpha  occ. eigenvalues --   -0.47662  -0.46261  -0.41778  -0.40007  -0.39304
 Alpha  occ. eigenvalues --   -0.37001  -0.34815
 Alpha virt. eigenvalues --    0.02617   0.05476   0.06300   0.07465   0.10134
 Alpha virt. eigenvalues --    0.10848   0.12118   0.12862   0.13838   0.15354
 Alpha virt. eigenvalues --    0.15544   0.16495   0.18464   0.19303   0.20587

 Mulliken charges:
               1
     1  C   -0.167632
     2  C   -0.051639
     3  H    0.056441
     4  H    0.061916
     5  H    0.037893
     6  C   -0.017001
     7  H    0.002994
     8  H    0.053834
     9  C   -0.469208
    10  H    0.038469
    11  H    0.041593
    12  H    0.041943
    13  H    0.022764
    14  H    0.347634
 Sum of Mulliken charges =   0.00000

 Dipole moment (field-independent basis, Debye):
    X=              0.7320    Y=              0.0699    Z=             -0.6323  Tot=              0.9698
 Quadrupole moment (field-independent basis, Debye-Ang):
   XX=            -31.6438   YY=            -29.2232   ZZ=            -28.0068
   XY=             -0.2176   XZ=             -0.1397   YZ=              0.6022

 Normal termination of Gaussian 09 at Wed Aug 26 16:27:27 2020.
