 Gaussian 09, Revision D.01,
 Gaussian 09:  ES64L-G09RevD.01 24-Apr-2013

 --------------------
 #p B2PLYPD3/Def2QZVP
 --------------------

 ----------
 butane_opt
 ----------
 Symbolic Z-matrix:
 Charge =  0 Multiplicity = 1

                         Standard orientation:
 ---------------------------------------------------------------------
 Center     Atomic      Atomic             Coordinates (Angstroms)
 Number     Number       Type             X           Y           Z
 ---------------------------------------------------------------------
      1          6           0       -2.049544   -0.195305    0.152956
      2          6           0       -0.437732    0.653728   -0.173016
      3          1           0       -2.660795    0.470113    0.319469
      4          1           0       -1.876025   -1.052878    1.011039
      5          1           0       -2.477257   -0.609706   -0.791088
      6          6           0        0.622962   -0.464198   -0.326901
      7          1           0       -0.263508    1.265803    0.943053
      8          1           0       -0.374324    1.330739   -0.924717
      9          6           0        1.870528    0.015582    0.216704
     10          1           0        0.720316   -0.957019   -1.190174
     11          1           0        0.181706   -0.905881    0.476660
     12          1           0        2.238453    0.801995   -0.635997
     13          1           0        2.718738   -0.792300    0.351142
     14          1           0        1.755416    0.390297    1.222154
 ---------------------------------------------------------------------

 SCF Done:  E(RB2PLYPD3) =  -157.977726178     A.U. after   11 cycles
 E2(B2PLYPD3) =    -0.2508545886D+00 E(B2PLYPD3) =    -0.15822858076643D+03

 The electronic state is 1-A.
 Alpha  occ. eigenvalues --  -10.63771 -10.61527 -10.61019 -10.57996  -0.91932
 Alpha  occ. eigenvalues --   -0.80999  -0.73561  -0.66698  -0.57572  -0.48793
 Alpha  occ. eigenvalues --   -0.47644  -0.46040  -0.43176  -0.42070  -0.40262
 Alpha  occ. eigenvalues --   -0.34642  -0.33826
 Alpha virt. eigenvalues --    0.05354   0.06385   0.08098   0.08860   0.10562
 Alpha virt. eigenvalues --    0.11409   0.11961   0.13456   0.14642   0.15058
 Alpha virt. eigenvalues --    0.16107   0.16159   0.18532   0.19445   0.20516

 Mulliken charges:
               1
     1  C   -0.186494
     2  C   -0.098455
     3  H    0.096192
     4  H    0.050050
     5  H    0.037301
     6  C   -0.079306
     7  H    0.018364
     8  H    0.071206
     9  C   -0.141064
    10  H    0.058466
    11  H    0.067671
    12  H    0.024059
    13  H    0.025667
    14  H    0.056344
 Sum of Mulliken charges =   0.00000

 Dipole moment (field-independent basis, Debye):
    X=             -0.3414    Y=             -0.1017    Z=             -0.0882  Tot=              0.3670
 Quadrupole moment (field-independent basis, Debye-Ang):
   XX=            -30.3379   YY=            -29.6410   ZZ=            -27.5445
   XY=             -0.7272   XZ=              0.0281   YZ=             -0.2896

 Normal termination of Gaussian 09 at Wed Aug 26 10:25:39 2020.
