 Gaussian 09, Revision D.01,
 Gaussian 09:  ES64L-G09RevD.01 24-Apr-2013

 --------------------
 #p B2PLYPD3/Def2QZVP
 --------------------

 ----------
 butane_opt
 ----------
 Symbolic Z-matrix:
 Charge =  0 Multiplicity = 1

                         Standard orientation:
 ---------------------------------------------------------------------
 Center     Atomic      Atomic             Coordinates (Angstroms)
 Number     Number       Type             X           Y           Z
 ---------------------------------------------------------------------
      1          6           0       -1.935565    0.003055    0.036626
      2          6           0       -0.648011   -0.433992    0.061362
      3          1           0       -2.765808   -0.729309   -0.384777
      4          1           0       -2.086406    0.395262   -0.742666
      5          1           0       -2.205393    1.144198    1.105522
      6          6           0        0.544752    0.578449   -0.137114
      7          1           0       -0.520208   -1.146665   -0.690839
      8          1           0       -0.570975   -1.029839    0.938827
      9          6           0        2.021218   -0.199403    0.059877
     10          1           0        0.489407    1.155479    0.670746
     11          1           0        0.174485    1.452920   -1.153141
     12          1           0        2.261265   -0.529810    0.937557
     13          1           0        2.943620    0.640719    0.111250
     14          1           0        2.385656   -1.041608   -0.916981
 ---------------------------------------------------------------------

 SCF Done:  E(RB2PLYPD3) =  -157.843029339     A.U. after   11 cycles
 E2(B2PLYPD3) =    -0.2540606198D+00 E(B2PLYPD3) =    -0.15809708995842D+03

 The electronic state is 1-A.
 Alpha  occ. eigenvalues --  -10.64736 -10.64564 -10.61661 -10.59494  -0.93713
 Alpha  occ. eigenvalues --   -0.83400  -0.74245  -0.68416  -0.54998  -0.50275
 Alpha  occ. eigenvalues --   -0.47588  -0.46124  -0.40335  -0.39963  -0.38905
 Alpha  occ. eigenvalues --   -0.35490  -0.34943
 Alpha virt. eigenvalues --    0.03303   0.05265   0.06654   0.07421   0.09891
 Alpha virt. eigenvalues --    0.10267   0.11865   0.12403   0.13401   0.14197
 Alpha virt. eigenvalues --    0.15837   0.16396   0.18233   0.19168   0.19753

 Mulliken charges:
               1
     1  C   -0.214638
     2  C    0.012195
     3  H    0.042332
     4  H    0.122171
     5  H   -0.012951
     6  C   -0.094730
     7  H    0.030787
     8  H    0.038459
     9  C   -0.165521
    10  H    0.076166
    11  H    0.018172
    12  H    0.092955
    13  H    0.018144
    14  H    0.036458
 Sum of Mulliken charges =   0.00000

 Dipole moment (field-independent basis, Debye):
    X=              0.1832    Y=             -0.3396    Z=             -0.2369  Tot=              0.4528
 Quadrupole moment (field-independent basis, Debye-Ang):
   XX=            -30.7390   YY=            -29.7903   ZZ=            -28.8619
   XY=              0.3890   XZ=              3.3929   YZ=              0.6406

 Normal termination of Gaussian 09 at Wed Aug 26 23:43:02 2020.
