 Gaussian 09, Revision D.01,
 Gaussian 09:  ES64L-G09RevD.01 24-Apr-2013

 --------------------
 #p B2PLYPD3/Def2QZVP
 --------------------

 ----------
 butane_opt
 ----------
 Symbolic Z-matrix:
 Charge =  0 Multiplicity = 1

                         Standard orientation:
 ---------------------------------------------------------------------
 Center     Atomic      Atomic             Coordinates (Angstroms)
 Number     Number       Type             X           Y           Z
 ---------------------------------------------------------------------
      1          6           0        1.806262    0.105530    0.115457
      2          6           0        0.593510   -0.521251   -0.183334
      3          1           0        2.717116   -0.751979   -0.010597
      4          1           0        1.976258    0.981648    1.301074
      5          1           0        2.249019    0.568454   -0.661724
      6          6           0       -0.512747    0.533486   -0.043422
      7          1           0        0.400333   -0.974218    0.446946
      8          1           0        0.338372   -1.358620   -1.297329
      9          6           0       -1.905800   -0.141316    0.133726
     10          1           0       -0.591680    1.477529   -1.054421
     11          1           0       -0.149519    1.166974    0.783156
     12          1           0       -1.862169   -0.331532   -0.433439
     13          1           0       -2.841100    0.710035   -0.516981
     14          1           0       -2.123975   -1.346990    1.308753
 ---------------------------------------------------------------------

 SCF Done:  E(RB2PLYPD3) =  -157.212755146     A.U. after   12 cycles
 E2(B2PLYPD3) =    -0.2611061986D+00 E(B2PLYPD3) =    -0.15747386134452D+03

 The electronic state is 1-A.
 Alpha  occ. eigenvalues --  -10.64812 -10.64461 -10.64030 -10.60947  -0.96499
 Alpha  occ. eigenvalues --   -0.89797  -0.75017  -0.68775  -0.52686  -0.51379
 Alpha  occ. eigenvalues --   -0.47112  -0.44367  -0.41446  -0.39090  -0.37965
 Alpha  occ. eigenvalues --   -0.35675  -0.34206
 Alpha virt. eigenvalues --   -0.00224   0.02683   0.03992   0.06053   0.09635
 Alpha virt. eigenvalues --    0.10467   0.11304   0.12218   0.13406   0.14712
 Alpha virt. eigenvalues --    0.15126   0.15903   0.16965   0.19124   0.20698

 Mulliken charges:
               1
     1  C   -0.151108
     2  C   -0.295269
     3  H    0.011958
     4  H    0.042137
     5  H    0.066914
     6  C    0.038798
     7  H    0.305280
     8  H    0.022420
     9  C   -0.940891
    10  H   -0.004851
    11  H    0.048103
    12  H    0.773681
    13  H    0.035953
    14  H    0.046875
 Sum of Mulliken charges =   0.00000

 Dipole moment (field-independent basis, Debye):
    X=              0.5782    Y=             -0.2610    Z=             -0.3717  Tot=              0.7353
 Quadrupole moment (field-independent basis, Debye-Ang):
   XX=            -32.5209   YY=            -29.4375   ZZ=            -28.8577
   XY=              1.1120   XZ=              0.6654   YZ=             -0.3551

 Normal termination of Gaussian 09 at Wed Aug 26 10:39:05 2020.
