 Gaussian 09, Revision D.01,
 Gaussian 09:  ES64L-G09RevD.01 24-Apr-2013

 --------------------
 #p B2PLYPD3/Def2QZVP
 --------------------

 ----------
 butane_opt
 ----------
 Symbolic Z-matrix:
 Charge =  0 Multiplicity = 1

                         Standard orientation:
 ---------------------------------------------------------------------
 Center     Atomic      Atomic             Coordinates (Angstroms)
 Number     Number       Type             X           Y           Z
 ---------------------------------------------------------------------
      1          6           0       -1.930547    0.125533   -0.078081
      2          6           0       -0.549558   -0.493241    0.103313
      3          1           0       -2.738320   -0.714704   -0.082361
      4          1           0       -2.064268    0.972529   -0.986640
      5          1           0       -2.242361    0.568449    0.705397
      6          6           0        0.564262    0.487996    0.153861
      7          1           0       -0.401287   -1.171498   -0.893625
      8          1           0       -0.440307   -1.147206    0.964884
      9          6           0        1.917372   -0.120099   -0.137491
     10          1           0        0.671927    1.225039    1.129596
     11          1           0        0.419412    1.128058   -0.699620
     12          1           0        2.258402   -0.839561    0.752058
     13          1           0        2.720053    0.599606   -0.243107
     14          1           0        1.807579   -0.621847   -0.896196
 ---------------------------------------------------------------------

 SCF Done:  E(RB2PLYPD3) =  -158.039465666     A.U. after   11 cycles
 E2(B2PLYPD3) =    -0.2477312879D+00 E(B2PLYPD3) =    -0.15828719695428D+03

 The electronic state is 1-A.
 Alpha  occ. eigenvalues --  -10.62008 -10.61161 -10.60765 -10.58529  -0.92024
 Alpha  occ. eigenvalues --   -0.84027  -0.73694  -0.65684  -0.54590  -0.51075
 Alpha  occ. eigenvalues --   -0.48075  -0.46909  -0.42954  -0.40908  -0.38790
 Alpha  occ. eigenvalues --   -0.37491  -0.36661
 Alpha virt. eigenvalues --    0.05680   0.06580   0.07673   0.08427   0.10640
 Alpha virt. eigenvalues --    0.11802   0.12793   0.13781   0.14343   0.15259
 Alpha virt. eigenvalues --    0.15769   0.16432   0.19337   0.20238   0.22035

 Mulliken charges:
               1
     1  C   -0.146310
     2  C   -0.030015
     3  H    0.031280
     4  H    0.029314
     5  H    0.063998
     6  C   -0.048891
     7  H    0.011962
     8  H    0.047809
     9  C   -0.153104
    10  H    0.012659
    11  H    0.038604
    12  H    0.013571
    13  H    0.043546
    14  H    0.085578
 Sum of Mulliken charges =   0.00000

 Dipole moment (field-independent basis, Debye):
    X=             -0.0628    Y=              0.0736    Z=              0.0516  Tot=              0.1096
 Quadrupole moment (field-independent basis, Debye-Ang):
   XX=            -29.5756   YY=            -29.2447   ZZ=            -28.4173
   XY=              0.3949   XZ=             -0.7839   YZ=             -0.3725

 Normal termination of Gaussian 09 at Wed Aug 26 10:01:28 2020.
