 Gaussian 09, Revision D.01,
 Gaussian 09:  ES64L-G09RevD.01 24-Apr-2013

 --------------------
 #p B2PLYPD3/Def2QZVP
 --------------------

 ----------
 butane_opt
 ----------
 Symbolic Z-matrix:
 Charge =  0 Multiplicity = 1

                         Standard orientation:
 ---------------------------------------------------------------------
 Center     Atomic      Atomic             Coordinates (Angstroms)
 Number     Number       Type             X           Y           Z
 ---------------------------------------------------------------------
      1          6           0        1.969727    0.161121   -0.099984
      2          6           0        0.508309   -0.505768   -0.017645
      3          1           0        2.827905   -0.665965    0.517261
      4          1           0        1.706608    0.456729    0.694823
      5          1           0        2.348858    1.215412   -1.188605
      6          6           0       -0.610128    0.384839    0.197941
      7          1           0        0.524672   -1.461001    0.857280
      8          1           0        0.285943   -0.841413   -0.703738
      9          6           0       -1.838143   -0.086161   -0.102148
     10          1           0       -0.396375    0.957429   -0.602079
     11          1           0       -0.820800    1.408914    1.396592
     12          1           0       -1.829743   -0.809538   -1.235172
     13          1           0       -2.766462    0.793077   -0.266590
     14          1           0       -2.059208   -0.777838    0.661245
 ---------------------------------------------------------------------

 SCF Done:  E(RB2PLYPD3) =  -157.664475454     A.U. after   12 cycles
 E2(B2PLYPD3) =    -0.2581662985D+00 E(B2PLYPD3) =    -0.15792264175210D+03

 The electronic state is 1-A.
 Alpha  occ. eigenvalues --  -10.64462 -10.63733 -10.62972 -10.61595  -0.97946
 Alpha  occ. eigenvalues --   -0.86090  -0.75525  -0.66873  -0.55933  -0.49928
 Alpha  occ. eigenvalues --   -0.48160  -0.45997  -0.41431  -0.39475  -0.39154
 Alpha  occ. eigenvalues --   -0.35186  -0.33506
 Alpha virt. eigenvalues --    0.02343   0.03006   0.04999   0.06303   0.09901
 Alpha virt. eigenvalues --    0.10464   0.11534   0.12081   0.13121   0.14891
 Alpha virt. eigenvalues --    0.15255   0.15765   0.17779   0.19163   0.19937

 Mulliken charges:
               1
     1  C   -0.303499
     2  C   -0.305607
     3  H    0.038633
     4  H    0.208801
     5  H    0.057843
     6  C   -0.031101
     7  H    0.001624
     8  H    0.298020
     9  C   -0.160221
    10  H    0.090619
    11  H   -0.028349
    12  H    0.007272
    13  H    0.055567
    14  H    0.070398
 Sum of Mulliken charges =   0.00000

 Dipole moment (field-independent basis, Debye):
    X=             -0.3847    Y=             -0.0581    Z=             -0.2428  Tot=              0.4587
 Quadrupole moment (field-independent basis, Debye-Ang):
   XX=            -31.6261   YY=            -30.2311   ZZ=            -29.2877
   XY=             -0.1834   XZ=              0.4626   YZ=             -1.5708

 Normal termination of Gaussian 09 at Wed Aug 26 10:57:06 2020.
