 Gaussian 09, Revision D.01,
 Gaussian 09:  ES64L-G09RevD.01 24-Apr-2013

 --------------------
 #p B2PLYPD3/Def2QZVP
 --------------------

 ----------
 butane_opt
 ----------
 Symbolic Z-matrix:
 Charge =  0 Multiplicity = 1

                         Standard orientation:
 ---------------------------------------------------------------------
 Center     Atomic      Atomic             Coordinates (Angstroms)
 Number     Number       Type             X           Y           Z
 ---------------------------------------------------------------------
      1          6           0        1.935315    0.131837    0.034390
      2          6           0        0.498174   -0.483207   -0.022944
      3          1           0        2.761835   -0.763013   -0.763249
      4          1           0        2.366044    1.450849    1.300444
      5          1           0        1.843958    0.240633   -0.497045
      6          6           0       -0.532623    0.445518   -0.177445
      7          1           0        0.304102   -1.270030    1.297529
      8          1           0        0.393515   -1.112953   -0.761404
      9          6           0       -1.948540   -0.102212    0.095453
     10          1           0       -0.791513    1.110562   -1.114776
     11          1           0       -0.299883    1.047009    0.569640
     12          1           0       -1.793705   -0.656957   -0.727931
     13          1           0       -2.735560    0.806033   -0.028722
     14          1           0       -1.762749   -0.803744    1.148789
 ---------------------------------------------------------------------

 SCF Done:  E(RB2PLYPD3) =  -157.067935295     A.U. after   13 cycles
 E2(B2PLYPD3) =    -0.2642197358D+00 E(B2PLYPD3) =    -0.15733215503111D+03

 The electronic state is 1-A.
 Alpha  occ. eigenvalues --  -10.67001 -10.64709 -10.62354 -10.60073  -0.98152
 Alpha  occ. eigenvalues --   -0.89801  -0.76228  -0.67406  -0.55891  -0.51224
 Alpha  occ. eigenvalues --   -0.47999  -0.45570  -0.40193  -0.38985  -0.37352
 Alpha  occ. eigenvalues --   -0.35292  -0.33360
 Alpha virt. eigenvalues --   -0.03971   0.03751   0.04672   0.05759   0.09549
 Alpha virt. eigenvalues --    0.09855   0.11811   0.12104   0.13182   0.14557
 Alpha virt. eigenvalues --    0.15385   0.16001   0.17247   0.18913   0.19811

 Mulliken charges:
               1
     1  C   -1.035145
     2  C    0.000647
     3  H    0.020105
     4  H    0.064049
     5  H    0.883156
     6  C   -0.062639
     7  H   -0.030988
     8  H    0.085706
     9  C   -0.179319
    10  H    0.020500
    11  H    0.060148
    12  H    0.074304
    13  H    0.053125
    14  H    0.046350
 Sum of Mulliken charges =   0.00000

 Dipole moment (field-independent basis, Debye):
    X=             -0.3335    Y=              0.8122    Z=             -0.9613  Tot=              1.3019
 Quadrupole moment (field-independent basis, Debye-Ang):
   XX=            -33.3375   YY=            -29.8772   ZZ=            -28.1507
   XY=             -0.3030   XZ=             -0.0952   YZ=              1.6288

 Normal termination of Gaussian 09 at Wed Aug 26 15:38:09 2020.
