 Gaussian 09, Revision D.01,
 Gaussian 09:  ES64L-G09RevD.01 24-Apr-2013

 --------------------
 #p B2PLYPD3/Def2QZVP
 --------------------

 ----------
 butane_opt
 ----------
 Symbolic Z-matrix:
 Charge =  0 Multiplicity = 1

                         Standard orientation:
 ---------------------------------------------------------------------
 Center     Atomic      Atomic             Coordinates (Angstroms)
 Number     Number       Type             X           Y           Z
 ---------------------------------------------------------------------
      1          6           0       -1.925731    0.144062   -0.142380
      2          6           0       -0.625262   -0.565275    0.140305
      3          1           0       -2.839646   -0.704140   -0.467863
      4          1           0       -1.840585    0.279967   -0.658661
      5          1           0       -2.411605    1.164513    0.874190
      6          6           0        0.565429    0.616631    0.072469
      7          1           0       -0.340909   -1.076160   -0.664964
      8          1           0       -0.479789   -1.332647    1.234838
      9          6           0        1.963466   -0.125128   -0.091930
     10          1           0        0.707881    1.279772    0.889604
     11          1           0        0.369244    0.948962   -0.686925
     12          1           0        2.359570   -0.881968    0.829197
     13          1           0        2.607300    0.443471   -0.394885
     14          1           0        2.001119   -0.543508   -0.825322
 ---------------------------------------------------------------------

 SCF Done:  E(RB2PLYPD3) =  -157.124297998     A.U. after   12 cycles
 E2(B2PLYPD3) =    -0.2511215302D+00 E(B2PLYPD3) =    -0.15737541952831D+03

 The electronic state is 1-A.
 Alpha  occ. eigenvalues --  -10.64115 -10.63201 -10.59064 -10.56599  -0.94700
 Alpha  occ. eigenvalues --   -0.89005  -0.78470  -0.70173  -0.55661  -0.52296
 Alpha  occ. eigenvalues --   -0.48031  -0.46247  -0.43135  -0.41169  -0.39470
 Alpha  occ. eigenvalues --   -0.38776  -0.33992
 Alpha virt. eigenvalues --    0.04198   0.06015   0.07624   0.08325   0.09916
 Alpha virt. eigenvalues --    0.10980   0.12344   0.12900   0.14171   0.15837
 Alpha virt. eigenvalues --    0.16171   0.17312   0.18389   0.19105   0.20698

 Mulliken charges:
               1
     1  C   -0.981697
     2  C   -0.014192
     3  H    0.067447
     4  H    0.759611
     5  H    0.049489
     6  C   -0.177739
     7  H    0.088822
     8  H    0.021513
     9  C   -0.241350
    10  H    0.057632
    11  H    0.166116
    12  H    0.041964
    13  H    0.052883
    14  H    0.109502
 Sum of Mulliken charges =   0.00000

 Dipole moment (field-independent basis, Debye):
    X=              0.4674    Y=              0.2154    Z=             -0.8773  Tot=              1.0171
 Quadrupole moment (field-independent basis, Debye-Ang):
   XX=            -30.1845   YY=            -28.8285   ZZ=            -27.1649
   XY=             -0.0136   XZ=             -0.2566   YZ=              0.4499

 Normal termination of Gaussian 09 at Wed Aug 26 19:41:03 2020.
