 Gaussian 09, Revision D.01,
 Gaussian 09:  ES64L-G09RevD.01 24-Apr-2013

 --------------------
 #p B2PLYPD3/Def2QZVP
 --------------------

 ----------
 butane_opt
 ----------
 Symbolic Z-matrix:
 Charge =  0 Multiplicity = 1

                         Standard orientation:
 ---------------------------------------------------------------------
 Center     Atomic      Atomic             Coordinates (Angstroms)
 Number     Number       Type             X           Y           Z
 ---------------------------------------------------------------------
      1          6           0       -2.007933   -0.147247   -0.162177
      2          6           0       -0.498841    0.597088    0.109428
      3          1           0       -2.697966    0.433836   -0.305376
      4          1           0       -2.390710   -0.739226    0.796208
      5          1           0       -2.159295   -0.823384   -1.043168
      6          6           0        0.568269   -0.482492    0.328806
      7          1           0       -0.609529    1.564444    1.031056
      8          1           0       -0.428977    0.986631   -0.716072
      9          6           0        1.930693    0.093641   -0.184648
     10          1           0        0.371191   -1.291129   -0.519711
     11          1           0        0.650632   -1.157479    1.160775
     12          1           0        1.944805    0.651837   -1.155706
     13          1           0        2.976551   -0.818844   -0.445508
     14          1           0        2.390171    0.827374    0.649042
 ---------------------------------------------------------------------

 SCF Done:  E(RB2PLYPD3) =  -157.955660466     A.U. after   11 cycles
 E2(B2PLYPD3) =    -0.2514120722D+00 E(B2PLYPD3) =    -0.15820707253814D+03

 The electronic state is 1-A.
 Alpha  occ. eigenvalues --  -10.64746 -10.63578 -10.63079 -10.60087  -0.90131
 Alpha  occ. eigenvalues --   -0.81735  -0.73411  -0.67795  -0.51545  -0.49836
 Alpha  occ. eigenvalues --   -0.47560  -0.45813  -0.42552  -0.40738  -0.39766
 Alpha  occ. eigenvalues --   -0.35583  -0.35256
 Alpha virt. eigenvalues --    0.04927   0.06148   0.07148   0.08479   0.10273
 Alpha virt. eigenvalues --    0.10824   0.12244   0.13260   0.14148   0.14932
 Alpha virt. eigenvalues --    0.15524   0.16759   0.19209   0.19818   0.20832

 Mulliken charges:
               1
     1  C   -0.152127
     2  C   -0.152051
     3  H    0.081917
     4  H    0.025797
     5  H    0.030561
     6  C   -0.021838
     7  H    0.017581
     8  H    0.141052
     9  C   -0.165651
    10  H    0.018874
    11  H    0.069873
    12  H    0.059597
    13  H    0.004801
    14  H    0.041614
 Sum of Mulliken charges =   0.00000

 Dipole moment (field-independent basis, Debye):
    X=             -0.4451    Y=              0.1745    Z=             -0.3162  Tot=              0.5732
 Quadrupole moment (field-independent basis, Debye-Ang):
   XX=            -30.8985   YY=            -29.3254   ZZ=            -28.4532
   XY=             -0.0673   XZ=              0.4781   YZ=             -0.4769

 Normal termination of Gaussian 09 at Wed Aug 26 13:08:57 2020.
