 Gaussian 09, Revision D.01,
 Gaussian 09:  ES64L-G09RevD.01 24-Apr-2013

 --------------------
 #p B2PLYPD3/Def2QZVP
 --------------------

 ----------
 butane_opt
 ----------
 Symbolic Z-matrix:
 Charge =  0 Multiplicity = 1

                         Standard orientation:
 ---------------------------------------------------------------------
 Center     Atomic      Atomic             Coordinates (Angstroms)
 Number     Number       Type             X           Y           Z
 ---------------------------------------------------------------------
      1          6           0       -1.969173   -0.171960   -0.126726
      2          6           0       -0.484072    0.606488    0.144452
      3          1           0       -2.815643    0.411618   -0.564597
      4          1           0       -2.558659   -0.679487    0.848181
      5          1           0       -2.077693   -0.854022   -0.952861
      6          6           0        0.581709   -0.425659    0.240726
      7          1           0       -0.444566    1.514045    1.022860
      8          1           0       -0.422870    1.029456   -0.663528
      9          6           0        1.928941    0.051539   -0.154977
     10          1           0        0.425663   -1.034614   -0.404786
     11          1           0        0.688054   -1.146658    1.304339
     12          1           0        1.593856    0.450119   -1.049293
     13          1           0        2.613594   -0.639174   -0.635959
     14          1           0        2.653837    0.586263    0.474794
 ---------------------------------------------------------------------

 SCF Done:  E(RB2PLYPD3) =  -157.959382458     A.U. after   11 cycles
 E2(B2PLYPD3) =    -0.2494870280D+00 E(B2PLYPD3) =    -0.15820886948606D+03

 The electronic state is 1-A.
 Alpha  occ. eigenvalues --  -10.62533 -10.62509 -10.60285 -10.59001  -0.93511
 Alpha  occ. eigenvalues --   -0.82696  -0.74310  -0.69050  -0.54803  -0.50895
 Alpha  occ. eigenvalues --   -0.48361  -0.46887  -0.42083  -0.39582  -0.38924
 Alpha  occ. eigenvalues --   -0.37718  -0.36090
 Alpha virt. eigenvalues --    0.05536   0.06406   0.08241   0.08318   0.10681
 Alpha virt. eigenvalues --    0.11975   0.12256   0.12932   0.14931   0.15496
 Alpha virt. eigenvalues --    0.16261   0.17772   0.18154   0.19508   0.21207

 Mulliken charges:
               1
     1  C   -0.136406
     2  C   -0.118060
     3  H    0.023408
     4  H    0.035326
     5  H    0.039861
     6  C   -0.110873
     7  H    0.031482
     8  H    0.121984
     9  C   -0.136632
    10  H    0.134907
    11  H    0.004239
    12  H    0.035484
    13  H    0.023873
    14  H    0.051408
 Sum of Mulliken charges =   0.00000

 Dipole moment (field-independent basis, Debye):
    X=              0.1854    Y=              0.0598    Z=             -0.8172  Tot=              0.8401
 Quadrupole moment (field-independent basis, Debye-Ang):
   XX=            -28.6856   YY=            -29.7534   ZZ=            -28.3223
   XY=              0.0074   XZ=              0.9137   YZ=              0.6649

 Normal termination of Gaussian 09 at Wed Aug 26 16:06:11 2020.
