 Gaussian 09, Revision D.01,
 Gaussian 09:  ES64L-G09RevD.01 24-Apr-2013

 --------------------
 #p B2PLYPD3/Def2QZVP
 --------------------

 ----------
 butane_opt
 ----------
 Symbolic Z-matrix:
 Charge =  0 Multiplicity = 1

                         Standard orientation:
 ---------------------------------------------------------------------
 Center     Atomic      Atomic             Coordinates (Angstroms)
 Number     Number       Type             X           Y           Z
 ---------------------------------------------------------------------
      1          6           0        1.970474   -0.202853   -0.192302
      2          6           0        0.539194    0.549299    0.222473
      3          1           0        2.849600    0.486200   -0.303238
      4          1           0        1.543231   -0.870206   -0.949302
      5          1           0        2.285800   -0.747842    0.703238
      6          6           0       -0.574522   -0.427567    0.136255
      7          1           0        0.400027    1.217192   -0.681660
      8          1           0        0.424894    1.446828    1.277953
      9          6           0       -1.891779    0.087873   -0.163266
     10          1           0       -0.798748   -1.137739    1.093763
     11          1           0       -0.374192   -1.038613   -0.551707
     12          1           0       -1.776719    0.432877    0.530989
     13          1           0       -2.767040   -0.737917    0.137915
     14          1           0       -2.047050    0.908708   -1.276907
 ---------------------------------------------------------------------

 SCF Done:  E(RB2PLYPD3) =  -157.829392913     A.U. after   11 cycles
 E2(B2PLYPD3) =    -0.2529276443D+00 E(B2PLYPD3) =    -0.15808232055761D+03

 The electronic state is 1-A.
 Alpha  occ. eigenvalues --  -10.64752 -10.62268 -10.60214 -10.59671  -0.95665
 Alpha  occ. eigenvalues --   -0.84289  -0.73627  -0.66568  -0.54261  -0.50750
 Alpha  occ. eigenvalues --   -0.48483  -0.46837  -0.41428  -0.40516  -0.37826
 Alpha  occ. eigenvalues --   -0.36315  -0.35903
 Alpha virt. eigenvalues --    0.05075   0.06392   0.06806   0.07228   0.10479
 Alpha virt. eigenvalues --    0.11703   0.12257   0.13553   0.14081   0.15090
 Alpha virt. eigenvalues --    0.15389   0.15687   0.17809   0.19719   0.21015

 Mulliken charges:
               1
     1  C   -0.145908
     2  C   -0.098617
     3  H    0.055174
     4  H    0.077904
     5  H    0.050541
     6  C   -0.039130
     7  H    0.049113
     8  H    0.008626
     9  C   -0.449074
    10  H    0.004784
    11  H    0.072514
    12  H    0.334800
    13  H    0.045312
    14  H    0.033962
 Sum of Mulliken charges =   0.00000

 Dipole moment (field-independent basis, Debye):
    X=              0.4106    Y=             -0.2928    Z=              0.0000  Tot=              0.5043
 Quadrupole moment (field-independent basis, Debye-Ang):
   XX=            -30.2120   YY=            -29.6007   ZZ=            -28.8525
   XY=              0.9618   XZ=             -0.5312   YZ=             -0.4182

 Normal termination of Gaussian 09 at Wed Aug 26 20:04:51 2020.
