 Gaussian 09, Revision D.01,
 Gaussian 09:  ES64L-G09RevD.01 24-Apr-2013

 --------------------
 #p B2PLYPD3/Def2QZVP
 --------------------

 ----------
 butane_opt
 ----------
 Symbolic Z-matrix:
 Charge =  0 Multiplicity = 1

                         Standard orientation:
 ---------------------------------------------------------------------
 Center     Atomic      Atomic             Coordinates (Angstroms)
 Number     Number       Type             X           Y           Z
 ---------------------------------------------------------------------
      1          6           0       -1.922035   -0.152221   -0.165073
      2          6           0       -0.509037    0.613735    0.231572
      3          1           0       -2.699118    0.473846   -0.553527
      4          1           0       -2.344474   -0.702444    0.639555
      5          1           0       -2.136809   -0.784979   -0.954014
      6          6           0        0.567839   -0.503453    0.170544
      7          1           0       -0.328653    1.414226    1.295382
      8          1           0       -0.189238    0.885894   -0.517105
      9          6           0        1.881970    0.122665   -0.254750
     10          1           0        0.116951   -0.814750   -0.317077
     11          1           0        0.815178   -1.394282    1.329779
     12          1           0        1.828864    0.621850   -1.065949
     13          1           0        2.749987   -0.722599   -0.326809
     14          1           0        2.074885    0.538884    0.576007
 ---------------------------------------------------------------------

 SCF Done:  E(RB2PLYPD3) =  -157.707522566     A.U. after   11 cycles
 E2(B2PLYPD3) =    -0.2507502790D+00 E(B2PLYPD3) =    -0.15795827284487D+03

 The electronic state is 1-A.
 Alpha  occ. eigenvalues --  -10.62640 -10.60170 -10.59967 -10.58413  -0.96306
 Alpha  occ. eigenvalues --   -0.83935  -0.78000  -0.70649  -0.56873  -0.51918
 Alpha  occ. eigenvalues --   -0.48189  -0.46330  -0.44160  -0.42191  -0.39322
 Alpha  occ. eigenvalues --   -0.36119  -0.35024
 Alpha virt. eigenvalues --    0.04649   0.06468   0.07498   0.08179   0.11441
 Alpha virt. eigenvalues --    0.12033   0.12659   0.12953   0.14871   0.15594
 Alpha virt. eigenvalues --    0.15970   0.16851   0.18047   0.19724   0.20635

 Mulliken charges:
               1
     1  C   -0.129624
     2  C   -0.268272
     3  H    0.028754
     4  H    0.053688
     5  H    0.033495
     6  C   -0.475490
     7  H    0.046070
     8  H    0.237827
     9  C   -0.120691
    10  H    0.435467
    11  H   -0.016822
    12  H    0.065662
    13  H    0.025054
    14  H    0.084884
 Sum of Mulliken charges =   0.00000

 Dipole moment (field-independent basis, Debye):
    X=             -0.1865    Y=              0.2837    Z=             -0.6858  Tot=              0.7652
 Quadrupole moment (field-independent basis, Debye-Ang):
   XX=            -28.6579   YY=            -29.9491   ZZ=            -27.8974
   XY=              1.2171   XZ=              1.0616   YZ=              0.2626

 Normal termination of Gaussian 09 at Wed Aug 26 11:49:06 2020.
