 Gaussian 09, Revision D.01,
 Gaussian 09:  ES64L-G09RevD.01 24-Apr-2013

 --------------------
 #p B2PLYPD3/Def2QZVP
 --------------------

 ----------
 butane_opt
 ----------
 Symbolic Z-matrix:
 Charge =  0 Multiplicity = 1

                         Standard orientation:
 ---------------------------------------------------------------------
 Center     Atomic      Atomic             Coordinates (Angstroms)
 Number     Number       Type             X           Y           Z
 ---------------------------------------------------------------------
      1          6           0       -1.905977   -0.000406    0.246444
      2          6           0       -0.567693   -0.404911   -0.293402
      3          1           0       -2.707128   -0.756998   -0.061010
      4          1           0       -1.959717    0.665714   -0.475212
      5          1           0       -1.601066    0.561013    1.303652
      6          6           0        0.464991    0.657606   -0.202168
      7          1           0       -0.648844   -0.944412   -1.239543
      8          1           0       -0.258649   -1.157421    0.507709
      9          6           0        1.897783   -0.213353    0.118090
     10          1           0        0.393563    1.102529    0.829196
     11          1           0        0.468636    1.705865   -0.989626
     12          1           0        1.585330   -0.885561    0.928137
     13          1           0        2.736660    0.197407    0.844227
     14          1           0        2.656596   -0.721753   -0.861321
 ---------------------------------------------------------------------

 SCF Done:  E(RB2PLYPD3) =  -157.962229101     A.U. after   11 cycles
 E2(B2PLYPD3) =    -0.2548269941D+00 E(B2PLYPD3) =    -0.15821705609519D+03

 The electronic state is 1-A.
 Alpha  occ. eigenvalues --  -10.65272 -10.64435 -10.60922 -10.60367  -0.92441
 Alpha  occ. eigenvalues --   -0.81444  -0.71486  -0.65234  -0.54533  -0.50055
 Alpha  occ. eigenvalues --   -0.46374  -0.45805  -0.41108  -0.40213  -0.38693
 Alpha  occ. eigenvalues --   -0.35995  -0.34366
 Alpha virt. eigenvalues --    0.05064   0.05933   0.07092   0.07832   0.10562
 Alpha virt. eigenvalues --    0.10909   0.11982   0.12928   0.14597   0.14654
 Alpha virt. eigenvalues --    0.16012   0.16386   0.17636   0.18962   0.20618

 Mulliken charges:
               1
     1  C   -0.171354
     2  C   -0.034335
     3  H    0.049525
     4  H    0.068734
     5  H    0.043195
     6  C   -0.088793
     7  H    0.034528
     8  H    0.035227
     9  C   -0.165067
    10  H    0.055029
    11  H    0.040207
    12  H    0.068012
    13  H    0.025640
    14  H    0.039452
 Sum of Mulliken charges =   0.00000

 Dipole moment (field-independent basis, Debye):
    X=             -0.1922    Y=             -0.0531    Z=              0.1030  Tot=              0.2244
 Quadrupole moment (field-independent basis, Debye-Ang):
   XX=            -31.3914   YY=            -30.0457   ZZ=            -28.2126
   XY=              0.5407   XZ=              1.6773   YZ=              0.0628

 Normal termination of Gaussian 09 at Wed Aug 26 23:39:46 2020.
