 Gaussian 09, Revision D.01,
 Gaussian 09:  ES64L-G09RevD.01 24-Apr-2013

 --------------------
 #p B2PLYPD3/Def2QZVP
 --------------------

 ----------
 butane_opt
 ----------
 Symbolic Z-matrix:
 Charge =  0 Multiplicity = 1

                         Standard orientation:
 ---------------------------------------------------------------------
 Center     Atomic      Atomic             Coordinates (Angstroms)
 Number     Number       Type             X           Y           Z
 ---------------------------------------------------------------------
      1          6           0        1.944395   -0.173944   -0.095265
      2          6           0        0.509707    0.594612    0.128166
      3          1           0        2.508241    0.410707    0.013586
      4          1           0        2.140172   -1.137391   -1.157197
      5          1           0        2.210464   -0.479229    0.460417
      6          6           0       -0.642478   -0.404103    0.202071
      7          1           0        0.272661    0.985302   -0.622227
      8          1           0        0.476807    1.497054    1.027684
      9          6           0       -1.842900    0.065253   -0.252792
     10          1           0       -0.870110   -1.419241    1.463720
     11          1           0       -0.061254   -0.923411   -0.383257
     12          1           0       -2.080381    0.775505    0.535648
     13          1           0       -2.701149   -0.841061   -0.069471
     14          1           0       -1.707792    0.640852   -1.161982
 ---------------------------------------------------------------------

 SCF Done:  E(RB2PLYPD3) =  -157.515696790     A.U. after   12 cycles
 E2(B2PLYPD3) =    -0.2531577049D+00 E(B2PLYPD3) =    -0.15776885449451D+03

 The electronic state is 1-A.
 Alpha  occ. eigenvalues --  -10.62371 -10.62327 -10.61205 -10.57661  -0.96343
 Alpha  occ. eigenvalues --   -0.91249  -0.79634  -0.67262  -0.54237  -0.51804
 Alpha  occ. eigenvalues --   -0.50763  -0.47524  -0.45974  -0.42226  -0.38982
 Alpha  occ. eigenvalues --   -0.34798  -0.32773
 Alpha virt. eigenvalues --    0.03447   0.04988   0.06255   0.07804   0.10594
 Alpha virt. eigenvalues --    0.11385   0.12136   0.12993   0.14808   0.14966
 Alpha virt. eigenvalues --    0.15378   0.16087   0.17932   0.19266   0.20791

 Mulliken charges:
               1
     1  C   -0.598947
     2  C   -0.130197
     3  H    0.131819
     4  H    0.036700
     5  H    0.391789
     6  C   -0.045147
     7  H    0.173576
     8  H    0.001695
     9  C   -0.160330
    10  H   -0.060274
    11  H    0.085175
    12  H    0.062219
    13  H    0.056452
    14  H    0.055471
 Sum of Mulliken charges =   0.00000

 Dipole moment (field-independent basis, Debye):
    X=              0.4782    Y=              0.6437    Z=             -0.5071  Tot=              0.9488
 Quadrupole moment (field-independent basis, Debye-Ang):
   XX=            -28.4656   YY=            -29.5355   ZZ=            -29.5700
   XY=             -0.4277   XZ=              0.8039   YZ=              0.6951

 Normal termination of Gaussian 09 at Wed Aug 26 13:45:07 2020.
