 Gaussian 09, Revision D.01,
 Gaussian 09:  ES64L-G09RevD.01 24-Apr-2013

 --------------------
 #p B2PLYPD3/Def2QZVP
 --------------------

 ----------
 butane_opt
 ----------
 Symbolic Z-matrix:
 Charge =  0 Multiplicity = 1

                         Standard orientation:
 ---------------------------------------------------------------------
 Center     Atomic      Atomic             Coordinates (Angstroms)
 Number     Number       Type             X           Y           Z
 ---------------------------------------------------------------------
      1          6           0        1.953438    0.101450   -0.270404
      2          6           0        0.604083   -0.473846    0.207314
      3          1           0        2.852312   -0.796998   -0.138692
      4          1           0        2.264041    0.663470    0.485815
      5          1           0        1.849860    0.490722   -1.059233
      6          6           0       -0.501564    0.617355    0.216050
      7          1           0        0.852967   -1.179285    1.368942
      8          1           0        0.382834   -0.907906   -0.488421
      9          6           0       -2.083636   -0.175881   -0.160113
     10          1           0       -0.419810    0.817526   -0.409650
     11          1           0       -0.372522    1.607080    1.188439
     12          1           0       -1.803218   -0.697115   -0.959253
     13          1           0       -2.740561    0.567149   -0.741973
     14          1           0       -2.699829   -0.979107    0.796945
 ---------------------------------------------------------------------

 SCF Done:  E(RB2PLYPD3) =  -157.538542897     A.U. after   11 cycles
 E2(B2PLYPD3) =    -0.2522874435D+00 E(B2PLYPD3) =    -0.15779083034097D+03

 The electronic state is 1-A.
 Alpha  occ. eigenvalues --  -10.64323 -10.62115 -10.61028 -10.58659  -0.94822
 Alpha  occ. eigenvalues --   -0.84310  -0.75308  -0.71162  -0.56857  -0.50873
 Alpha  occ. eigenvalues --   -0.46334  -0.45452  -0.42367  -0.41493  -0.39348
 Alpha  occ. eigenvalues --   -0.36598  -0.34917
 Alpha virt. eigenvalues --    0.04560   0.05265   0.07720   0.08202   0.10445
 Alpha virt. eigenvalues --    0.10973   0.11736   0.12206   0.14084   0.15580
 Alpha virt. eigenvalues --    0.15902   0.16409   0.17977   0.18624   0.19329

 Mulliken charges:
               1
     1  C   -0.182052
     2  C   -0.175316
     3  H    0.024034
     4  H    0.062501
     5  H    0.093226
     6  C   -0.739815
     7  H    0.015406
     8  H    0.213508
     9  C   -0.195298
    10  H    0.651617
    11  H    0.047396
    12  H    0.085632
    13  H    0.045251
    14  H    0.053910
 Sum of Mulliken charges =   0.00000

 Dipole moment (field-independent basis, Debye):
    X=              0.2177    Y=              0.1707    Z=             -0.8017  Tot=              0.8481
 Quadrupole moment (field-independent basis, Debye-Ang):
   XX=            -30.5207   YY=            -29.5491   ZZ=            -27.6540
   XY=              0.4384   XZ=              1.3413   YZ=             -0.3261

 Normal termination of Gaussian 09 at Wed Aug 26 12:47:29 2020.
