 Gaussian 09, Revision D.01,
 Gaussian 09:  ES64L-G09RevD.01 24-Apr-2013

 --------------------
 #p B2PLYPD3/Def2QZVP
 --------------------

 ----------
 butane_opt
 ----------
 Symbolic Z-matrix:
 Charge =  0 Multiplicity = 1

                         Standard orientation:
 ---------------------------------------------------------------------
 Center     Atomic      Atomic             Coordinates (Angstroms)
 Number     Number       Type             X           Y           Z
 ---------------------------------------------------------------------
      1          6           0       -1.956345    0.046724   -0.203101
      2          6           0       -0.607881   -0.488528    0.242305
      3          1           0       -2.769100   -0.654332   -0.275835
      4          1           0       -1.824306    0.689948   -1.077532
      5          1           0       -2.289403    0.651656    0.520546
      6          6           0        0.511588    0.553945    0.080320
      7          1           0       -0.296416   -0.864944   -0.537060
      8          1           0       -0.489467   -1.315814    1.403923
      9          6           0        2.009766   -0.098644   -0.132151
     10          1           0        0.518272    1.592337    1.116204
     11          1           0        0.411927    1.064800   -0.755763
     12          1           0        1.790402   -0.493067    0.567022
     13          1           0        2.506975    0.308674    0.289542
     14          1           0        2.698347   -1.060238   -1.175290
 ---------------------------------------------------------------------

 SCF Done:  E(RB2PLYPD3) =  -157.642898187     A.U. after   12 cycles
 E2(B2PLYPD3) =    -0.2541267781D+00 E(B2PLYPD3) =    -0.15789702496490D+03

 The electronic state is 1-A.
 Alpha  occ. eigenvalues --  -10.65005 -10.62568 -10.59450 -10.57823  -0.94559
 Alpha  occ. eigenvalues --   -0.88621  -0.77524  -0.67372  -0.53606  -0.52007
 Alpha  occ. eigenvalues --   -0.49611  -0.44830  -0.43358  -0.40244  -0.39328
 Alpha  occ. eigenvalues --   -0.36537  -0.34544
 Alpha virt. eigenvalues --    0.02212   0.05138   0.06649   0.07470   0.10533
 Alpha virt. eigenvalues --    0.11069   0.12097   0.13227   0.14461   0.15021
 Alpha virt. eigenvalues --    0.15647   0.17284   0.18371   0.19343   0.19840

 Mulliken charges:
               1
     1  C   -0.118583
     2  C   -0.185973
     3  H    0.044601
     4  H    0.046605
     5  H    0.057630
     6  C   -0.101805
     7  H    0.182044
     8  H    0.020648
     9  C   -0.571355
    10  H   -0.017796
    11  H    0.090810
    12  H    0.230287
    13  H    0.275018
    14  H    0.047867
 Sum of Mulliken charges =   0.00000

 Dipole moment (field-independent basis, Debye):
    X=             -0.4067    Y=             -0.1478    Z=             -0.0907  Tot=              0.4421
 Quadrupole moment (field-independent basis, Debye-Ang):
   XX=            -28.8307   YY=            -29.9714   ZZ=            -28.4102
   XY=             -0.5955   XZ=              0.4167   YZ=             -0.1324

 Normal termination of Gaussian 09 at Wed Aug 26 15:32:15 2020.
