 Gaussian 09, Revision D.01,
 Gaussian 09:  ES64L-G09RevD.01 24-Apr-2013

 --------------------
 #p B2PLYPD3/Def2QZVP
 --------------------

 ----------
 butane_opt
 ----------
 Symbolic Z-matrix:
 Charge =  0 Multiplicity = 1

                         Standard orientation:
 ---------------------------------------------------------------------
 Center     Atomic      Atomic             Coordinates (Angstroms)
 Number     Number       Type             X           Y           Z
 ---------------------------------------------------------------------
      1          6           0       -1.931355   -0.019665    0.184367
      2          6           0       -0.589267    0.373378   -0.173331
      3          1           0       -2.804911    0.872624   -0.260205
      4          1           0       -1.831590   -1.095457    1.404056
      5          1           0       -1.954110   -0.423871   -0.467130
      6          6           0        0.512160   -0.564531   -0.090649
      7          1           0       -0.036684    0.836142    0.431178
      8          1           0       -0.610316    1.288617   -1.257323
      9          6           0        1.927605    0.160140    0.087468
     10          1           0        0.456875   -1.349992   -0.896769
     11          1           0        0.253554   -0.775475    0.642803
     12          1           0        1.803897    0.287041   -0.392233
     13          1           0        2.618390   -0.718230   -0.576566
     14          1           0        2.590033    1.382672    1.325062
 ---------------------------------------------------------------------

 SCF Done:  E(RB2PLYPD3) =  -156.587774390     A.U. after   13 cycles
 E2(B2PLYPD3) =    -0.2648111455D+00 E(B2PLYPD3) =    -0.15685258553551D+03

 The electronic state is 1-A.
 Alpha  occ. eigenvalues --  -10.66866 -10.63131 -10.61500 -10.60153  -1.00685
 Alpha  occ. eigenvalues --   -0.92087  -0.83032  -0.68557  -0.56016  -0.49615
 Alpha  occ. eigenvalues --   -0.48783  -0.44924  -0.42149  -0.39393  -0.37827
 Alpha  occ. eigenvalues --   -0.34708  -0.34143
 Alpha virt. eigenvalues --   -0.03578   0.01013   0.04648   0.06276   0.09451
 Alpha virt. eigenvalues --    0.10606   0.11652   0.12081   0.13174   0.14891
 Alpha virt. eigenvalues --    0.15548   0.16255   0.16862   0.18383   0.20070

 Mulliken charges:
               1
     1  C   -0.463194
     2  C   -0.071220
     3  H    0.062558
     4  H    0.018199
     5  H    0.378295
     6  C   -0.267034
     7  H    0.095810
     8  H   -0.038573
     9  C   -1.171866
    10  H    0.043987
    11  H    0.318516
    12  H    0.938977
    13  H    0.069211
    14  H    0.086333
 Sum of Mulliken charges =   0.00000

 Dipole moment (field-independent basis, Debye):
    X=              0.0396    Y=             -0.0504    Z=             -0.4766  Tot=              0.4809
 Quadrupole moment (field-independent basis, Debye-Ang):
   XX=            -31.3114   YY=            -29.2383   ZZ=            -28.4512
   XY=              0.9862   XZ=              1.6207   YZ=              1.1648

 Normal termination of Gaussian 09 at Wed Aug 26 11:01:56 2020.
