 Gaussian 09, Revision D.01,
 Gaussian 09:  ES64L-G09RevD.01 24-Apr-2013

 --------------------
 #p B2PLYPD3/Def2QZVP
 --------------------

 ----------
 butane_opt
 ----------
 Symbolic Z-matrix:
 Charge =  0 Multiplicity = 1

                         Standard orientation:
 ---------------------------------------------------------------------
 Center     Atomic      Atomic             Coordinates (Angstroms)
 Number     Number       Type             X           Y           Z
 ---------------------------------------------------------------------
      1          6           0        1.968199   -0.117361    0.051207
      2          6           0        0.539587    0.595782   -0.022114
      3          1           0        2.626526    0.396453   -0.152074
      4          1           0        2.043164   -0.568766   -0.752313
      5          1           0        2.283513   -0.968391    1.102457
      6          6           0       -0.559658   -0.501065   -0.060615
      7          1           0        0.364177    1.333061   -1.030883
      8          1           0        0.343224    1.043726    0.740165
      9          6           0       -1.941338    0.085904    0.018508
     10          1           0       -0.565282   -1.060163    0.731618
     11          1           0       -0.324306   -1.146451   -0.961283
     12          1           0       -2.140543    0.900602    1.090261
     13          1           0       -2.787711   -0.704547   -0.172052
     14          1           0       -1.883502    0.394919   -0.517808
 ---------------------------------------------------------------------

 SCF Done:  E(RB2PLYPD3) =  -157.500153403     A.U. after   11 cycles
 E2(B2PLYPD3) =    -0.2483785921D+00 E(B2PLYPD3) =    -0.15774853199546D+03

 The electronic state is 1-A.
 Alpha  occ. eigenvalues --  -10.61059 -10.59068 -10.58973 -10.58602  -0.94143
 Alpha  occ. eigenvalues --   -0.87502  -0.78231  -0.69631  -0.55924  -0.49835
 Alpha  occ. eigenvalues --   -0.48447  -0.47394  -0.42430  -0.41603  -0.39968
 Alpha  occ. eigenvalues --   -0.37673  -0.36712
 Alpha virt. eigenvalues --    0.05616   0.05902   0.07488   0.08394   0.10625
 Alpha virt. eigenvalues --    0.11915   0.12264   0.13286   0.14691   0.15827
 Alpha virt. eigenvalues --    0.16212   0.16806   0.18870   0.19819   0.22136

 Mulliken charges:
               1
     1  C   -0.220596
     2  C   -0.102089
     3  H    0.109234
     4  H    0.060037
     5  H    0.028374
     6  C    0.005232
     7  H    0.006274
     8  H    0.108102
     9  C   -0.808346
    10  H    0.066855
    11  H    0.021020
    12  H    0.039572
    13  H    0.076742
    14  H    0.609590
 Sum of Mulliken charges =   0.00000

 Dipole moment (field-independent basis, Debye):
    X=              0.2078    Y=              0.0116    Z=             -0.3795  Tot=              0.4328
 Quadrupole moment (field-independent basis, Debye-Ang):
   XX=            -29.1358   YY=            -28.9531   ZZ=            -27.5141
   XY=              0.3040   XZ=             -0.5249   YZ=              0.0055

 Normal termination of Gaussian 09 at Wed Aug 26 21:29:38 2020.
