 Gaussian 09, Revision D.01,
 Gaussian 09:  ES64L-G09RevD.01 24-Apr-2013

 --------------------
 #p B2PLYPD3/Def2QZVP
 --------------------

 ----------
 butane_opt
 ----------
 Symbolic Z-matrix:
 Charge =  0 Multiplicity = 1

                         Standard orientation:
 ---------------------------------------------------------------------
 Center     Atomic      Atomic             Coordinates (Angstroms)
 Number     Number       Type             X           Y           Z
 ---------------------------------------------------------------------
      1          6           0       -2.031958   -0.137009   -0.170210
      2          6           0       -0.549623    0.638695    0.135056
      3          1           0       -2.525018    0.337807   -0.550014
      4          1           0       -2.473325   -0.735603    0.821618
      5          1           0       -1.835722   -0.835956   -0.939867
      6          6           0        0.516401   -0.526361    0.267250
      7          1           0       -0.704015    1.348896    1.028452
      8          1           0       -0.241719    0.994551   -0.676886
      9          6           0        1.993293    0.070655   -0.213929
     10          1           0        0.433230   -0.927711   -0.419126
     11          1           0        0.671813   -1.220815    1.225099
     12          1           0        1.876165    0.450613   -1.043070
     13          1           0        2.872039   -0.873293   -0.299721
     14          1           0        2.357873    1.185627    0.744515
 ---------------------------------------------------------------------

 SCF Done:  E(RB2PLYPD3) =  -157.741902276     A.U. after   11 cycles
 E2(B2PLYPD3) =    -0.2504551364D+00 E(B2PLYPD3) =    -0.15799235741218D+03

 The electronic state is 1-A.
 Alpha  occ. eigenvalues --  -10.64376 -10.61665 -10.59970 -10.58656  -0.91746
 Alpha  occ. eigenvalues --   -0.84138  -0.75168  -0.70198  -0.54742  -0.51462
 Alpha  occ. eigenvalues --   -0.47929  -0.45887  -0.42944  -0.41176  -0.40023
 Alpha  occ. eigenvalues --   -0.36611  -0.34340
 Alpha virt. eigenvalues --    0.04288   0.06121   0.08355   0.08841   0.10020
 Alpha virt. eigenvalues --    0.11073   0.12168   0.12844   0.13316   0.15942
 Alpha virt. eigenvalues --    0.16291   0.17133   0.18680   0.19093   0.20894

 Mulliken charges:
               1
     1  C   -0.348233
     2  C   -0.096494
     3  H    0.234063
     4  H    0.051366
     5  H    0.036533
     6  C   -0.351254
     7  H    0.051038
     8  H    0.112909
     9  C   -0.230181
    10  H    0.321682
    11  H    0.058253
    12  H    0.116094
    13  H    0.042111
    14  H    0.002113
 Sum of Mulliken charges =   0.00000

 Dipole moment (field-independent basis, Debye):
    X=             -0.5805    Y=             -0.2548    Z=             -0.7385  Tot=              0.9733
 Quadrupole moment (field-independent basis, Debye-Ang):
   XX=            -31.5114   YY=            -28.9829   ZZ=            -27.5685
   XY=             -1.4653   XZ=             -0.6242   YZ=             -0.1699

 Normal termination of Gaussian 09 at Wed Aug 26 20:38:00 2020.
