 Gaussian 09, Revision D.01,
 Gaussian 09:  ES64L-G09RevD.01 24-Apr-2013

 --------------------
 #p B2PLYPD3/Def2QZVP
 --------------------

 ----------
 butane_opt
 ----------
 Symbolic Z-matrix:
 Charge =  0 Multiplicity = 1

                         Standard orientation:
 ---------------------------------------------------------------------
 Center     Atomic      Atomic             Coordinates (Angstroms)
 Number     Number       Type             X           Y           Z
 ---------------------------------------------------------------------
      1          6           0        1.992933    0.149899   -0.066222
      2          6           0        0.574620   -0.575500    0.020029
      3          1           0        2.617995   -0.516618    0.148280
      4          1           0        2.183829    0.400446    0.618761
      5          1           0        2.270743    1.176795   -1.091045
      6          6           0       -0.636680    0.456526    0.122262
      7          1           0        0.470577   -1.209915    0.879480
      8          1           0        0.486619   -1.062053   -0.737916
      9          6           0       -1.978361   -0.072911   -0.086984
     10          1           0       -0.561034    0.903331   -0.590280
     11          1           0       -0.380003    1.288878    1.262190
     12          1           0       -2.026054   -0.684378   -1.021002
     13          1           0       -2.772235    0.674549   -0.153614
     14          1           0       -2.005507   -0.719123    0.750638
 ---------------------------------------------------------------------

 SCF Done:  E(RB2PLYPD3) =  -157.726503911     A.U. after   11 cycles
 E2(B2PLYPD3) =    -0.2485932354D+00 E(B2PLYPD3) =    -0.15797509714600D+03

 The electronic state is 1-A.
 Alpha  occ. eigenvalues --  -10.59952 -10.59534 -10.59453 -10.58261  -0.93319
 Alpha  occ. eigenvalues --   -0.88541  -0.77615  -0.69092  -0.55657  -0.49922
 Alpha  occ. eigenvalues --   -0.48533  -0.48272  -0.43907  -0.40251  -0.38964
 Alpha  occ. eigenvalues --   -0.37584  -0.35404
 Alpha virt. eigenvalues --    0.05115   0.06022   0.07265   0.08154   0.10737
 Alpha virt. eigenvalues --    0.11445   0.12410   0.13046   0.14896   0.15029
 Alpha virt. eigenvalues --    0.16253   0.16650   0.18691   0.19743   0.20968

 Mulliken charges:
               1
     1  C   -0.431177
     2  C   -0.043809
     3  H    0.051034
     4  H    0.290833
     5  H    0.041874
     6  C   -0.213431
     7  H    0.021545
     8  H    0.098207
     9  C   -0.143367
    10  H    0.195269
    11  H   -0.013956
    12  H    0.038268
    13  H    0.056509
    14  H    0.052202
 Sum of Mulliken charges =   0.00000

 Dipole moment (field-independent basis, Debye):
    X=              0.0683    Y=             -0.3687    Z=             -0.0716  Tot=              0.3817
 Quadrupole moment (field-independent basis, Debye-Ang):
   XX=            -28.9272   YY=            -29.0195   ZZ=            -27.9166
   XY=             -0.5760   XZ=              2.0005   YZ=             -0.8755

 Normal termination of Gaussian 09 at Wed Aug 26 15:06:47 2020.
