 Gaussian 09, Revision D.01,
 Gaussian 09:  ES64L-G09RevD.01 24-Apr-2013

 --------------------
 #p B2PLYPD3/Def2QZVP
 --------------------

 ----------
 butane_opt
 ----------
 Symbolic Z-matrix:
 Charge =  0 Multiplicity = 1

                         Standard orientation:
 ---------------------------------------------------------------------
 Center     Atomic      Atomic             Coordinates (Angstroms)
 Number     Number       Type             X           Y           Z
 ---------------------------------------------------------------------
      1          6           0        1.994022   -0.226889   -0.075281
      2          6           0        0.592668    0.585170    0.098856
      3          1           0        2.654371    0.401123   -0.280389
      4          1           0        2.024999   -1.336095   -0.884017
      5          1           0        2.563124   -0.361522    0.436172
      6          6           0       -0.591198   -0.341012    0.344017
      7          1           0        0.543533    1.123190   -0.951133
      8          1           0        0.386232    1.451811    0.868746
      9          6           0       -1.984757    0.038690   -0.256255
     10          1           0       -0.805945   -0.997248    1.533640
     11          1           0       -0.610201   -0.936648   -0.456397
     12          1           0       -2.463821    0.941541    0.510260
     13          1           0       -2.837776   -0.971241   -0.254538
     14          1           0       -1.518924    0.349333   -1.190363
 ---------------------------------------------------------------------

 SCF Done:  E(RB2PLYPD3) =  -157.753473922     A.U. after   11 cycles
 E2(B2PLYPD3) =    -0.2550100329D+00 E(B2PLYPD3) =    -0.15800848395511D+03

 The electronic state is 1-A.
 Alpha  occ. eigenvalues --  -10.65055 -10.64796 -10.62134 -10.58834  -0.92242
 Alpha  occ. eigenvalues --   -0.88255  -0.75872  -0.63449  -0.54158  -0.50355
 Alpha  occ. eigenvalues --   -0.47910  -0.44300  -0.42075  -0.39957  -0.38161
 Alpha  occ. eigenvalues --   -0.36590  -0.32943
 Alpha virt. eigenvalues --    0.04650   0.05389   0.06971   0.08054   0.09939
 Alpha virt. eigenvalues --    0.10821   0.11653   0.13302   0.13938   0.15283
 Alpha virt. eigenvalues --    0.15329   0.16335   0.17798   0.19264   0.20934

 Mulliken charges:
               1
     1  C   -0.353265
     2  C   -0.038641
     3  H    0.062654
     4  H    0.032929
     5  H    0.234195
     6  C   -0.097975
     7  H    0.028856
     8  H    0.039799
     9  C   -0.162954
    10  H    0.014612
    11  H    0.096632
    12  H    0.014878
    13  H    0.050056
    14  H    0.078220
 Sum of Mulliken charges =   0.00000

 Dipole moment (field-independent basis, Debye):
    X=              0.6790    Y=              0.1525    Z=             -0.1327  Tot=              0.7084
 Quadrupole moment (field-independent basis, Debye-Ang):
   XX=            -28.7127   YY=            -29.7124   ZZ=            -29.6048
   XY=              1.6157   XZ=             -0.1031   YZ=              0.7578

 Normal termination of Gaussian 09 at Wed Aug 26 12:51:40 2020.
