 Gaussian 09, Revision D.01,
 Gaussian 09:  ES64L-G09RevD.01 24-Apr-2013

 --------------------
 #p B2PLYPD3/Def2QZVP
 --------------------

 ----------
 butane_opt
 ----------
 Symbolic Z-matrix:
 Charge =  0 Multiplicity = 1

                         Standard orientation:
 ---------------------------------------------------------------------
 Center     Atomic      Atomic             Coordinates (Angstroms)
 Number     Number       Type             X           Y           Z
 ---------------------------------------------------------------------
      1          6           0       -1.939088    0.058585   -0.094321
      2          6           0       -0.590288   -0.396204    0.184754
      3          1           0       -2.782268   -0.785673   -0.250629
      4          1           0       -1.585952    0.577407   -0.974045
      5          1           0       -2.048364    0.730434    0.675833
      6          6           0        0.492631    0.528158   -0.009174
      7          1           0       -0.597374   -1.081122   -0.682170
      8          1           0       -0.472686   -1.093178    1.191008
      9          6           0        1.977415   -0.140459   -0.078497
     10          1           0        0.227784    1.576578    1.049083
     11          1           0        0.410360    0.854377   -0.850457
     12          1           0        2.467449   -0.759504    1.003001
     13          1           0        2.660260    0.472327   -0.179712
     14          1           0        2.076770   -0.792124   -0.998484
 ---------------------------------------------------------------------

 SCF Done:  E(RB2PLYPD3) =  -157.919155455     A.U. after   11 cycles
 E2(B2PLYPD3) =    -0.2516490707D+00 E(B2PLYPD3) =    -0.15817080452592D+03

 The electronic state is 1-A.
 Alpha  occ. eigenvalues --  -10.63622 -10.62350 -10.61015 -10.60116  -0.94757
 Alpha  occ. eigenvalues --   -0.84492  -0.74903  -0.65347  -0.56326  -0.51200
 Alpha  occ. eigenvalues --   -0.49038  -0.47543  -0.41690  -0.40318  -0.39723
 Alpha  occ. eigenvalues --   -0.37202  -0.33618
 Alpha virt. eigenvalues --    0.04860   0.05808   0.06406   0.08318   0.10118
 Alpha virt. eigenvalues --    0.11881   0.12226   0.12593   0.14434   0.15196
 Alpha virt. eigenvalues --    0.15610   0.16059   0.18678   0.19575   0.20484

 Mulliken charges:
               1
     1  C   -0.153121
     2  C   -0.039732
     3  H    0.059779
     4  H    0.053087
     5  H    0.054256
     6  C   -0.127371
     7  H    0.029702
     8  H    0.016078
     9  C   -0.154042
    10  H   -0.027254
    11  H    0.133058
    12  H    0.021623
    13  H    0.090902
    14  H    0.043034
 Sum of Mulliken charges =   0.00000

 Dipole moment (field-independent basis, Debye):
    X=              0.1633    Y=             -0.1908    Z=             -0.7877  Tot=              0.8268
 Quadrupole moment (field-independent basis, Debye-Ang):
   XX=            -29.0362   YY=            -30.8274   ZZ=            -28.5688
   XY=              1.1825   XZ=             -0.7792   YZ=              0.0185

 Normal termination of Gaussian 09 at Wed Aug 26 10:46:05 2020.
