 Gaussian 09, Revision D.01,
 Gaussian 09:  ES64L-G09RevD.01 24-Apr-2013

 --------------------
 #p B2PLYPD3/Def2QZVP
 --------------------

 ----------
 butane_opt
 ----------
 Symbolic Z-matrix:
 Charge =  0 Multiplicity = 1

                         Standard orientation:
 ---------------------------------------------------------------------
 Center     Atomic      Atomic             Coordinates (Angstroms)
 Number     Number       Type             X           Y           Z
 ---------------------------------------------------------------------
      1          6           0       -1.914899   -0.141491   -0.085919
      2          6           0       -0.544286    0.606225    0.018991
      3          1           0       -2.602665    0.420139   -0.202980
      4          1           0       -2.219032   -0.844911    0.905381
      5          1           0       -1.801494   -0.784084   -1.024536
      6          6           0        0.520232   -0.464433    0.140236
      7          1           0       -0.538289    1.524190    1.003514
      8          1           0       -0.229410    0.929405   -0.711948
      9          6           0        1.878250    0.087083   -0.065351
     10          1           0        0.561353   -1.076873   -0.638032
     11          1           0        0.532294   -1.512095    1.227362
     12          1           0        1.503501    0.612641   -0.909304
     13          1           0        2.810742   -0.725130   -0.546305
     14          1           0        2.347220    0.932418    0.849106
 ---------------------------------------------------------------------

 SCF Done:  E(RB2PLYPD3) =  -157.850882647     A.U. after   11 cycles
 E2(B2PLYPD3) =    -0.2533768204D+00 E(B2PLYPD3) =    -0.15810425946741D+03

 The electronic state is 1-A.
 Alpha  occ. eigenvalues --  -10.64423 -10.63510 -10.62270 -10.60845  -0.95036
 Alpha  occ. eigenvalues --   -0.84504  -0.74351  -0.65856  -0.54394  -0.51215
 Alpha  occ. eigenvalues --   -0.48798  -0.46367  -0.42204  -0.40936  -0.38018
 Alpha  occ. eigenvalues --   -0.37468  -0.33617
 Alpha virt. eigenvalues --    0.04512   0.06056   0.06774   0.07127   0.09903
 Alpha virt. eigenvalues --    0.10628   0.12256   0.12743   0.14477   0.14956
 Alpha virt. eigenvalues --    0.15683   0.16725   0.18431   0.18879   0.21068

 Mulliken charges:
               1
     1  C   -0.177166
     2  C   -0.183847
     3  H    0.097399
     4  H    0.053416
     5  H    0.036900
     6  C   -0.058284
     7  H    0.020807
     8  H    0.195803
     9  C   -0.173365
    10  H    0.097779
    11  H   -0.042056
    12  H    0.059302
    13  H    0.038352
    14  H    0.034961
 Sum of Mulliken charges =   0.00000

 Dipole moment (field-independent basis, Debye):
    X=             -0.4408    Y=              0.3980    Z=             -1.0314  Tot=              1.1902
 Quadrupole moment (field-independent basis, Debye-Ang):
   XX=            -30.1128   YY=            -30.1989   ZZ=            -29.2071
   XY=             -0.7435   XZ=             -0.6109   YZ=              1.0402

 Normal termination of Gaussian 09 at Wed Aug 26 23:38:11 2020.
