 Gaussian 09, Revision D.01,
 Gaussian 09:  ES64L-G09RevD.01 24-Apr-2013

 --------------------
 #p B2PLYPD3/Def2QZVP
 --------------------

 ----------
 butane_opt
 ----------
 Symbolic Z-matrix:
 Charge =  0 Multiplicity = 1

                         Standard orientation:
 ---------------------------------------------------------------------
 Center     Atomic      Atomic             Coordinates (Angstroms)
 Number     Number       Type             X           Y           Z
 ---------------------------------------------------------------------
      1          6           0       -1.965563    0.033232   -0.164999
      2          6           0       -0.676823   -0.432223    0.225817
      3          1           0       -2.953202   -0.948156   -0.513736
      4          1           0       -1.549829    0.352534   -1.011667
      5          1           0       -2.496687    1.194049    0.770202
      6          6           0        0.537148    0.588875    0.101745
      7          1           0       -0.577129   -0.819114   -0.361957
      8          1           0       -0.437023   -1.072096    1.397741
      9          6           0        2.020363   -0.190926   -0.110574
     10          1           0        0.504963    1.235068    0.788590
     11          1           0        0.409157    1.074922   -0.851119
     12          1           0        2.795122   -0.539534    0.757601
     13          1           0        2.720299    0.432324   -0.396455
     14          1           0        2.093579   -0.903741   -0.891127
 ---------------------------------------------------------------------

 SCF Done:  E(RB2PLYPD3) =  -157.670864775     A.U. after   12 cycles
 E2(B2PLYPD3) =    -0.2532978629D+00 E(B2PLYPD3) =    -0.15792416263825D+03

 The electronic state is 1-A.
 Alpha  occ. eigenvalues --  -10.66411 -10.61937 -10.60963 -10.59870  -0.96989
 Alpha  occ. eigenvalues --   -0.84420  -0.75265  -0.68982  -0.55474  -0.49850
 Alpha  occ. eigenvalues --   -0.47442  -0.47053  -0.44312  -0.40051  -0.39608
 Alpha  occ. eigenvalues --   -0.36386  -0.34100
 Alpha virt. eigenvalues --    0.02702   0.05859   0.07561   0.07887   0.09412
 Alpha virt. eigenvalues --    0.09910   0.12185   0.12708   0.14162   0.15063
 Alpha virt. eigenvalues --    0.15777   0.16444   0.17937   0.19192   0.20602

 Mulliken charges:
               1
     1  C   -0.169396
     2  C   -0.578161
     3  H    0.046467
     4  H    0.099605
     5  H   -0.002284
     6  C   -0.046248
     7  H    0.543342
     8  H    0.021055
     9  C   -0.153534
    10  H    0.087584
    11  H    0.032242
    12  H    0.025390
    13  H    0.052920
    14  H    0.041018
 Sum of Mulliken charges =   0.00000

 Dipole moment (field-independent basis, Debye):
    X=              0.8090    Y=              0.1137    Z=             -0.8541  Tot=              1.1819
 Quadrupole moment (field-independent basis, Debye-Ang):
   XX=            -30.1972   YY=            -29.8855   ZZ=            -28.7681
   XY=              1.3783   XZ=              0.4708   YZ=              1.2299

 Normal termination of Gaussian 09 at Wed Aug 26 13:50:15 2020.
