 Gaussian 09, Revision D.01,
 Gaussian 09:  ES64L-G09RevD.01 24-Apr-2013

 --------------------
 #p B2PLYPD3/Def2QZVP
 --------------------

 ----------
 butane_opt
 ----------
 Symbolic Z-matrix:
 Charge =  0 Multiplicity = 1

                         Standard orientation:
 ---------------------------------------------------------------------
 Center     Atomic      Atomic             Coordinates (Angstroms)
 Number     Number       Type             X           Y           Z
 ---------------------------------------------------------------------
      1          6           0       -1.943108   -0.180125    0.012663
      2          6           0       -0.519828    0.620498    0.068462
      3          1           0       -2.710239    0.619553   -0.648783
      4          1           0       -2.616527   -1.247574    1.285797
      5          1           0       -2.067722   -0.299990   -0.553766
      6          6           0        0.625151   -0.530279   -0.107732
      7          1           0       -0.536977    0.944952    0.727505
      8          1           0       -0.305758    1.590255   -0.915714
      9          6           0        1.924365    0.075806    0.056353
     10          1           0        0.454172   -1.168371   -1.079415
     11          1           0        0.454238   -0.998246    0.454290
     12          1           0        2.045981    0.452920   -0.584932
     13          1           0        2.745448   -0.812285   -0.174032
     14          1           0        2.017907    1.003387    1.310581
 ---------------------------------------------------------------------

 SCF Done:  E(RB2PLYPD3) =  -156.842914908     A.U. after   13 cycles
 E2(B2PLYPD3) =    -0.2585157455D+00 E(B2PLYPD3) =    -0.15710143065370D+03

 The electronic state is 1-A.
 Alpha  occ. eigenvalues --  -10.64402 -10.62352 -10.61468 -10.58496  -0.95226
 Alpha  occ. eigenvalues --   -0.90516  -0.81571  -0.75787  -0.54579  -0.50972
 Alpha  occ. eigenvalues --   -0.47867  -0.45640  -0.43731  -0.39917  -0.37595
 Alpha  occ. eigenvalues --   -0.36355  -0.32770
 Alpha virt. eigenvalues --   -0.01401   0.03521   0.04406   0.07178   0.08664
 Alpha virt. eigenvalues --    0.10486   0.11622   0.12623   0.13786   0.15169
 Alpha virt. eigenvalues --    0.15997   0.16398   0.18113   0.18725   0.19824

 Mulliken charges:
               1
     1  C   -0.858941
     2  C   -0.349957
     3  H    0.016647
     4  H    0.057394
     5  H    0.714100
     6  C   -0.337315
     7  H    0.368488
     8  H    0.016532
     9  C   -0.404322
    10  H    0.039117
    11  H    0.360534
    12  H    0.323315
    13  H    0.034685
    14  H    0.019723
 Sum of Mulliken charges =   0.00000

 Dipole moment (field-independent basis, Debye):
    X=              0.2032    Y=             -0.4104    Z=             -0.5890  Tot=              0.7461
 Quadrupole moment (field-independent basis, Debye-Ang):
   XX=            -32.3280   YY=            -28.9491   ZZ=            -27.4751
   XY=              0.8395   XZ=             -0.4982   YZ=             -0.4027

 Normal termination of Gaussian 09 at Wed Aug 26 14:08:59 2020.
