 Gaussian 09, Revision D.01,
 Gaussian 09:  ES64L-G09RevD.01 24-Apr-2013

 --------------------
 #p B2PLYPD3/Def2QZVP
 --------------------

 ----------
 butane_opt
 ----------
 Symbolic Z-matrix:
 Charge =  0 Multiplicity = 1

                         Standard orientation:
 ---------------------------------------------------------------------
 Center     Atomic      Atomic             Coordinates (Angstroms)
 Number     Number       Type             X           Y           Z
 ---------------------------------------------------------------------
      1          6           0       -1.992581   -0.183587   -0.139483
      2          6           0       -0.530411    0.627404    0.118404
      3          1           0       -2.653965    0.372154   -0.594556
      4          1           0       -2.551595   -0.763862    0.811996
      5          1           0       -1.983882   -0.533913   -0.774761
      6          6           0        0.549814   -0.518144    0.147768
      7          1           0       -0.672255    1.572030    1.204986
      8          1           0       -0.337974    1.001676   -0.686319
      9          6           0        1.992853    0.061953   -0.225975
     10          1           0        0.413876   -1.074063   -0.521110
     11          1           0        0.542694   -1.283457    1.241978
     12          1           0        2.058389    0.479352   -0.948933
     13          1           0        2.856091   -0.578285    0.073188
     14          1           0        2.210573    0.882611    0.789246
 ---------------------------------------------------------------------

 SCF Done:  E(RB2PLYPD3) =  -157.641641480     A.U. after   11 cycles
 E2(B2PLYPD3) =    -0.2507046782D+00 E(B2PLYPD3) =    -0.15789234615860D+03

 The electronic state is 1-A.
 Alpha  occ. eigenvalues --  -10.63854 -10.61869 -10.60133 -10.57261  -0.92049
 Alpha  occ. eigenvalues --   -0.86835  -0.77896  -0.70099  -0.54209  -0.51618
 Alpha  occ. eigenvalues --   -0.48728  -0.46864  -0.43077  -0.38852  -0.38599
 Alpha  occ. eigenvalues --   -0.36423  -0.36005
 Alpha virt. eigenvalues --    0.04508   0.06423   0.07579   0.08305   0.10799
 Alpha virt. eigenvalues --    0.11453   0.12029   0.12585   0.14636   0.15482
 Alpha virt. eigenvalues --    0.16525   0.16653   0.18910   0.19384   0.21402

 Mulliken charges:
               1
     1  C   -0.475023
     2  C   -0.137945
     3  H    0.039181
     4  H    0.063871
     5  H    0.338101
     6  C   -0.114117
     7  H    0.030790
     8  H    0.146432
     9  C   -0.283629
    10  H    0.146050
    11  H    0.010426
    12  H    0.163373
    13  H    0.062516
    14  H    0.009973
 Sum of Mulliken charges =   0.00000

 Dipole moment (field-independent basis, Debye):
    X=             -0.1680    Y=             -0.2352    Z=             -1.0129  Tot=              1.0533
 Quadrupole moment (field-independent basis, Debye-Ang):
   XX=            -29.2184   YY=            -29.7380   ZZ=            -27.2843
   XY=             -0.2846   XZ=              0.3319   YZ=             -0.3734

 Normal termination of Gaussian 09 at Wed Aug 26 23:51:32 2020.
