 Gaussian 09, Revision D.01,
 Gaussian 09:  ES64L-G09RevD.01 24-Apr-2013

 --------------------
 #p B2PLYPD3/Def2QZVP
 --------------------

 ----------
 butane_opt
 ----------
 Symbolic Z-matrix:
 Charge =  0 Multiplicity = 1

                         Standard orientation:
 ---------------------------------------------------------------------
 Center     Atomic      Atomic             Coordinates (Angstroms)
 Number     Number       Type             X           Y           Z
 ---------------------------------------------------------------------
      1          6           0        2.099549   -0.114146    0.151243
      2          6           0        0.522954    0.549404   -0.153749
      3          1           0        2.816996    0.511485   -0.191677
      4          1           0        2.219482   -0.511830   -0.559361
      5          1           0        2.254572   -0.925643    1.225427
      6          6           0       -0.647156   -0.472537   -0.067946
      7          1           0        0.362443    1.415470   -1.313087
      8          1           0        0.367008    0.752298    0.356138
      9          6           0       -1.941377    0.049834    0.102480
     10          1           0       -0.378655   -0.867174    0.606686
     11          1           0       -0.561775   -1.358324   -0.948692
     12          1           0       -2.339843    1.564424    1.277705
     13          1           0       -2.864630   -0.837422   -0.274374
     14          1           0       -2.079419    0.181387   -0.370928
 ---------------------------------------------------------------------

 SCF Done:  E(RB2PLYPD3) =  -156.205802955     A.U. after   13 cycles
 E2(B2PLYPD3) =    -0.2599346085D+00 E(B2PLYPD3) =    -0.15646573756397D+03

 The electronic state is 1-A.
 Alpha  occ. eigenvalues --  -10.66961 -10.63042 -10.60571 -10.60174  -0.98843
 Alpha  occ. eigenvalues --   -0.90953  -0.83471  -0.75474  -0.53938  -0.52670
 Alpha  occ. eigenvalues --   -0.46551  -0.46025  -0.44448  -0.43038  -0.37899
 Alpha  occ. eigenvalues --   -0.35598  -0.33369
 Alpha virt. eigenvalues --   -0.03324   0.03907   0.05224   0.06610   0.09909
 Alpha virt. eigenvalues --    0.10123   0.11580   0.13054   0.13718   0.15052
 Alpha virt. eigenvalues --    0.15816   0.16143   0.17508   0.18291   0.20787

 Mulliken charges:
               1
     1  C   -0.311975
     2  C   -0.911867
     3  H    0.058451
     4  H    0.218984
     5  H    0.059630
     6  C   -0.050932
     7  H    0.021792
     8  H    0.808885
     9  C   -0.913284
    10  H    0.211887
    11  H    0.018577
    12  H    0.003372
    13  H    0.048365
    14  H    0.738115
 Sum of Mulliken charges =   0.00000

 Dipole moment (field-independent basis, Debye):
    X=              0.6302    Y=             -0.6310    Z=             -0.7720  Tot=              1.1795
 Quadrupole moment (field-independent basis, Debye-Ang):
   XX=            -29.6092   YY=            -29.1955   ZZ=            -28.1902
   XY=             -0.3508   XZ=              1.1811   YZ=             -0.0425

 Normal termination of Gaussian 09 at Wed Aug 26 10:15:20 2020.
