 Gaussian 09, Revision D.01,
 Gaussian 09:  ES64L-G09RevD.01 24-Apr-2013

 --------------------
 #p B2PLYPD3/Def2QZVP
 --------------------

 ----------
 butane_opt
 ----------
 Symbolic Z-matrix:
 Charge =  0 Multiplicity = 1

                         Standard orientation:
 ---------------------------------------------------------------------
 Center     Atomic      Atomic             Coordinates (Angstroms)
 Number     Number       Type             X           Y           Z
 ---------------------------------------------------------------------
      1          6           0       -2.034133   -0.131512   -0.088747
      2          6           0       -0.534240    0.638669    0.033320
      3          1           0       -2.706445    0.289580   -0.318674
      4          1           0       -2.461424   -0.596926    0.880920
      5          1           0       -2.081124   -1.262987   -1.095064
      6          6           0        0.688467   -0.424644    0.307715
      7          1           0       -0.582936    1.294639    0.725484
      8          1           0       -0.336585    0.989412   -0.924355
      9          6           0        1.929348    0.043233   -0.129742
     10          1           0        0.528339   -0.797968   -0.359485
     11          1           0        0.534433   -1.079732    1.462956
     12          1           0        1.626650    0.322827   -0.928044
     13          1           0        2.740142   -0.902020   -0.846077
     14          1           0        2.442302    0.988697    0.667064
 ---------------------------------------------------------------------

 SCF Done:  E(RB2PLYPD3) =  -157.663631452     A.U. after   11 cycles
 E2(B2PLYPD3) =    -0.2528061145D+00 E(B2PLYPD3) =    -0.15791643756607D+03

 The electronic state is 1-A.
 Alpha  occ. eigenvalues --  -10.63091 -10.62898 -10.62134 -10.59802  -0.96657
 Alpha  occ. eigenvalues --   -0.84971  -0.75911  -0.69064  -0.57000  -0.50742
 Alpha  occ. eigenvalues --   -0.48934  -0.45987  -0.43222  -0.40011  -0.39579
 Alpha  occ. eigenvalues --   -0.36968  -0.33357
 Alpha virt. eigenvalues --    0.03583   0.04621   0.07365   0.08385   0.09776
 Alpha virt. eigenvalues --    0.10549   0.11273   0.12865   0.13678   0.14631
 Alpha virt. eigenvalues --    0.15194   0.17559   0.17833   0.18889   0.20723

 Mulliken charges:
               1
     1  C   -0.288937
     2  C   -0.052991
     3  H    0.195111
     4  H    0.042845
     5  H   -0.018357
     6  C   -0.426829
     7  H    0.074881
     8  H    0.059390
     9  C   -0.223474
    10  H    0.412700
    11  H    0.028687
    12  H    0.145948
    13  H    0.015656
    14  H    0.035371
 Sum of Mulliken charges =   0.00000

 Dipole moment (field-independent basis, Debye):
    X=             -0.5856    Y=              0.8134    Z=             -0.2226  Tot=              1.0267
 Quadrupole moment (field-independent basis, Debye-Ang):
   XX=            -31.1940   YY=            -30.0325   ZZ=            -28.1204
   XY=             -0.6865   XZ=             -1.3449   YZ=              0.6087

 Normal termination of Gaussian 09 at Wed Aug 26 10:34:10 2020.
