 Gaussian 09, Revision D.01,
 Gaussian 09:  ES64L-G09RevD.01 24-Apr-2013

 --------------------
 #p B2PLYPD3/Def2QZVP
 --------------------

 ----------
 butane_opt
 ----------
 Symbolic Z-matrix:
 Charge =  0 Multiplicity = 1

                         Standard orientation:
 ---------------------------------------------------------------------
 Center     Atomic      Atomic             Coordinates (Angstroms)
 Number     Number       Type             X           Y           Z
 ---------------------------------------------------------------------
      1          6           0       -1.906371   -0.150817   -0.024355
      2          6           0       -0.532322    0.464636    0.105343
      3          1           0       -2.745750    0.632956   -0.383415
      4          1           0       -2.465133   -1.142407    1.023001
      5          1           0       -1.974525   -0.448251   -0.759623
      6          6           0        0.586547   -0.443079   -0.058327
      7          1           0       -0.396045    1.001213    1.067245
      8          1           0       -0.334895    1.443840   -0.879260
      9          6           0        1.885775    0.097732    0.024901
     10          1           0        0.728352   -1.031054   -1.143137
     11          1           0        0.480666   -0.927873    0.613838
     12          1           0        1.594057    0.819238   -0.710078
     13          1           0        2.845962   -0.835945   -0.104962
     14          1           0        2.065539    0.677455    0.991014
 ---------------------------------------------------------------------

 SCF Done:  E(RB2PLYPD3) =  -157.751402094     A.U. after   11 cycles
 E2(B2PLYPD3) =    -0.2537051572D+00 E(B2PLYPD3) =    -0.15800510725086D+03

 The electronic state is 1-A.
 Alpha  occ. eigenvalues --  -10.64603 -10.62411 -10.61750 -10.58256  -0.96325
 Alpha  occ. eigenvalues --   -0.86910  -0.74735  -0.67445  -0.57376  -0.51268
 Alpha  occ. eigenvalues --   -0.49028  -0.45328  -0.41888  -0.39856  -0.38533
 Alpha  occ. eigenvalues --   -0.36452  -0.34978
 Alpha virt. eigenvalues --    0.03545   0.04687   0.06199   0.07486   0.09809
 Alpha virt. eigenvalues --    0.10795   0.12155   0.12294   0.14383   0.15129
 Alpha virt. eigenvalues --    0.15483   0.16223   0.19228   0.19315   0.19574

 Mulliken charges:
               1
     1  C   -0.371481
     2  C   -0.004081
     3  H    0.038779
     4  H    0.026987
     5  H    0.266991
     6  C   -0.165326
     7  H    0.056959
     8  H   -0.031994
     9  C   -0.155442
    10  H    0.025576
    11  H    0.180852
    12  H    0.060637
    13  H    0.042547
    14  H    0.028998
 Sum of Mulliken charges =   0.00000

 Dipole moment (field-independent basis, Debye):
    X=             -0.1809    Y=             -0.2806    Z=              0.0158  Tot=              0.3343
 Quadrupole moment (field-independent basis, Debye-Ang):
   XX=            -31.1837   YY=            -30.2638   ZZ=            -28.4728
   XY=             -0.8409   XZ=              1.3616   YZ=             -0.0976

 Normal termination of Gaussian 09 at Wed Aug 26 15:52:37 2020.
