 Gaussian 09, Revision D.01,
 Gaussian 09:  ES64L-G09RevD.01 24-Apr-2013

 --------------------
 #p B2PLYPD3/Def2QZVP
 --------------------

 ----------
 butane_opt
 ----------
 Symbolic Z-matrix:
 Charge =  0 Multiplicity = 1

                         Standard orientation:
 ---------------------------------------------------------------------
 Center     Atomic      Atomic             Coordinates (Angstroms)
 Number     Number       Type             X           Y           Z
 ---------------------------------------------------------------------
      1          6           0        1.931694   -0.076021   -0.055945
      2          6           0        0.658862    0.547972    0.081632
      3          1           0        2.753789    0.621346   -0.234833
      4          1           0        2.145913   -0.895760   -0.924436
      5          1           0        2.043922   -0.548080    0.764783
      6          6           0       -0.529081   -0.623524    0.211791
      7          1           0        0.388946    1.267130   -0.809148
      8          1           0        0.586322    1.013127    0.738831
      9          6           0       -2.045513    0.117802   -0.125844
     10          1           0       -0.656994   -1.312821    1.092328
     11          1           0       -0.107243   -1.070020   -0.592339
     12          1           0       -2.777110    1.234650    1.027466
     13          1           0       -2.763645   -0.658908   -0.899391
     14          1           0       -1.709669    0.551957   -0.833065
 ---------------------------------------------------------------------

 SCF Done:  E(RB2PLYPD3) =  -157.774601651     A.U. after   12 cycles
 E2(B2PLYPD3) =    -0.2544105659D+00 E(B2PLYPD3) =    -0.15802901221641D+03

 The electronic state is 1-A.
 Alpha  occ. eigenvalues --  -10.65645 -10.62766 -10.59505 -10.59229  -0.93041
 Alpha  occ. eigenvalues --   -0.83035  -0.73798  -0.70416  -0.55864  -0.51943
 Alpha  occ. eigenvalues --   -0.47543  -0.44593  -0.42333  -0.40464  -0.39196
 Alpha  occ. eigenvalues --   -0.35710  -0.34169
 Alpha virt. eigenvalues --   -0.00052   0.05614   0.07939   0.08103   0.09506
 Alpha virt. eigenvalues --    0.10944   0.11653   0.13033   0.14303   0.15033
 Alpha virt. eigenvalues --    0.15648   0.16710   0.17945   0.18953   0.19403

 Mulliken charges:
               1
     1  C   -0.124964
     2  C   -0.211275
     3  H    0.041311
     4  H    0.014971
     5  H    0.081617
     6  C   -0.102228
     7  H    0.016730
     8  H    0.206187
     9  C   -0.295639
    10  H    0.053736
    11  H    0.087056
    12  H    0.022819
    13  H    0.032854
    14  H    0.176828
 Sum of Mulliken charges =   0.00000

 Dipole moment (field-independent basis, Debye):
    X=              1.0356    Y=              0.0756    Z=             -0.2423  Tot=              1.0663
 Quadrupole moment (field-independent basis, Debye-Ang):
   XX=            -31.8193   YY=            -29.1104   ZZ=            -28.1548
   XY=              0.1054   XZ=              0.6815   YZ=              0.3333

 Normal termination of Gaussian 09 at Wed Aug 26 12:33:41 2020.
