 Gaussian 09, Revision D.01,
 Gaussian 09:  ES64L-G09RevD.01 24-Apr-2013

 --------------------
 #p B2PLYPD3/Def2QZVP
 --------------------

 ----------
 butane_opt
 ----------
 Symbolic Z-matrix:
 Charge =  0 Multiplicity = 1

                         Standard orientation:
 ---------------------------------------------------------------------
 Center     Atomic      Atomic             Coordinates (Angstroms)
 Number     Number       Type             X           Y           Z
 ---------------------------------------------------------------------
      1          6           0       -1.953996   -0.135377   -0.084554
      2          6           0       -0.495527    0.555456    0.039643
      3          1           0       -2.684228    0.630271   -0.092916
      4          1           0       -2.164385   -0.585965    0.730599
      5          1           0       -2.037716   -0.952884   -1.072247
      6          6           0        0.585485   -0.491712    0.185845
      7          1           0       -0.444406    1.404850    0.983145
      8          1           0       -0.291706    1.032517   -0.730253
      9          6           0        1.892581    0.097871   -0.144825
     10          1           0        0.439330   -1.038005   -0.523613
     11          1           0        0.332782   -1.305636    1.283238
     12          1           0        1.609341    0.510722   -0.939427
     13          1           0        2.682021   -0.659362   -0.390219
     14          1           0        2.387704    0.806062    0.775033
 ---------------------------------------------------------------------

 SCF Done:  E(RB2PLYPD3) =  -157.942164319     A.U. after   11 cycles
 E2(B2PLYPD3) =    -0.2486253006D+00 E(B2PLYPD3) =    -0.15819078961934D+03

 The electronic state is 1-A.
 Alpha  occ. eigenvalues --  -10.61190 -10.60717 -10.60612 -10.60379  -0.93992
 Alpha  occ. eigenvalues --   -0.83826  -0.74082  -0.68191  -0.54352  -0.51134
 Alpha  occ. eigenvalues --   -0.48765  -0.46358  -0.44249  -0.40406  -0.38299
 Alpha  occ. eigenvalues --   -0.37610  -0.36543
 Alpha virt. eigenvalues --    0.05329   0.06621   0.07729   0.07994   0.10818
 Alpha virt. eigenvalues --    0.11416   0.12687   0.13794   0.14341   0.15458
 Alpha virt. eigenvalues --    0.16070   0.16274   0.18645   0.19502   0.21331

 Mulliken charges:
               1
     1  C   -0.152278
     2  C   -0.081484
     3  H    0.046626
     4  H    0.075486
     5  H    0.019976
     6  C   -0.116469
     7  H    0.002237
     8  H    0.091267
     9  C   -0.171647
    10  H    0.126437
    11  H   -0.010797
    12  H    0.097638
    13  H    0.040044
    14  H    0.032962
 Sum of Mulliken charges =   0.00000

 Dipole moment (field-independent basis, Debye):
    X=             -0.0841    Y=              0.0458    Z=             -0.5398  Tot=              0.5483
 Quadrupole moment (field-independent basis, Debye-Ang):
   XX=            -29.6167   YY=            -29.4733   ZZ=            -28.4739
   XY=             -0.3851   XZ=             -0.9374   YZ=              0.5025

 Normal termination of Gaussian 09 at Wed Aug 26 22:42:00 2020.
