 Gaussian 09, Revision D.01,
 Gaussian 09:  ES64L-G09RevD.01 24-Apr-2013

 --------------------
 #p B2PLYPD3/Def2QZVP
 --------------------

 ----------
 butane_opt
 ----------
 Symbolic Z-matrix:
 Charge =  0 Multiplicity = 1

                         Standard orientation:
 ---------------------------------------------------------------------
 Center     Atomic      Atomic             Coordinates (Angstroms)
 Number     Number       Type             X           Y           Z
 ---------------------------------------------------------------------
      1          6           0        1.904676   -0.091708   -0.114816
      2          6           0        0.515512    0.439076    0.119408
      3          1           0        2.823024    0.808360   -0.470369
      4          1           0        1.759803   -0.898435   -1.012996
      5          1           0        2.025930   -0.667598    0.828461
      6          6           0       -0.492735   -0.473020    0.268063
      7          1           0        0.257101    1.068975   -0.683335
      8          1           0        0.778069    1.079665    1.026974
      9          6           0       -1.942392    0.083157   -0.168166
     10          1           0       -0.634707   -0.981390    0.996315
     11          1           0       -0.097386   -1.102563   -0.444837
     12          1           0       -2.615688    0.933815    0.888667
     13          1           0       -2.594328   -0.542088   -0.679148
     14          1           0       -1.612183    0.556226   -1.076667
 ---------------------------------------------------------------------

 SCF Done:  E(RB2PLYPD3) =  -157.927574025     A.U. after   11 cycles
 E2(B2PLYPD3) =    -0.2521838665D+00 E(B2PLYPD3) =    -0.15817975789154D+03

 The electronic state is 1-A.
 Alpha  occ. eigenvalues --  -10.63886 -10.63418 -10.59546 -10.57871  -0.95618
 Alpha  occ. eigenvalues --   -0.82570  -0.73676  -0.67673  -0.57759  -0.51353
 Alpha  occ. eigenvalues --   -0.49594  -0.44034  -0.41314  -0.40479  -0.39487
 Alpha  occ. eigenvalues --   -0.36948  -0.34978
 Alpha virt. eigenvalues --    0.04466   0.05258   0.08173   0.08502   0.10040
 Alpha virt. eigenvalues --    0.10859   0.11615   0.12645   0.13772   0.15512
 Alpha virt. eigenvalues --    0.15962   0.16956   0.18485   0.19699   0.21482

 Mulliken charges:
               1
     1  C   -0.173239
     2  C    0.010039
     3  H    0.050290
     4  H    0.012598
     5  H    0.070237
     6  C   -0.076676
     7  H    0.047171
     8  H    0.008978
     9  C   -0.177590
    10  H    0.070598
    11  H    0.023190
    12  H    0.029550
    13  H    0.062341
    14  H    0.042514
 Sum of Mulliken charges =   0.00000

 Dipole moment (field-independent basis, Debye):
    X=              0.0765    Y=             -0.3423    Z=             -0.2222  Tot=              0.4152
 Quadrupole moment (field-independent basis, Debye-Ang):
   XX=            -31.1478   YY=            -30.0329   ZZ=            -28.1144
   XY=              1.3110   XZ=              0.5180   YZ=             -0.2848

 Normal termination of Gaussian 09 at Wed Aug 26 19:18:27 2020.
