 Gaussian 09, Revision D.01,
 Gaussian 09:  ES64L-G09RevD.01 24-Apr-2013

 --------------------
 #p B2PLYPD3/Def2QZVP
 --------------------

 ----------
 butane_opt
 ----------
 Symbolic Z-matrix:
 Charge =  0 Multiplicity = 1

                         Standard orientation:
 ---------------------------------------------------------------------
 Center     Atomic      Atomic             Coordinates (Angstroms)
 Number     Number       Type             X           Y           Z
 ---------------------------------------------------------------------
      1          6           0       -1.945335   -0.209275    0.180800
      2          6           0       -0.449446    0.601537   -0.257097
      3          1           0       -2.675039    0.453477    0.765876
      4          1           0       -1.431772   -0.771359    0.968343
      5          1           0       -2.716357   -0.756604   -0.809503
      6          6           0        0.545788   -0.421665   -0.166825
      7          1           0       -0.089377    1.253239    0.635530
      8          1           0       -0.708207    1.503170   -1.157490
      9          6           0        1.891949    0.003701    0.132565
     10          1           0        0.681040   -1.050293   -1.090472
     11          1           0        0.247788   -1.105515    0.555773
     12          1           0        1.886194    0.496659   -0.447383
     13          1           0        2.595885   -0.708036   -0.070198
     14          1           0        1.952103    0.839478    1.312865
 ---------------------------------------------------------------------

 SCF Done:  E(RB2PLYPD3) =  -157.806455280     A.U. after   11 cycles
 E2(B2PLYPD3) =    -0.2540332810D+00 E(B2PLYPD3) =    -0.15806048856066D+03

 The electronic state is 1-A.
 Alpha  occ. eigenvalues --  -10.64625 -10.64541 -10.60014 -10.58159  -0.95848
 Alpha  occ. eigenvalues --   -0.83320  -0.72957  -0.66673  -0.54311  -0.53259
 Alpha  occ. eigenvalues --   -0.49255  -0.44100  -0.42517  -0.40015  -0.38281
 Alpha  occ. eigenvalues --   -0.36404  -0.34633
 Alpha virt. eigenvalues --    0.04955   0.05829   0.07274   0.07423   0.10085
 Alpha virt. eigenvalues --    0.11008   0.11832   0.13214   0.13855   0.14727
 Alpha virt. eigenvalues --    0.16115   0.16447   0.16980   0.19755   0.20782

 Mulliken charges:
               1
     1  C   -0.195707
     2  C   -0.098144
     3  H    0.045476
     4  H    0.071884
     5  H    0.049491
     6  C    0.022590
     7  H    0.045674
     8  H    0.040362
     9  C   -0.464360
    10  H    0.007540
    11  H    0.048737
    12  H    0.363702
    13  H    0.063844
    14  H   -0.001089
 Sum of Mulliken charges =   0.00000

 Dipole moment (field-independent basis, Debye):
    X=              0.1374    Y=             -0.1754    Z=             -0.2726  Tot=              0.3521
 Quadrupole moment (field-independent basis, Debye-Ang):
   XX=            -30.0946   YY=            -29.5551   ZZ=            -28.9870
   XY=             -1.1832   XZ=             -0.8716   YZ=              0.1519

 Normal termination of Gaussian 09 at Wed Aug 26 22:55:57 2020.
