 Gaussian 09, Revision D.01,
 Gaussian 09:  ES64L-G09RevD.01 24-Apr-2013

 --------------------
 #p B2PLYPD3/Def2QZVP
 --------------------

 ----------
 butane_opt
 ----------
 Symbolic Z-matrix:
 Charge =  0 Multiplicity = 1

                         Standard orientation:
 ---------------------------------------------------------------------
 Center     Atomic      Atomic             Coordinates (Angstroms)
 Number     Number       Type             X           Y           Z
 ---------------------------------------------------------------------
      1          6           0       -2.056822    0.130843    0.061121
      2          6           0       -0.598416   -0.489426   -0.161676
      3          1           0       -2.769393   -0.713434    0.352908
      4          1           0       -2.255913    0.977615   -0.865158
      5          1           0       -2.123480    0.337190    0.804509
      6          6           0        0.560328    0.510581   -0.027055
      7          1           0       -0.447354   -0.954608   -1.036726
      8          1           0       -0.329752   -1.146917    0.724817
      9          6           0        1.984563   -0.108586    0.044698
     10          1           0        0.490946    1.158570    1.019654
     11          1           0        0.672476    0.939933   -0.620068
     12          1           0        2.256907   -0.952790    0.894318
     13          1           0        2.777929    0.770648   -0.010276
     14          1           0        2.389716   -0.676678   -0.766509
 ---------------------------------------------------------------------

 SCF Done:  E(RB2PLYPD3) =  -157.756961414     A.U. after   11 cycles
 E2(B2PLYPD3) =    -0.2484767387D+00 E(B2PLYPD3) =    -0.15800543815259D+03

 The electronic state is 1-A.
 Alpha  occ. eigenvalues --  -10.61961 -10.60616 -10.59553 -10.58757  -0.92475
 Alpha  occ. eigenvalues --   -0.85742  -0.75260  -0.70337  -0.55911  -0.50305
 Alpha  occ. eigenvalues --   -0.47554  -0.46215  -0.42870  -0.41579  -0.38824
 Alpha  occ. eigenvalues --   -0.37091  -0.36296
 Alpha virt. eigenvalues --    0.05255   0.06236   0.08701   0.08724   0.10421
 Alpha virt. eigenvalues --    0.11411   0.12302   0.13632   0.14182   0.14575
 Alpha virt. eigenvalues --    0.15807   0.16905   0.19146   0.19729   0.21066

 Mulliken charges:
               1
     1  C   -0.386751
     2  C   -0.021847
     3  H    0.031576
     4  H    0.060518
     5  H    0.267194
     6  C   -0.392277
     7  H    0.071010
     8  H    0.023912
     9  C   -0.120747
    10  H    0.033742
    11  H    0.351671
    12  H    0.022586
    13  H    0.032041
    14  H    0.027371
 Sum of Mulliken charges =   0.00000

 Dipole moment (field-independent basis, Debye):
    X=              0.0091    Y=              0.0700    Z=             -0.1525  Tot=              0.1681
 Quadrupole moment (field-independent basis, Debye-Ang):
   XX=            -29.9506   YY=            -29.0314   ZZ=            -27.8113
   XY=             -0.1337   XZ=             -1.7749   YZ=             -0.8476

 Normal termination of Gaussian 09 at Wed Aug 26 12:41:26 2020.
