 Gaussian 09, Revision D.01,
 Gaussian 09:  ES64L-G09RevD.01 24-Apr-2013

 --------------------
 #p B2PLYPD3/Def2QZVP
 --------------------

 ----------
 butane_opt
 ----------
 Symbolic Z-matrix:
 Charge =  0 Multiplicity = 1

                         Standard orientation:
 ---------------------------------------------------------------------
 Center     Atomic      Atomic             Coordinates (Angstroms)
 Number     Number       Type             X           Y           Z
 ---------------------------------------------------------------------
      1          6           0       -1.982172   -0.151893    0.071298
      2          6           0       -0.577475    0.555342   -0.088445
      3          1           0       -2.799469    0.638294   -0.200081
      4          1           0       -2.189463   -0.779185    1.031465
      5          1           0       -2.155254   -0.676348   -0.716311
      6          6           0        0.561792   -0.497323   -0.029895
      7          1           0       -0.420370    1.086135    0.678958
      8          1           0       -0.430603    1.223369   -0.975783
      9          6           0        2.004645    0.119778    0.027150
     10          1           0        0.585054   -1.121618   -0.788173
     11          1           0        0.416591   -1.205194    0.899056
     12          1           0        1.911579    0.260159   -0.518707
     13          1           0        2.766819   -0.674127   -0.403876
     14          1           0        2.274372    1.093087    1.112805
 ---------------------------------------------------------------------

 SCF Done:  E(RB2PLYPD3) =  -157.403733997     A.U. after   12 cycles
 E2(B2PLYPD3) =    -0.2502382844D+00 E(B2PLYPD3) =    -0.15765397228164D+03

 The electronic state is 1-A.
 Alpha  occ. eigenvalues --  -10.61248 -10.60667 -10.60495 -10.60072  -0.94723
 Alpha  occ. eigenvalues --   -0.86883  -0.75867  -0.69123  -0.54033  -0.49006
 Alpha  occ. eigenvalues --   -0.48320  -0.46321  -0.43480  -0.41702  -0.39068
 Alpha  occ. eigenvalues --   -0.36936  -0.36449
 Alpha virt. eigenvalues --    0.04632   0.06225   0.07546   0.08147   0.10654
 Alpha virt. eigenvalues --    0.11331   0.12432   0.12841   0.14446   0.15651
 Alpha virt. eigenvalues --    0.16252   0.16322   0.18345   0.19618   0.21136

 Mulliken charges:
               1
     1  C   -0.158799
     2  C   -0.074573
     3  H    0.021781
     4  H    0.057692
     5  H    0.061879
     6  C    0.015082
     7  H    0.085116
     8  H    0.020796
     9  C   -0.977855
    10  H    0.048261
    11  H    0.011466
    12  H    0.755998
    13  H    0.074744
    14  H    0.058413
 Sum of Mulliken charges =   0.00000

 Dipole moment (field-independent basis, Debye):
    X=             -0.2667    Y=              0.0138    Z=             -0.5462  Tot=              0.6080
 Quadrupole moment (field-independent basis, Debye-Ang):
   XX=            -30.5554   YY=            -28.6466   ZZ=            -27.3923
   XY=              0.2487   XZ=             -0.5050   YZ=              0.6328

 Normal termination of Gaussian 09 at Wed Aug 26 23:15:21 2020.
