 Gaussian 09, Revision D.01,
 Gaussian 09:  ES64L-G09RevD.01 24-Apr-2013

 --------------------
 #p B2PLYPD3/Def2QZVP
 --------------------

 ----------
 butane_opt
 ----------
 Symbolic Z-matrix:
 Charge =  0 Multiplicity = 1

                         Standard orientation:
 ---------------------------------------------------------------------
 Center     Atomic      Atomic             Coordinates (Angstroms)
 Number     Number       Type             X           Y           Z
 ---------------------------------------------------------------------
      1          6           0       -1.903395    0.112031   -0.016822
      2          6           0       -0.554428   -0.523709   -0.023651
      3          1           0       -2.701116   -0.589471   -0.035956
      4          1           0       -1.998294    0.608225   -0.733382
      5          1           0       -2.105675    0.788681    1.016254
      6          6           0        0.568912    0.523843    0.054667
      7          1           0       -0.461136   -1.160773   -1.027460
      8          1           0       -0.520272   -1.013765    0.738246
      9          6           0        1.893700   -0.123846    0.008740
     10          1           0        0.379119    1.027510    0.850166
     11          1           0        0.366199    1.256432   -0.823344
     12          1           0        2.356411   -1.014959    1.037469
     13          1           0        2.735430    0.732006   -0.377434
     14          1           0        1.920596   -0.563799   -0.782162
 ---------------------------------------------------------------------

 SCF Done:  E(RB2PLYPD3) =  -157.922816176     A.U. after   11 cycles
 E2(B2PLYPD3) =    -0.2479112002D+00 E(B2PLYPD3) =    -0.15817072737663D+03

 The electronic state is 1-A.
 Alpha  occ. eigenvalues --  -10.62253 -10.59771 -10.58937 -10.58241  -0.93356
 Alpha  occ. eigenvalues --   -0.85293  -0.74402  -0.68991  -0.55921  -0.49523
 Alpha  occ. eigenvalues --   -0.49003  -0.47107  -0.43349  -0.42328  -0.38868
 Alpha  occ. eigenvalues --   -0.37851  -0.35609
 Alpha virt. eigenvalues --    0.05086   0.06063   0.07632   0.08247   0.10726
 Alpha virt. eigenvalues --    0.11159   0.12582   0.13193   0.14723   0.15514
 Alpha virt. eigenvalues --    0.15809   0.16598   0.19304   0.19792   0.21475

 Mulliken charges:
               1
     1  C   -0.180953
     2  C   -0.076706
     3  H    0.039716
     4  H    0.103051
     5  H    0.008459
     6  C   -0.024310
     7  H    0.007643
     8  H    0.094150
     9  C   -0.217116
    10  H    0.064714
    11  H    0.013343
    12  H    0.030247
    13  H    0.020418
    14  H    0.117345
 Sum of Mulliken charges =   0.00000

 Dipole moment (field-independent basis, Debye):
    X=             -0.3648    Y=             -0.0725    Z=             -0.3347  Tot=              0.5003
 Quadrupole moment (field-independent basis, Debye-Ang):
   XX=            -30.6761   YY=            -29.1757   ZZ=            -27.7647
   XY=              0.0057   XZ=             -0.3622   YZ=             -0.4715

 Normal termination of Gaussian 09 at Wed Aug 26 16:11:21 2020.
