 Gaussian 09, Revision D.01,
 Gaussian 09:  ES64L-G09RevD.01 24-Apr-2013

 --------------------
 #p B2PLYPD3/Def2QZVP
 --------------------

 ----------
 butane_opt
 ----------
 Symbolic Z-matrix:
 Charge =  0 Multiplicity = 1

                         Standard orientation:
 ---------------------------------------------------------------------
 Center     Atomic      Atomic             Coordinates (Angstroms)
 Number     Number       Type             X           Y           Z
 ---------------------------------------------------------------------
      1          6           0       -1.882931   -0.003610    0.175007
      2          6           0       -0.565248   -0.420457   -0.233036
      3          1           0       -2.684331   -0.671648   -0.164084
      4          1           0       -2.300038    0.590843   -0.605868
      5          1           0       -1.883789    0.769929    1.442081
      6          6           0        0.503571    0.563207    0.000680
      7          1           0       -0.254015   -1.286073   -1.486718
      8          1           0       -0.564797   -0.816936    0.411408
      9          6           0        1.973584   -0.156381    0.126371
     10          1           0        0.336915    0.894566    0.702941
     11          1           0        0.481373    1.661099   -0.925257
     12          1           0        2.338683   -1.517633    1.158913
     13          1           0        2.568862    0.631153   -0.489471
     14          1           0        1.787280   -0.151853   -0.458081
 ---------------------------------------------------------------------

 SCF Done:  E(RB2PLYPD3) =  -157.012102619     A.U. after   12 cycles
 E2(B2PLYPD3) =    -0.2630751411D+00 E(B2PLYPD3) =    -0.15727517775989D+03

 The electronic state is 1-A.
 Alpha  occ. eigenvalues --  -10.63923 -10.62307 -10.61779 -10.60649  -0.99116
 Alpha  occ. eigenvalues --   -0.92497  -0.78788  -0.71240  -0.55792  -0.49785
 Alpha  occ. eigenvalues --   -0.46466  -0.43749  -0.40052  -0.39155  -0.36909
 Alpha  occ. eigenvalues --   -0.36213  -0.33697
 Alpha virt. eigenvalues --   -0.01287   0.02073   0.04288   0.06632   0.09520
 Alpha virt. eigenvalues --    0.10096   0.11775   0.12127   0.13019   0.14221
 Alpha virt. eigenvalues --    0.15739   0.15822   0.17732   0.19115   0.20853

 Mulliken charges:
               1
     1  C   -0.174434
     2  C   -0.472256
     3  H    0.069309
     4  H    0.036205
     5  H    0.053887
     6  C   -0.249590
     7  H    0.008774
     8  H    0.476681
     9  C   -0.920083
    10  H    0.278635
    11  H   -0.002648
    12  H    0.083072
    13  H    0.062651
    14  H    0.749795
 Sum of Mulliken charges =   0.00000

 Dipole moment (field-independent basis, Debye):
    X=             -0.8433    Y=             -0.2187    Z=             -0.0489  Tot=              0.8726
 Quadrupole moment (field-independent basis, Debye-Ang):
   XX=            -30.9996   YY=            -29.5870   ZZ=            -28.1626
   XY=             -0.8777   XZ=             -0.2928   YZ=             -0.9632

 Normal termination of Gaussian 09 at Wed Aug 26 21:39:12 2020.
