 Gaussian 09, Revision D.01,
 Gaussian 09:  ES64L-G09RevD.01 24-Apr-2013

 --------------------
 #p B2PLYPD3/Def2QZVP
 --------------------

 ----------
 butane_opt
 ----------
 Symbolic Z-matrix:
 Charge =  0 Multiplicity = 1

                         Standard orientation:
 ---------------------------------------------------------------------
 Center     Atomic      Atomic             Coordinates (Angstroms)
 Number     Number       Type             X           Y           Z
 ---------------------------------------------------------------------
      1          6           0       -1.960890    0.102870   -0.181420
      2          6           0       -0.600791   -0.463285    0.114874
      3          1           0       -2.856619   -0.710693   -0.066722
      4          1           0       -1.979339    0.639773   -1.091528
      5          1           0       -2.400508    0.792532    0.689172
      6          6           0        0.609000    0.526043    0.156700
      7          1           0       -0.624875   -1.012102   -0.743492
      8          1           0       -0.799084   -1.241822    1.236627
      9          6           0        2.067549   -0.182902   -0.116139
     10          1           0        0.351697    1.553742    1.355598
     11          1           0        0.601610    0.999247   -0.551146
     12          1           0        2.670402   -0.871832    0.900948
     13          1           0        2.872838    0.463569   -0.898311
     14          1           0        1.474672   -0.508776   -0.675237
 ---------------------------------------------------------------------

 SCF Done:  E(RB2PLYPD3) =  -157.776217800     A.U. after   11 cycles
 E2(B2PLYPD3) =    -0.2564290407D+00 E(B2PLYPD3) =    -0.15803264684091D+03

 The electronic state is 1-A.
 Alpha  occ. eigenvalues --  -10.65113 -10.64198 -10.64166 -10.62623  -0.94070
 Alpha  occ. eigenvalues --   -0.85996  -0.72562  -0.67242  -0.54071  -0.50880
 Alpha  occ. eigenvalues --   -0.49828  -0.45752  -0.40830  -0.40266  -0.37457
 Alpha  occ. eigenvalues --   -0.36825  -0.32887
 Alpha virt. eigenvalues --    0.03498   0.05118   0.06115   0.07700   0.09713
 Alpha virt. eigenvalues --    0.09889   0.11346   0.11815   0.14319   0.14962
 Alpha virt. eigenvalues --    0.15686   0.16242   0.16674   0.18861   0.20597

 Mulliken charges:
               1
     1  C   -0.133394
     2  C   -0.059489
     3  H    0.040246
     4  H    0.056786
     5  H    0.025966
     6  C   -0.239327
     7  H    0.083105
     8  H    0.012967
     9  C   -0.273577
    10  H   -0.031807
    11  H    0.225818
    12  H    0.069727
    13  H    0.041192
    14  H    0.181787
 Sum of Mulliken charges =   0.00000

 Dipole moment (field-independent basis, Debye):
    X=             -0.2990    Y=             -0.3984    Z=             -1.0724  Tot=              1.1824
 Quadrupole moment (field-independent basis, Debye-Ang):
   XX=            -29.5321   YY=            -31.5133   ZZ=            -28.8972
   XY=              0.2949   XZ=             -0.5326   YZ=             -1.6555

 Normal termination of Gaussian 09 at Wed Aug 26 19:23:32 2020.
