 Gaussian 09, Revision D.01,
 Gaussian 09:  ES64L-G09RevD.01 24-Apr-2013

 --------------------
 #p B2PLYPD3/Def2QZVP
 --------------------

 ----------
 butane_opt
 ----------
 Symbolic Z-matrix:
 Charge =  0 Multiplicity = 1

                         Standard orientation:
 ---------------------------------------------------------------------
 Center     Atomic      Atomic             Coordinates (Angstroms)
 Number     Number       Type             X           Y           Z
 ---------------------------------------------------------------------
      1          6           0        1.954158   -0.158304   -0.037417
      2          6           0        0.563107    0.572915   -0.059537
      3          1           0        2.625256    0.571932   -0.211599
      4          1           0        1.845053   -0.863595   -0.814930
      5          1           0        2.362504   -0.770923    0.875258
      6          6           0       -0.571916   -0.405053    0.266755
      7          1           0        0.233165    0.916158   -0.943708
      8          1           0        0.231779    1.261136    0.772462
      9          6           0       -1.853419   -0.011722   -0.076397
     10          1           0       -0.655047   -0.761201    1.099974
     11          1           0       -0.649750   -1.158782   -0.459324
     12          1           0       -2.508656    1.222468    0.802469
     13          1           0       -2.650016   -0.840465   -0.667226
     14          1           0       -1.385870    0.436251   -1.013799
 ---------------------------------------------------------------------

 SCF Done:  E(RB2PLYPD3) =  -157.888188175     A.U. after   12 cycles
 E2(B2PLYPD3) =    -0.2541982450D+00 E(B2PLYPD3) =    -0.15814238642046D+03

 The electronic state is 1-A.
 Alpha  occ. eigenvalues --  -10.65818 -10.61245 -10.60829 -10.57887  -0.96409
 Alpha  occ. eigenvalues --   -0.85264  -0.73322  -0.67557  -0.56725  -0.50855
 Alpha  occ. eigenvalues --   -0.49639  -0.48594  -0.43419  -0.41017  -0.39883
 Alpha  occ. eigenvalues --   -0.35370  -0.32381
 Alpha virt. eigenvalues --    0.03219   0.05762   0.07275   0.08710   0.09443
 Alpha virt. eigenvalues --    0.10592   0.11947   0.12980   0.14131   0.15043
 Alpha virt. eigenvalues --    0.15887   0.16772   0.18871   0.19042   0.20685

 Mulliken charges:
               1
     1  C   -0.154422
     2  C   -0.079091
     3  H    0.061818
     4  H    0.054359
     5  H    0.041791
     6  C   -0.065212
     7  H    0.080857
     8  H    0.043805
     9  C   -0.162841
    10  H    0.073013
    11  H    0.049817
    12  H   -0.040215
    13  H    0.064622
    14  H    0.031699
 Sum of Mulliken charges =   0.00000

 Dipole moment (field-independent basis, Debye):
    X=              0.9856    Y=             -0.8218    Z=             -0.5570  Tot=              1.3989
 Quadrupole moment (field-independent basis, Debye-Ang):
   XX=            -32.1444   YY=            -29.8303   ZZ=            -28.5750
   XY=              1.7833   XZ=              1.0681   YZ=              0.4277

 Normal termination of Gaussian 09 at Wed Aug 26 13:18:44 2020.
