 Gaussian 09, Revision D.01,
 Gaussian 09:  ES64L-G09RevD.01 24-Apr-2013

 --------------------
 #p B2PLYPD3/Def2QZVP
 --------------------

 ----------
 butane_opt
 ----------
 Symbolic Z-matrix:
 Charge =  0 Multiplicity = 1

                         Standard orientation:
 ---------------------------------------------------------------------
 Center     Atomic      Atomic             Coordinates (Angstroms)
 Number     Number       Type             X           Y           Z
 ---------------------------------------------------------------------
      1          6           0       -1.858420    0.112459   -0.099055
      2          6           0       -0.549971   -0.457352    0.166917
      3          1           0       -2.903441   -0.878883   -0.241239
      4          1           0       -1.679575    0.805433   -1.094122
      5          1           0       -1.874406    0.485393    0.494972
      6          6           0        0.483062    0.621787    0.206892
      7          1           0       -0.619523   -1.154517   -0.719153
      8          1           0       -0.513890   -1.017034    1.093815
      9          6           0        1.878524   -0.170254   -0.148676
     10          1           0        0.473401    1.158927    1.096294
     11          1           0        0.248859    1.128457   -0.561305
     12          1           0        2.726088   -0.885268    0.777037
     13          1           0        2.599601    0.558454   -0.703636
     14          1           0        1.823716   -0.840809   -0.899133
 ---------------------------------------------------------------------

 SCF Done:  E(RB2PLYPD3) =  -157.727410015     A.U. after   11 cycles
 E2(B2PLYPD3) =    -0.2515419145D+00 E(B2PLYPD3) =    -0.15797895192983D+03

 The electronic state is 1-A.
 Alpha  occ. eigenvalues --  -10.63607 -10.60617 -10.59950 -10.59788  -0.95796
 Alpha  occ. eigenvalues --   -0.84815  -0.73688  -0.68847  -0.58578  -0.51154
 Alpha  occ. eigenvalues --   -0.47419  -0.46270  -0.42817  -0.41247  -0.38186
 Alpha  occ. eigenvalues --   -0.37152  -0.34463
 Alpha virt. eigenvalues --    0.04787   0.05186   0.07852   0.08262   0.10027
 Alpha virt. eigenvalues --    0.10306   0.12167   0.12873   0.14826   0.15378
 Alpha virt. eigenvalues --    0.15922   0.16301   0.18596   0.19176   0.21044

 Mulliken charges:
               1
     1  C   -0.605590
     2  C   -0.010541
     3  H    0.022273
     4  H    0.055940
     5  H    0.457929
     6  C   -0.083265
     7  H    0.032235
     8  H    0.044809
     9  C   -0.181145
    10  H    0.054671
    11  H    0.090055
    12  H    0.019237
    13  H    0.024363
    14  H    0.079028
 Sum of Mulliken charges =   0.00000

 Dipole moment (field-independent basis, Debye):
    X=             -0.0615    Y=              0.3549    Z=             -0.1201  Tot=              0.3797
 Quadrupole moment (field-independent basis, Debye-Ang):
   XX=            -32.4762   YY=            -29.0368   ZZ=            -27.8703
   XY=              0.2260   XZ=             -0.9363   YZ=              0.2497

 Normal termination of Gaussian 09 at Wed Aug 26 22:46:22 2020.
