 Gaussian 09, Revision D.01,
 Gaussian 09:  ES64L-G09RevD.01 24-Apr-2013

 --------------------
 #p B2PLYPD3/Def2QZVP
 --------------------

 ----------
 butane_opt
 ----------
 Symbolic Z-matrix:
 Charge =  0 Multiplicity = 1

                         Standard orientation:
 ---------------------------------------------------------------------
 Center     Atomic      Atomic             Coordinates (Angstroms)
 Number     Number       Type             X           Y           Z
 ---------------------------------------------------------------------
      1          6           0        1.932933   -0.146074    0.050917
      2          6           0        0.499766    0.535334   -0.006499
      3          1           0        2.783478    0.670673   -0.081376
      4          1           0        2.008847   -0.494989   -0.733171
      5          1           0        2.240142   -0.880862    0.976044
      6          6           0       -0.540348   -0.517179   -0.045006
      7          1           0        0.497054    1.334746   -1.013453
      8          1           0        0.300134    0.942696    0.650635
      9          6           0       -1.903991    0.098682    0.032945
     10          1           0       -0.540068   -1.107223    0.704652
     11          1           0       -0.414532   -1.184969   -0.922259
     12          1           0       -2.152058    1.010875    1.117078
     13          1           0       -2.734639   -0.684366   -0.209716
     14          1           0       -1.918509    0.568842   -0.682572
 ---------------------------------------------------------------------

 SCF Done:  E(RB2PLYPD3) =  -157.813828314     A.U. after   11 cycles
 E2(B2PLYPD3) =    -0.2479870020D+00 E(B2PLYPD3) =    -0.15806181531584D+03

 The electronic state is 1-A.
 Alpha  occ. eigenvalues --  -10.60647 -10.59787 -10.59441 -10.58700  -0.94252
 Alpha  occ. eigenvalues --   -0.84725  -0.76082  -0.70492  -0.55849  -0.49197
 Alpha  occ. eigenvalues --   -0.48582  -0.46907  -0.43150  -0.42237  -0.38726
 Alpha  occ. eigenvalues --   -0.38278  -0.36396
 Alpha virt. eigenvalues --    0.05208   0.06053   0.07749   0.08058   0.10889
 Alpha virt. eigenvalues --    0.11700   0.12414   0.13242   0.14821   0.15232
 Alpha virt. eigenvalues --    0.15925   0.16570   0.19098   0.19680   0.21989

 Mulliken charges:
               1
     1  C   -0.228298
     2  C   -0.262113
     3  H    0.021802
     4  H    0.144327
     5  H    0.045971
     6  C   -0.008642
     7  H    0.006558
     8  H    0.250668
     9  C   -0.268518
    10  H    0.063585
    11  H    0.014722
    12  H    0.013432
    13  H    0.039238
    14  H    0.167268
 Sum of Mulliken charges =   0.00000

 Dipole moment (field-independent basis, Debye):
    X=              0.0536    Y=             -0.2632    Z=             -0.3317  Tot=              0.4268
 Quadrupole moment (field-independent basis, Debye-Ang):
   XX=            -30.5209   YY=            -28.6916   ZZ=            -27.9772
   XY=              0.1545   XZ=              0.3460   YZ=             -0.0002

 Normal termination of Gaussian 09 at Wed Aug 26 10:21:27 2020.
