 Gaussian 09, Revision D.01,
 Gaussian 09:  ES64L-G09RevD.01 24-Apr-2013

 --------------------
 #p B2PLYPD3/Def2QZVP
 --------------------

 ----------
 butane_opt
 ----------
 Symbolic Z-matrix:
 Charge =  0 Multiplicity = 1

                         Standard orientation:
 ---------------------------------------------------------------------
 Center     Atomic      Atomic             Coordinates (Angstroms)
 Number     Number       Type             X           Y           Z
 ---------------------------------------------------------------------
      1          6           0        1.997463    0.155716   -0.169037
      2          6           0        0.458264   -0.528166    0.321115
      3          1           0        2.809331   -0.714552   -0.745224
      4          1           0        2.432412    0.956238    0.697196
      5          1           0        1.841232    0.588715   -0.987599
      6          6           0       -0.565923    0.431773    0.074228
      7          1           0        0.319237   -1.197882    1.298223
      8          1           0        0.160802   -0.926786   -0.213206
      9          6           0       -1.830194   -0.125885   -0.229786
     10          1           0       -0.522701    0.865316   -0.621916
     11          1           0       -0.686528    1.367237    1.100206
     12          1           0       -1.966382   -0.871500   -1.118522
     13          1           0       -2.911457    0.848220   -0.055740
     14          1           0       -1.833609   -0.515633    0.667460
 ---------------------------------------------------------------------

 SCF Done:  E(RB2PLYPD3) =  -157.612051232     A.U. after   12 cycles
 E2(B2PLYPD3) =    -0.2535234124D+00 E(B2PLYPD3) =    -0.15786557464432D+03

 The electronic state is 1-A.
 Alpha  occ. eigenvalues --  -10.64303 -10.62190 -10.59537 -10.59469  -0.99348
 Alpha  occ. eigenvalues --   -0.84110  -0.76336  -0.70380  -0.57200  -0.50990
 Alpha  occ. eigenvalues --   -0.48677  -0.45153  -0.43654  -0.40560  -0.38668
 Alpha  occ. eigenvalues --   -0.36199  -0.33719
 Alpha virt. eigenvalues --    0.03778   0.05219   0.07073   0.08325   0.09991
 Alpha virt. eigenvalues --    0.11110   0.12306   0.12708   0.13837   0.15433
 Alpha virt. eigenvalues --    0.15746   0.16024   0.18519   0.18671   0.20773

 Mulliken charges:
               1
     1  C   -0.209494
     2  C   -0.501845
     3  H    0.027845
     4  H    0.064675
     5  H    0.117435
     6  C   -0.211357
     7  H    0.063008
     8  H    0.480902
     9  C   -0.218719
    10  H    0.230967
    11  H   -0.015717
    12  H    0.062791
    13  H    0.022895
    14  H    0.086614
 Sum of Mulliken charges =   0.00000

 Dipole moment (field-independent basis, Debye):
    X=              0.0685    Y=             -0.2945    Z=             -0.6231  Tot=              0.6926
 Quadrupole moment (field-independent basis, Debye-Ang):
   XX=            -32.0655   YY=            -29.5332   ZZ=            -27.8502
   XY=              0.9766   XZ=             -0.4533   YZ=              0.3479

 Normal termination of Gaussian 09 at Wed Aug 26 22:48:22 2020.
