 Gaussian 09, Revision D.01,
 Gaussian 09:  ES64L-G09RevD.01 24-Apr-2013

 --------------------
 #p B2PLYPD3/Def2QZVP
 --------------------

 ----------
 butane_opt
 ----------
 Symbolic Z-matrix:
 Charge =  0 Multiplicity = 1

                         Standard orientation:
 ---------------------------------------------------------------------
 Center     Atomic      Atomic             Coordinates (Angstroms)
 Number     Number       Type             X           Y           Z
 ---------------------------------------------------------------------
      1          6           0        1.892910   -0.039082   -0.176628
      2          6           0        0.550998    0.419254    0.108419
      3          1           0        2.703166    0.744243   -0.152670
      4          1           0        2.054190   -0.956313   -1.023053
      5          1           0        1.750174   -0.534835    0.611279
      6          6           0       -0.509174   -0.546851    0.270816
      7          1           0        0.422061    0.787741   -0.672144
      8          1           0        0.574357    1.289242    1.180597
      9          6           0       -1.937124    0.128266   -0.215960
     10          1           0       -0.400572   -1.124330    1.253751
     11          1           0       -0.029166   -0.910726   -0.318120
     12          1           0       -2.443783    0.953590    0.695058
     13          1           0       -2.729245   -0.608871   -0.458679
     14          1           0       -1.886844    0.590736   -1.035897
 ---------------------------------------------------------------------

 SCF Done:  E(RB2PLYPD3) =  -157.799150620     A.U. after   11 cycles
 E2(B2PLYPD3) =    -0.2513233376D+00 E(B2PLYPD3) =    -0.15805047395718D+03

 The electronic state is 1-A.
 Alpha  occ. eigenvalues --  -10.62351 -10.60364 -10.59728 -10.59367  -0.98925
 Alpha  occ. eigenvalues --   -0.84442  -0.76784  -0.68779  -0.56238  -0.53589
 Alpha  occ. eigenvalues --   -0.48436  -0.46478  -0.43622  -0.41908  -0.40790
 Alpha  occ. eigenvalues --   -0.34733  -0.33620
 Alpha virt. eigenvalues --    0.05328   0.06457   0.06938   0.08723   0.11059
 Alpha virt. eigenvalues --    0.11416   0.12780   0.13193   0.14691   0.15389
 Alpha virt. eigenvalues --    0.15759   0.16391   0.18686   0.19769   0.21063

 Mulliken charges:
               1
     1  C   -0.239662
     2  C   -0.156317
     3  H    0.076506
     4  H    0.028873
     5  H    0.108890
     6  C   -0.238796
     7  H    0.168472
     8  H   -0.022254
     9  C   -0.152373
    10  H    0.046782
    11  H    0.225284
    12  H    0.027577
    13  H    0.041346
    14  H    0.085672
 Sum of Mulliken charges =   0.00000

 Dipole moment (field-independent basis, Debye):
    X=              0.0369    Y=             -0.1650    Z=             -0.5213  Tot=              0.5480
 Quadrupole moment (field-independent basis, Debye-Ang):
   XX=            -29.5438   YY=            -29.8986   ZZ=            -28.2437
   XY=              0.2988   XZ=              0.3131   YZ=             -0.3391

 Normal termination of Gaussian 09 at Wed Aug 26 21:34:21 2020.
