 Gaussian 09, Revision D.01,
 Gaussian 09:  ES64L-G09RevD.01 24-Apr-2013

 --------------------
 #p B2PLYPD3/Def2QZVP
 --------------------

 ----------
 butane_opt
 ----------
 Symbolic Z-matrix:
 Charge =  0 Multiplicity = 1

                         Standard orientation:
 ---------------------------------------------------------------------
 Center     Atomic      Atomic             Coordinates (Angstroms)
 Number     Number       Type             X           Y           Z
 ---------------------------------------------------------------------
      1          6           0       -1.983760    0.153877    0.162040
      2          6           0       -0.528396   -0.558767   -0.038575
      3          1           0       -2.899449   -0.822865   -0.386384
      4          1           0       -1.707550    0.427805   -0.441645
      5          1           0       -2.352823    1.456967    1.173932
      6          6           0        0.558758    0.452859   -0.221342
      7          1           0       -0.698073   -1.432008   -0.943628
      8          1           0       -0.157129   -0.779025    0.623348
      9          6           0        1.979646   -0.066015    0.123486
     10          1           0        0.412386    0.826571    0.319012
     11          1           0        0.482354    1.132954   -1.415489
     12          1           0        2.018365   -0.976889    1.297562
     13          1           0        2.762645    0.661223    0.121140
     14          1           0        1.981785   -0.386454   -0.501502
 ---------------------------------------------------------------------

 SCF Done:  E(RB2PLYPD3) =  -157.002022016     A.U. after   12 cycles
 E2(B2PLYPD3) =    -0.2576184136D+00 E(B2PLYPD3) =    -0.15725964042992D+03

 The electronic state is 1-A.
 Alpha  occ. eigenvalues --  -10.64082 -10.61299 -10.60376 -10.60185  -0.99259
 Alpha  occ. eigenvalues --   -0.89151  -0.81205  -0.73197  -0.56137  -0.51478
 Alpha  occ. eigenvalues --   -0.47065  -0.45168  -0.43982  -0.40457  -0.37316
 Alpha  occ. eigenvalues --   -0.36234  -0.35535
 Alpha virt. eigenvalues --   -0.00043   0.04537   0.04793   0.06908   0.10203
 Alpha virt. eigenvalues --    0.10456   0.11478   0.13041   0.13964   0.14547
 Alpha virt. eigenvalues --    0.15323   0.16031   0.17877   0.18410   0.21050

 Mulliken charges:
               1
     1  C   -0.629892
     2  C   -0.264076
     3  H    0.044391
     4  H    0.495730
     5  H    0.038141
     6  C   -0.691070
     7  H    0.036332
     8  H    0.323609
     9  C   -0.585650
    10  H    0.624276
    11  H    0.015365
    12  H    0.026384
    13  H    0.085329
    14  H    0.481130
 Sum of Mulliken charges =   0.00000

 Dipole moment (field-independent basis, Debye):
    X=              0.8047    Y=              0.0911    Z=             -0.5226  Tot=              0.9638
 Quadrupole moment (field-independent basis, Debye-Ang):
   XX=            -31.2941   YY=            -28.7795   ZZ=            -28.6412
   XY=              0.6781   XZ=              0.8189   YZ=              1.1514

 Normal termination of Gaussian 09 at Wed Aug 26 11:01:36 2020.
