 Gaussian 09, Revision D.01,
 Gaussian 09:  ES64L-G09RevD.01 24-Apr-2013

 --------------------
 #p B2PLYPD3/Def2QZVP
 --------------------

 ----------
 butane_opt
 ----------
 Symbolic Z-matrix:
 Charge =  0 Multiplicity = 1

                         Standard orientation:
 ---------------------------------------------------------------------
 Center     Atomic      Atomic             Coordinates (Angstroms)
 Number     Number       Type             X           Y           Z
 ---------------------------------------------------------------------
      1          6           0        1.850756    0.119917   -0.073160
      2          6           0        0.619154   -0.523114    0.056768
      3          1           0        2.819229   -0.926539   -0.115521
      4          1           0        2.022468    0.555983    0.659951
      5          1           0        1.860203    0.764753   -1.004460
      6          6           0       -0.505279    0.601939    0.147421
      7          1           0        0.569815   -1.227557    0.984074
      8          1           0        0.217707   -0.686705   -0.734941
      9          6           0       -1.908076   -0.166238   -0.127224
     10          1           0       -0.447624    1.037258   -0.541786
     11          1           0       -0.371450    1.417237    1.140523
     12          1           0       -1.801510   -0.639873   -1.031715
     13          1           0       -2.596925    0.493058   -0.362756
     14          1           0       -2.611243   -0.982637    0.983795
 ---------------------------------------------------------------------

 SCF Done:  E(RB2PLYPD3) =  -157.782496610     A.U. after   11 cycles
 E2(B2PLYPD3) =    -0.2512500909D+00 E(B2PLYPD3) =    -0.15803374670125D+03

 The electronic state is 1-A.
 Alpha  occ. eigenvalues --  -10.63056 -10.61316 -10.60240 -10.58799  -0.95506
 Alpha  occ. eigenvalues --   -0.85516  -0.74822  -0.69958  -0.57244  -0.51667
 Alpha  occ. eigenvalues --   -0.48864  -0.46017  -0.45266  -0.40925  -0.39345
 Alpha  occ. eigenvalues --   -0.37304  -0.32701
 Alpha virt. eigenvalues --    0.03916   0.05247   0.07969   0.08033   0.10175
 Alpha virt. eigenvalues --    0.10361   0.12184   0.12698   0.14541   0.15343
 Alpha virt. eigenvalues --    0.16022   0.16299   0.18439   0.19433   0.21325

 Mulliken charges:
               1
     1  C   -0.195078
     2  C   -0.108122
     3  H   -0.011578
     4  H    0.128673
     5  H    0.046713
     6  C   -0.307979
     7  H    0.056486
     8  H    0.134999
     9  C   -0.158769
    10  H    0.251390
    11  H    0.018646
    12  H    0.065447
    13  H    0.066811
    14  H    0.012361
 Sum of Mulliken charges =   0.00000

 Dipole moment (field-independent basis, Debye):
    X=             -0.3412    Y=              0.6546    Z=             -0.5787  Tot=              0.9380
 Quadrupole moment (field-independent basis, Debye-Ang):
   XX=            -32.1813   YY=            -29.6995   ZZ=            -27.7069
   XY=              0.0313   XZ=              1.7660   YZ=             -0.7272

 Normal termination of Gaussian 09 at Wed Aug 26 10:49:27 2020.
