 Gaussian 09, Revision D.01,
 Gaussian 09:  ES64L-G09RevD.01 24-Apr-2013

 --------------------
 #p B2PLYPD3/Def2QZVP
 --------------------

 ----------
 butane_opt
 ----------
 Symbolic Z-matrix:
 Charge =  0 Multiplicity = 1

                         Standard orientation:
 ---------------------------------------------------------------------
 Center     Atomic      Atomic             Coordinates (Angstroms)
 Number     Number       Type             X           Y           Z
 ---------------------------------------------------------------------
      1          6           0       -1.996028    0.163842   -0.127580
      2          6           0       -0.613553   -0.617271    0.017908
      3          1           0       -2.571660   -0.421843    0.681308
      4          1           0       -2.727969    1.430632   -1.276984
      5          1           0       -1.798102    0.232119    0.554916
      6          6           0        0.613927    0.472581    0.199592
      7          1           0       -0.242896   -1.085645   -0.667245
      8          1           0       -0.647099   -1.525352    0.982665
      9          6           0        1.957198   -0.083123   -0.188519
     10          1           0        0.725276    1.346351    1.403639
     11          1           0        0.376366    0.797435   -0.410557
     12          1           0        2.338473   -0.399405    0.427607
     13          1           0        2.788432    0.686415    0.112276
     14          1           0        1.989913   -0.676886   -1.216030
 ---------------------------------------------------------------------

 SCF Done:  E(RB2PLYPD3) =  -157.213500335     A.U. after   13 cycles
 E2(B2PLYPD3) =    -0.2613840890D+00 E(B2PLYPD3) =    -0.15747488442370D+03

 The electronic state is 1-A.
 Alpha  occ. eigenvalues --  -10.64061 -10.62292 -10.61008 -10.58827  -0.96793
 Alpha  occ. eigenvalues --   -0.91093  -0.80966  -0.71633  -0.52957  -0.50491
 Alpha  occ. eigenvalues --   -0.47163  -0.44206  -0.43022  -0.39273  -0.38012
 Alpha  occ. eigenvalues --   -0.35806  -0.31717
 Alpha virt. eigenvalues --   -0.03467   0.04251   0.06198   0.06412   0.10448
 Alpha virt. eigenvalues --    0.10559   0.12327   0.12939   0.14428   0.15414
 Alpha virt. eigenvalues --    0.16112   0.16793   0.17244   0.17956   0.19352

 Mulliken charges:
               1
     1  C   -0.697350
     2  C   -0.103551
     3  H    0.050821
     4  H    0.085296
     5  H    0.559688
     6  C   -0.530266
     7  H    0.116930
     8  H    0.004792
     9  C   -0.325445
    10  H    0.005689
    11  H    0.509714
    12  H    0.237002
    13  H    0.026235
    14  H    0.060445
 Sum of Mulliken charges =   0.00000

 Dipole moment (field-independent basis, Debye):
    X=              0.5474    Y=             -0.0793    Z=              0.3341  Tot=              0.6461
 Quadrupole moment (field-independent basis, Debye-Ang):
   XX=            -29.9306   YY=            -29.7880   ZZ=            -27.5572
   XY=             -2.1044   XZ=              0.0281   YZ=             -0.9233

 Normal termination of Gaussian 09 at Wed Aug 26 20:01:53 2020.
