 Gaussian 09, Revision D.01,
 Gaussian 09:  ES64L-G09RevD.01 24-Apr-2013

 --------------------
 #p B2PLYPD3/Def2QZVP
 --------------------

 ----------
 butane_opt
 ----------
 Symbolic Z-matrix:
 Charge =  0 Multiplicity = 1

                         Standard orientation:
 ---------------------------------------------------------------------
 Center     Atomic      Atomic             Coordinates (Angstroms)
 Number     Number       Type             X           Y           Z
 ---------------------------------------------------------------------
      1          6           0        1.967781    0.112502    0.045746
      2          6           0        0.597448   -0.537739   -0.057946
      3          1           0        2.725279   -0.738737   -0.056882
      4          1           0        2.167338    1.033253    1.071410
      5          1           0        2.099244    0.511040   -0.732498
      6          6           0       -0.580198    0.578505   -0.130160
      7          1           0        0.469819   -1.166378    0.836348
      8          1           0        0.376212   -1.127520   -0.841072
      9          6           0       -1.944789   -0.158431    0.116839
     10          1           0       -0.591231    1.310248   -1.036582
     11          1           0       -0.439966    1.099059    0.592693
     12          1           0       -2.385084   -0.836616   -0.807660
     13          1           0       -2.702801    0.544149    0.264677
     14          1           0       -1.960267   -0.597527    0.862695
 ---------------------------------------------------------------------

 SCF Done:  E(RB2PLYPD3) =  -157.933570359     A.U. after   11 cycles
 E2(B2PLYPD3) =    -0.2470049153D+00 E(B2PLYPD3) =    -0.15818057527423D+03

 The electronic state is 1-A.
 Alpha  occ. eigenvalues --  -10.60803 -10.60109 -10.59611 -10.58084  -0.91009
 Alpha  occ. eigenvalues --   -0.84712  -0.74800  -0.69373  -0.54476  -0.50481
 Alpha  occ. eigenvalues --   -0.47410  -0.46599  -0.43927  -0.40665  -0.39955
 Alpha  occ. eigenvalues --   -0.39306  -0.35008
 Alpha virt. eigenvalues --    0.05289   0.06440   0.08262   0.08933   0.10896
 Alpha virt. eigenvalues --    0.11530   0.12871   0.14000   0.14263   0.15483
 Alpha virt. eigenvalues --    0.15969   0.16204   0.18833   0.20085   0.21891

 Mulliken charges:
               1
     1  C   -0.216757
     2  C   -0.040445
     3  H    0.036989
     4  H    0.027053
     5  H    0.119335
     6  C   -0.107889
     7  H    0.029850
     8  H    0.058585
     9  C   -0.193679
    10  H    0.021368
    11  H    0.103325
    12  H    0.021439
    13  H    0.029232
    14  H    0.111594
 Sum of Mulliken charges =   0.00000

 Dipole moment (field-independent basis, Debye):
    X=             -0.0713    Y=              0.0439    Z=             -0.0268  Tot=              0.0879
 Quadrupole moment (field-independent basis, Debye-Ang):
   XX=            -29.9378   YY=            -28.3670   ZZ=            -27.9276
   XY=             -0.3542   XZ=             -1.1066   YZ=              0.3001

 Normal termination of Gaussian 09 at Wed Aug 26 18:37:59 2020.
