 Gaussian 09, Revision D.01,
 Gaussian 09:  ES64L-G09RevD.01 24-Apr-2013

 --------------------
 #p B2PLYPD3/Def2QZVP
 --------------------

 ----------
 butane_opt
 ----------
 Symbolic Z-matrix:
 Charge =  0 Multiplicity = 1

                         Standard orientation:
 ---------------------------------------------------------------------
 Center     Atomic      Atomic             Coordinates (Angstroms)
 Number     Number       Type             X           Y           Z
 ---------------------------------------------------------------------
      1          6           0       -1.949133   -0.112756   -0.122094
      2          6           0       -0.624139    0.439536    0.030103
      3          1           0       -2.827533    0.904826    0.079230
      4          1           0       -1.958922   -0.598860    0.699114
      5          1           0       -1.882246   -0.732355   -1.079060
      6          6           0        0.525460   -0.602154    0.173691
      7          1           0       -0.430507    1.453843    1.036838
      8          1           0       -0.631052    0.910462   -0.630979
      9          6           0        1.991391    0.177163   -0.102577
     10          1           0        0.311824   -0.903185   -0.498755
     11          1           0        0.228693   -1.322955    1.060376
     12          1           0        2.186705    0.629812   -0.946362
     13          1           0        2.782302   -0.496104   -0.359432
     14          1           0        2.559261    0.743781    0.764296
 ---------------------------------------------------------------------

 SCF Done:  E(RB2PLYPD3) =  -157.726218573     A.U. after   11 cycles
 E2(B2PLYPD3) =    -0.2507448231D+00 E(B2PLYPD3) =    -0.15797696339612D+03

 The electronic state is 1-A.
 Alpha  occ. eigenvalues --  -10.61317 -10.60797 -10.60488 -10.59614  -0.95284
 Alpha  occ. eigenvalues --   -0.84879  -0.77347  -0.70279  -0.55774  -0.49951
 Alpha  occ. eigenvalues --   -0.47855  -0.46825  -0.44068  -0.41269  -0.39472
 Alpha  occ. eigenvalues --   -0.38093  -0.33125
 Alpha virt. eigenvalues --    0.04615   0.06296   0.07406   0.08707   0.10562
 Alpha virt. eigenvalues --    0.11393   0.12453   0.13526   0.14556   0.14949
 Alpha virt. eigenvalues --    0.15613   0.16522   0.18761   0.19710   0.20963

 Mulliken charges:
               1
     1  C   -0.189195
     2  C   -0.234017
     3  H    0.041302
     4  H    0.086845
     5  H    0.059342
     6  C   -0.436057
     7  H   -0.037352
     8  H    0.233552
     9  C   -0.107869
    10  H    0.402184
    11  H    0.064325
    12  H    0.054466
    13  H    0.017899
    14  H    0.044573
 Sum of Mulliken charges =   0.00000

 Dipole moment (field-independent basis, Debye):
    X=              0.2658    Y=             -0.5541    Z=             -0.7798  Tot=              0.9928
 Quadrupole moment (field-independent basis, Debye-Ang):
   XX=            -29.3607   YY=            -29.7367   ZZ=            -28.0231
   XY=              0.3202   XZ=             -0.7165   YZ=             -0.4641

 Normal termination of Gaussian 09 at Wed Aug 26 20:00:35 2020.
