 Gaussian 09, Revision D.01,
 Gaussian 09:  ES64L-G09RevD.01 24-Apr-2013

 --------------------
 #p B2PLYPD3/Def2QZVP
 --------------------

 ----------
 butane_opt
 ----------
 Symbolic Z-matrix:
 Charge =  0 Multiplicity = 1

                         Standard orientation:
 ---------------------------------------------------------------------
 Center     Atomic      Atomic             Coordinates (Angstroms)
 Number     Number       Type             X           Y           Z
 ---------------------------------------------------------------------
      1          6           0       -1.976882    0.169637   -0.023742
      2          6           0       -0.553400   -0.591204    0.010189
      3          1           0       -2.733125   -0.608271   -0.090543
      4          1           0       -2.171550    0.448757   -0.744499
      5          1           0       -2.319769    1.083806    1.053714
      6          6           0        0.590011    0.474772   -0.024528
      7          1           0       -0.473952   -1.128694   -0.821821
      8          1           0       -0.395083   -1.170773    0.807379
      9          6           0        1.929857   -0.078867    0.024640
     10          1           0        0.613731    1.139276    0.760714
     11          1           0        0.616553    1.194211   -0.925306
     12          1           0        2.211218   -0.812750    1.028445
     13          1           0        2.721895    0.624100   -0.191339
     14          1           0        1.992575   -0.615685   -0.796097
 ---------------------------------------------------------------------

 SCF Done:  E(RB2PLYPD3) =  -157.913732670     A.U. after   11 cycles
 E2(B2PLYPD3) =    -0.2475164025D+00 E(B2PLYPD3) =    -0.15816124907208D+03

 The electronic state is 1-A.
 Alpha  occ. eigenvalues --  -10.60356 -10.60074 -10.59683 -10.59320  -0.92043
 Alpha  occ. eigenvalues --   -0.85545  -0.76099  -0.68083  -0.54627  -0.50251
 Alpha  occ. eigenvalues --   -0.48559  -0.47475  -0.44390  -0.39661  -0.38383
 Alpha  occ. eigenvalues --   -0.37669  -0.37004
 Alpha virt. eigenvalues --    0.05358   0.06198   0.08183   0.08418   0.10732
 Alpha virt. eigenvalues --    0.11461   0.12349   0.13015   0.14926   0.15359
 Alpha virt. eigenvalues --    0.16053   0.16686   0.18893   0.20406   0.21662

 Mulliken charges:
               1
     1  C   -0.336538
     2  C   -0.049211
     3  H    0.030919
     4  H    0.218230
     5  H    0.028401
     6  C   -0.013340
     7  H    0.054798
     8  H    0.061940
     9  C   -0.147827
    10  H    0.044673
    11  H    0.004000
    12  H    0.014434
    13  H    0.039951
    14  H    0.049570
 Sum of Mulliken charges =   0.00000

 Dipole moment (field-independent basis, Debye):
    X=              0.0251    Y=             -0.2243    Z=             -0.5947  Tot=              0.6361
 Quadrupole moment (field-independent basis, Debye-Ang):
   XX=            -29.8778   YY=            -28.7735   ZZ=            -27.9250
   XY=              0.9558   XZ=              0.5198   YZ=              0.0749

 Normal termination of Gaussian 09 at Wed Aug 26 22:36:58 2020.
