 Gaussian 09, Revision D.01,
 Gaussian 09:  ES64L-G09RevD.01 24-Apr-2013

 --------------------
 #p B2PLYPD3/Def2QZVP
 --------------------

 ----------
 butane_opt
 ----------
 Symbolic Z-matrix:
 Charge =  0 Multiplicity = 1

                         Standard orientation:
 ---------------------------------------------------------------------
 Center     Atomic      Atomic             Coordinates (Angstroms)
 Number     Number       Type             X           Y           Z
 ---------------------------------------------------------------------
      1          6           0        2.007033    0.120451    0.019112
      2          6           0        0.522259   -0.536691   -0.016813
      3          1           0        2.819107   -0.541570   -0.426129
      4          1           0        2.320665    1.127826    1.119780
      5          1           0        1.874727    0.439534   -0.670334
      6          6           0       -0.571743    0.487462   -0.059188
      7          1           0        0.347388   -1.331549    0.922995
      8          1           0        0.311212   -1.086322   -0.812824
      9          6           0       -1.920186   -0.092810    0.057849
     10          1           0       -0.600312    1.228373   -1.038347
     11          1           0       -0.474608    1.074651    0.792531
     12          1           0       -2.000829   -0.750459   -0.844483
     13          1           0       -2.791296    0.784006   -0.094158
     14          1           0       -2.030231   -0.814965    1.045208
 ---------------------------------------------------------------------

 SCF Done:  E(RB2PLYPD3) =  -157.846796987     A.U. after   11 cycles
 E2(B2PLYPD3) =    -0.2519792262D+00 E(B2PLYPD3) =    -0.15809877621321D+03

 The electronic state is 1-A.
 Alpha  occ. eigenvalues --  -10.62961 -10.62180 -10.61431 -10.61036  -0.92849
 Alpha  occ. eigenvalues --   -0.85434  -0.73888  -0.65956  -0.53918  -0.48747
 Alpha  occ. eigenvalues --   -0.48004  -0.46363  -0.41326  -0.39522  -0.38454
 Alpha  occ. eigenvalues --   -0.37501  -0.36709
 Alpha virt. eigenvalues --    0.04063   0.05560   0.07095   0.07957   0.10370
 Alpha virt. eigenvalues --    0.10837   0.11958   0.12714   0.14317   0.15205
 Alpha virt. eigenvalues --    0.15462   0.16232   0.18519   0.19433   0.20694

 Mulliken charges:
               1
     1  C   -0.490224
     2  C   -0.061669
     3  H    0.056344
     4  H    0.044604
     5  H    0.368307
     6  C   -0.018825
     7  H    0.008642
     8  H    0.068627
     9  C   -0.160947
    10  H    0.006331
    11  H    0.054006
    12  H    0.038089
    13  H    0.042530
    14  H    0.044184
 Sum of Mulliken charges =   0.00000

 Dipole moment (field-independent basis, Debye):
    X=             -0.0483    Y=              0.0750    Z=             -0.6095  Tot=              0.6160
 Quadrupole moment (field-independent basis, Debye-Ang):
   XX=            -31.0892   YY=            -29.4958   ZZ=            -28.2758
   XY=             -0.3317   XZ=             -0.8034   YZ=              0.5202

 Normal termination of Gaussian 09 at Wed Aug 26 22:49:08 2020.
