 Gaussian 09, Revision D.01,
 Gaussian 09:  ES64L-G09RevD.01 24-Apr-2013

 --------------------
 #p B2PLYPD3/Def2QZVP
 --------------------

 ----------
 butane_opt
 ----------
 Symbolic Z-matrix:
 Charge =  0 Multiplicity = 1

                         Standard orientation:
 ---------------------------------------------------------------------
 Center     Atomic      Atomic             Coordinates (Angstroms)
 Number     Number       Type             X           Y           Z
 ---------------------------------------------------------------------
      1          6           0        1.966541   -0.188051    0.161241
      2          6           0        0.545091    0.530211   -0.129932
      3          1           0        2.776952    0.724893   -0.181084
      4          1           0        1.690152   -0.372963   -0.626975
      5          1           0        2.251996   -1.237322    1.154814
      6          6           0       -0.557237   -0.442569   -0.317231
      7          1           0        0.439422    1.353617   -0.923700
      8          1           0        0.180196    1.067872    0.804951
      9          6           0       -1.880412    0.082630    0.209550
     10          1           0       -0.440181   -1.104649    0.438847
     11          1           0       -0.850897   -1.186479   -1.310085
     12          1           0       -1.591052    0.853519    1.252208
     13          1           0       -2.715953   -0.816680    0.394743
     14          1           0       -2.184531    0.824870   -0.545489
 ---------------------------------------------------------------------

 SCF Done:  E(RB2PLYPD3) =  -157.836303277     A.U. after   11 cycles
 E2(B2PLYPD3) =    -0.2573911789D+00 E(B2PLYPD3) =    -0.15809369445590D+03

 The electronic state is 1-A.
 Alpha  occ. eigenvalues --  -10.63973 -10.63615 -10.62743 -10.61347  -0.93769
 Alpha  occ. eigenvalues --   -0.84682  -0.71445  -0.65676  -0.53662  -0.49113
 Alpha  occ. eigenvalues --   -0.48138  -0.44180  -0.41728  -0.39134  -0.38257
 Alpha  occ. eigenvalues --   -0.36952  -0.33070
 Alpha virt. eigenvalues --    0.03733   0.05203   0.06760   0.07296   0.10562
 Alpha virt. eigenvalues --    0.10785   0.11430   0.13186   0.13712   0.14781
 Alpha virt. eigenvalues --    0.14998   0.15736   0.17580   0.19284   0.20410

 Mulliken charges:
               1
     1  C   -0.367775
     2  C   -0.060562
     3  H    0.037298
     4  H    0.238532
     5  H    0.080239
     6  C   -0.060707
     7  H    0.044184
     8  H    0.035577
     9  C   -0.164162
    10  H    0.078601
    11  H    0.015173
    12  H    0.017370
    13  H    0.054932
    14  H    0.051300
 Sum of Mulliken charges =   0.00000

 Dipole moment (field-independent basis, Debye):
    X=             -0.2822    Y=             -0.1582    Z=             -0.2271  Tot=              0.3953
 Quadrupole moment (field-independent basis, Debye-Ang):
   XX=            -32.1836   YY=            -28.7978   ZZ=            -29.2750
   XY=              0.7090   XZ=              0.6228   YZ=             -1.5347

 Normal termination of Gaussian 09 at Wed Aug 26 11:49:37 2020.
