 Gaussian 09, Revision D.01,
 Gaussian 09:  ES64L-G09RevD.01 24-Apr-2013

 --------------------
 #p B2PLYPD3/Def2QZVP
 --------------------

 ----------
 butane_opt
 ----------
 Symbolic Z-matrix:
 Charge =  0 Multiplicity = 1

                         Standard orientation:
 ---------------------------------------------------------------------
 Center     Atomic      Atomic             Coordinates (Angstroms)
 Number     Number       Type             X           Y           Z
 ---------------------------------------------------------------------
      1          6           0        1.909009   -0.138406   -0.000227
      2          6           0        0.522468    0.565246    0.015253
      3          1           0        2.594947    0.521647   -0.437898
      4          1           0        1.895828   -0.541943   -0.689515
      5          1           0        2.391884   -1.055299    1.038767
      6          6           0       -0.576687   -0.461331   -0.049205
      7          1           0        0.562516    1.163218   -0.815231
      8          1           0        0.455775    1.133976    0.918866
      9          6           0       -1.911705    0.075512    0.028708
     10          1           0       -0.432507   -1.111757    0.799764
     11          1           0       -0.519537   -1.068203   -0.881100
     12          1           0       -1.923191    0.842652    0.952307
     13          1           0       -2.698795   -0.610973   -0.193872
     14          1           0       -1.985433    0.480555   -0.659256
 ---------------------------------------------------------------------

 SCF Done:  E(RB2PLYPD3) =  -157.835730518     A.U. after   11 cycles
 E2(B2PLYPD3) =    -0.2471367015D+00 E(B2PLYPD3) =    -0.15808286721968D+03

 The electronic state is 1-A.
 Alpha  occ. eigenvalues --  -10.59848 -10.59054 -10.58323 -10.56344  -0.94188
 Alpha  occ. eigenvalues --   -0.87751  -0.76526  -0.68810  -0.55907  -0.51378
 Alpha  occ. eigenvalues --   -0.50072  -0.47467  -0.42424  -0.40323  -0.39114
 Alpha  occ. eigenvalues --   -0.38272  -0.37626
 Alpha virt. eigenvalues --    0.05307   0.06328   0.08105   0.08445   0.10627
 Alpha virt. eigenvalues --    0.11860   0.12779   0.13133   0.14356   0.15932
 Alpha virt. eigenvalues --    0.16169   0.17042   0.19295   0.19505   0.21683

 Mulliken charges:
               1
     1  C   -0.377892
     2  C   -0.009474
     3  H    0.035379
     4  H    0.244590
     5  H    0.030142
     6  C   -0.008526
     7  H    0.037738
     8  H    0.036915
     9  C   -0.335170
    10  H    0.035379
    11  H    0.020206
    12  H    0.040402
    13  H    0.035983
    14  H    0.214330
 Sum of Mulliken charges =   0.00000

 Dipole moment (field-independent basis, Debye):
    X=             -0.1648    Y=              0.1185    Z=             -0.9078  Tot=              0.9302
 Quadrupole moment (field-independent basis, Debye-Ang):
   XX=            -30.2015   YY=            -28.7249   ZZ=            -27.3265
   XY=              0.4304   XZ=             -0.1615   YZ=             -0.0583

 Normal termination of Gaussian 09 at Wed Aug 26 14:11:56 2020.
