 Gaussian 09, Revision D.01,
 Gaussian 09:  ES64L-G09RevD.01 24-Apr-2013

 --------------------
 #p B2PLYPD3/Def2QZVP
 --------------------

 ----------
 butane_opt
 ----------
 Symbolic Z-matrix:
 Charge =  0 Multiplicity = 1

                         Standard orientation:
 ---------------------------------------------------------------------
 Center     Atomic      Atomic             Coordinates (Angstroms)
 Number     Number       Type             X           Y           Z
 ---------------------------------------------------------------------
      1          6           0       -1.916801    0.067840    0.145459
      2          6           0       -0.648805   -0.543373   -0.156327
      3          1           0       -2.582371   -0.666371    0.475048
      4          1           0       -2.322652    0.890751   -0.902869
      5          1           0       -1.736161    0.388631    0.834446
      6          6           0        0.540093    0.636682   -0.129494
      7          1           0       -0.883006   -1.095858   -1.047038
      8          1           0       -0.373476   -0.982865    0.674799
      9          6           0        2.064920   -0.152707    0.020953
     10          1           0        0.269195    1.477696    1.069792
     11          1           0        0.215680    1.100005   -0.745601
     12          1           0        2.333115   -0.869642    1.075042
     13          1           0        2.739699    0.301912    0.005495
     14          1           0        2.103537   -0.594907   -0.722661
 ---------------------------------------------------------------------

 SCF Done:  E(RB2PLYPD3) =  -157.624834156     A.U. after   11 cycles
 E2(B2PLYPD3) =    -0.2503586971D+00 E(B2PLYPD3) =    -0.15787519285324D+03

 The electronic state is 1-A.
 Alpha  occ. eigenvalues --  -10.63696 -10.59032 -10.58793 -10.57608  -0.93609
 Alpha  occ. eigenvalues --   -0.87001  -0.78217  -0.69342  -0.57246  -0.53446
 Alpha  occ. eigenvalues --   -0.49670  -0.47042  -0.42299  -0.41899  -0.39722
 Alpha  occ. eigenvalues --   -0.35616  -0.34087
 Alpha virt. eigenvalues --    0.04609   0.05976   0.07153   0.08925   0.10154
 Alpha virt. eigenvalues --    0.11436   0.12571   0.13788   0.14226   0.14828
 Alpha virt. eigenvalues --    0.16212   0.16497   0.17682   0.19758   0.20974

 Mulliken charges:
               1
     1  C   -0.379231
     2  C   -0.065362
     3  H    0.047591
     4  H    0.015851
     5  H    0.277553
     6  C   -0.242043
     7  H    0.043885
     8  H    0.078255
     9  C   -0.303341
    10  H   -0.029363
    11  H    0.223703
    12  H    0.028811
    13  H    0.180328
    14  H    0.123364
 Sum of Mulliken charges =   0.00000

 Dipole moment (field-independent basis, Debye):
    X=              0.4953    Y=             -0.5143    Z=             -0.2496  Tot=              0.7564
 Quadrupole moment (field-independent basis, Debye-Ang):
   XX=            -28.2310   YY=            -29.9360   ZZ=            -27.3951
   XY=              0.4674   XZ=             -0.5271   YZ=             -0.8161

 Normal termination of Gaussian 09 at Wed Aug 26 12:14:49 2020.
