 Gaussian 09, Revision D.01,
 Gaussian 09:  ES64L-G09RevD.01 24-Apr-2013

 --------------------
 #p B2PLYPD3/Def2QZVP
 --------------------

 ----------
 butane_opt
 ----------
 Symbolic Z-matrix:
 Charge =  0 Multiplicity = 1

                         Standard orientation:
 ---------------------------------------------------------------------
 Center     Atomic      Atomic             Coordinates (Angstroms)
 Number     Number       Type             X           Y           Z
 ---------------------------------------------------------------------
      1          6           0        1.965389   -0.104108    0.078381
      2          6           0        0.507407    0.454416   -0.100418
      3          1           0        2.650682    0.627445   -0.185436
      4          1           0        1.935859   -0.862184   -0.809246
      5          1           0        2.277162   -0.762384    1.073084
      6          6           0       -0.590475   -0.435477    0.025186
      7          1           0        0.533478    1.327941   -1.279968
      8          1           0        0.370930    1.106856    0.687563
      9          6           0       -1.916627    0.089835    0.042527
     10          1           0       -0.440261   -1.052663    0.932142
     11          1           0       -0.277357   -1.097351   -0.663345
     12          1           0       -2.223721    1.235207    1.124926
     13          1           0       -2.805074   -0.946348   -0.641773
     14          1           0       -1.815860    0.395485   -0.512002
 ---------------------------------------------------------------------

 SCF Done:  E(RB2PLYPD3) =  -157.510942101     A.U. after   12 cycles
 E2(B2PLYPD3) =    -0.2563106165D+00 E(B2PLYPD3) =    -0.15776725271703D+03

 The electronic state is 1-A.
 Alpha  occ. eigenvalues --  -10.63602 -10.63531 -10.62841 -10.59633  -0.97620
 Alpha  occ. eigenvalues --   -0.86698  -0.76415  -0.66917  -0.56811  -0.49699
 Alpha  occ. eigenvalues --   -0.48095  -0.46099  -0.43092  -0.40014  -0.37631
 Alpha  occ. eigenvalues --   -0.36258  -0.34470
 Alpha virt. eigenvalues --    0.00407   0.05037   0.05820   0.06262   0.09759
 Alpha virt. eigenvalues --    0.10740   0.12081   0.12482   0.12960   0.14605
 Alpha virt. eigenvalues --    0.15484   0.16626   0.17855   0.19287   0.20282

 Mulliken charges:
               1
     1  C   -0.152456
     2  C   -0.051034
     3  H    0.076063
     4  H    0.024509
     5  H    0.047943
     6  C    0.044936
     7  H   -0.028842
     8  H    0.046773
     9  C   -0.789236
    10  H    0.029943
    11  H    0.040853
    12  H    0.040007
    13  H    0.030620
    14  H    0.639921
 Sum of Mulliken charges =   0.00000

 Dipole moment (field-independent basis, Debye):
    X=              0.6823    Y=             -0.0524    Z=             -0.0620  Tot=              0.6871
 Quadrupole moment (field-independent basis, Debye-Ang):
   XX=            -31.9097   YY=            -29.4191   ZZ=            -28.9690
   XY=             -0.1308   XZ=              0.9821   YZ=              0.7722

 Normal termination of Gaussian 09 at Wed Aug 26 18:55:25 2020.
