 Gaussian 09, Revision D.01,
 Gaussian 09:  ES64L-G09RevD.01 24-Apr-2013

 --------------------
 #p B2PLYPD3/Def2QZVP
 --------------------

 ----------
 butane_opt
 ----------
 Symbolic Z-matrix:
 Charge =  0 Multiplicity = 1

                         Standard orientation:
 ---------------------------------------------------------------------
 Center     Atomic      Atomic             Coordinates (Angstroms)
 Number     Number       Type             X           Y           Z
 ---------------------------------------------------------------------
      1          6           0       -1.994529    0.079052    0.145686
      2          6           0       -0.674803   -0.393201   -0.314967
      3          1           0       -2.918880   -0.914209    0.416897
      4          1           0       -2.361074    0.957368   -0.689686
      5          1           0       -1.624827    0.474075    1.015692
      6          6           0        0.548125    0.569926    0.008323
      7          1           0       -0.834271   -0.935009   -1.206700
      8          1           0       -0.253638   -1.238960    0.568192
      9          6           0        1.999146   -0.184529    0.078865
     10          1           0        0.427295    1.017673    1.054856
     11          1           0        0.781522    1.369242   -0.810495
     12          1           0        2.254051   -1.180083    0.957500
     13          1           0        2.674259    0.672310    0.014864
     14          1           0        2.587929   -0.649894   -0.828562
 ---------------------------------------------------------------------

 SCF Done:  E(RB2PLYPD3) =  -157.954188682     A.U. after   11 cycles
 E2(B2PLYPD3) =    -0.2547574322D+00 E(B2PLYPD3) =    -0.15820894611434D+03

 The electronic state is 1-A.
 Alpha  occ. eigenvalues --  -10.65365 -10.64174 -10.63518 -10.62783  -0.90519
 Alpha  occ. eigenvalues --   -0.82209  -0.70639  -0.65208  -0.54043  -0.48190
 Alpha  occ. eigenvalues --   -0.46486  -0.46024  -0.41320  -0.39823  -0.39452
 Alpha  occ. eigenvalues --   -0.35731  -0.33619
 Alpha virt. eigenvalues --    0.04587   0.05459   0.07451   0.08247   0.09687
 Alpha virt. eigenvalues --    0.09924   0.11803   0.12109   0.13775   0.14140
 Alpha virt. eigenvalues --    0.15065   0.16073   0.18896   0.19227   0.19678

 Mulliken charges:
               1
     1  C   -0.172506
     2  C   -0.042547
     3  H    0.037989
     4  H    0.038815
     5  H    0.069091
     6  C   -0.034489
     7  H    0.066848
     8  H   -0.003019
     9  C   -0.160762
    10  H    0.064607
    11  H    0.027921
    12  H    0.030937
    13  H    0.048555
    14  H    0.028558
 Sum of Mulliken charges =   0.00000

 Dipole moment (field-independent basis, Debye):
    X=              0.3262    Y=              0.3026    Z=             -0.2350  Tot=              0.5032
 Quadrupole moment (field-independent basis, Debye-Ang):
   XX=            -30.9913   YY=            -29.8917   ZZ=            -29.3123
   XY=              0.8597   XZ=             -0.3261   YZ=             -0.4460

 Normal termination of Gaussian 09 at Wed Aug 26 09:43:59 2020.
