 Gaussian 09, Revision D.01,
 Gaussian 09:  ES64L-G09RevD.01 24-Apr-2013

 --------------------
 #p B2PLYPD3/Def2QZVP
 --------------------

 ----------
 butane_opt
 ----------
 Symbolic Z-matrix:
 Charge =  0 Multiplicity = 1

                         Standard orientation:
 ---------------------------------------------------------------------
 Center     Atomic      Atomic             Coordinates (Angstroms)
 Number     Number       Type             X           Y           Z
 ---------------------------------------------------------------------
      1          6           0       -2.106341   -0.161436   -0.018577
      2          6           0       -0.483897    0.540999   -0.065075
      3          1           0       -2.684323    0.551880   -0.376723
      4          1           0       -2.512928   -1.116894    1.060637
      5          1           0       -1.952429   -0.351566   -0.490616
      6          6           0        0.641782   -0.439147   -0.034974
      7          1           0       -0.504364    1.405542    0.993283
      8          1           0       -0.350965    1.037063   -0.810198
      9          6           0        1.959078    0.043634    0.079827
     10          1           0        0.757503   -1.138759   -0.974413
     11          1           0        0.475690   -1.114400    0.933743
     12          1           0        1.778840    0.589620   -0.874993
     13          1           0        2.741820   -0.715046   -0.276003
     14          1           0        2.187420    0.948259    1.048082
 ---------------------------------------------------------------------

 SCF Done:  E(RB2PLYPD3) =  -157.135449122     A.U. after   12 cycles
 E2(B2PLYPD3) =    -0.2555657590D+00 E(B2PLYPD3) =    -0.15739101488095D+03

 The electronic state is 1-A.
 Alpha  occ. eigenvalues --  -10.62978 -10.62636 -10.62314 -10.62312  -0.94518
 Alpha  occ. eigenvalues --   -0.90091  -0.76990  -0.64416  -0.53977  -0.52046
 Alpha  occ. eigenvalues --   -0.50086  -0.46915  -0.42785  -0.41119  -0.38218
 Alpha  occ. eigenvalues --   -0.34323  -0.33642
 Alpha virt. eigenvalues --    0.04425   0.05397   0.06676   0.07639   0.09452
 Alpha virt. eigenvalues --    0.10569   0.11446   0.12240   0.13077   0.15057
 Alpha virt. eigenvalues --    0.15803   0.16305   0.17846   0.19060   0.20897

 Mulliken charges:
               1
     1  C   -0.892951
     2  C   -0.111605
     3  H    0.096469
     4  H    0.072131
     5  H    0.719519
     6  C   -0.021557
     7  H    0.001691
     8  H    0.120238
     9  C   -0.157816
    10  H    0.033381
    11  H    0.007266
    12  H    0.025473
    13  H    0.067136
    14  H    0.040624
 Sum of Mulliken charges =   0.00000

 Dipole moment (field-independent basis, Debye):
    X=             -0.1044    Y=             -0.1751    Z=             -0.8458  Tot=              0.8700
 Quadrupole moment (field-independent basis, Debye-Ang):
   XX=            -29.8872   YY=            -29.5657   ZZ=            -27.9480
   XY=             -0.8882   XZ=             -0.1338   YZ=             -0.2076

 Normal termination of Gaussian 09 at Wed Aug 26 18:34:21 2020.
