 Gaussian 09, Revision D.01,
 Gaussian 09:  ES64L-G09RevD.01 24-Apr-2013

 --------------------
 #p B2PLYPD3/Def2QZVP
 --------------------

 ----------
 butane_opt
 ----------
 Symbolic Z-matrix:
 Charge =  0 Multiplicity = 1

                         Standard orientation:
 ---------------------------------------------------------------------
 Center     Atomic      Atomic             Coordinates (Angstroms)
 Number     Number       Type             X           Y           Z
 ---------------------------------------------------------------------
      1          6           0       -2.054455   -0.158984   -0.224333
      2          6           0       -0.491028    0.585937    0.239130
      3          1           0       -2.762271    0.514595   -0.626495
      4          1           0       -2.449385   -0.988781    0.968398
      5          1           0       -1.880764   -0.676792   -0.912231
      6          6           0        0.651822   -0.409930    0.257010
      7          1           0       -0.392291    1.578285    1.173980
      8          1           0       -0.121771    0.926131   -0.591004
      9          6           0        1.907227    0.058530   -0.182109
     10          1           0        0.226915   -1.199465   -0.639411
     11          1           0        0.666497   -0.963031    1.260289
     12          1           0        1.837849    0.817130   -1.181297
     13          1           0        2.686778   -0.788340   -0.365197
     14          1           0        2.107052    0.326948    0.374782
 ---------------------------------------------------------------------

 SCF Done:  E(RB2PLYPD3) =  -157.563197661     A.U. after   11 cycles
 E2(B2PLYPD3) =    -0.2532919945D+00 E(B2PLYPD3) =    -0.15781648965503D+03

 The electronic state is 1-A.
 Alpha  occ. eigenvalues --  -10.63473 -10.63257 -10.62599 -10.58286  -0.95700
 Alpha  occ. eigenvalues --   -0.84947  -0.77618  -0.65373  -0.56465  -0.50174
 Alpha  occ. eigenvalues --   -0.49712  -0.44992  -0.43603  -0.42226  -0.37149
 Alpha  occ. eigenvalues --   -0.36645  -0.33988
 Alpha virt. eigenvalues --    0.04539   0.05665   0.06878   0.07975   0.10090
 Alpha virt. eigenvalues --    0.10605   0.11494   0.12825   0.14200   0.14965
 Alpha virt. eigenvalues --    0.16272   0.16632   0.17861   0.19445   0.19870

 Mulliken charges:
               1
     1  C   -0.239065
     2  C   -0.127901
     3  H    0.068161
     4  H    0.018364
     5  H    0.154983
     6  C    0.006187
     7  H    0.011031
     8  H    0.103861
     9  C   -0.670345
    10  H    0.005544
    11  H    0.033947
    12  H    0.051915
    13  H    0.074751
    14  H    0.508569
 Sum of Mulliken charges =   0.00000

 Dipole moment (field-independent basis, Debye):
    X=              0.5156    Y=              0.1208    Z=             -0.4654  Tot=              0.7050
 Quadrupole moment (field-independent basis, Debye-Ang):
   XX=            -29.6239   YY=            -30.1572   ZZ=            -27.9323
   XY=             -0.2737   XZ=              1.8419   YZ=             -0.2816

 Normal termination of Gaussian 09 at Wed Aug 26 11:20:58 2020.
