 Gaussian 09, Revision D.01,
 Gaussian 09:  ES64L-G09RevD.01 24-Apr-2013

 --------------------
 #p B2PLYPD3/Def2QZVP
 --------------------

 ----------
 butane_opt
 ----------
 Symbolic Z-matrix:
 Charge =  0 Multiplicity = 1

                         Standard orientation:
 ---------------------------------------------------------------------
 Center     Atomic      Atomic             Coordinates (Angstroms)
 Number     Number       Type             X           Y           Z
 ---------------------------------------------------------------------
      1          6           0        1.901115    0.062708   -0.176005
      2          6           0        0.519335   -0.488400    0.116405
      3          1           0        2.782938   -0.853243   -0.224975
      4          1           0        2.055467    0.579737    0.685036
      5          1           0        1.716200    1.126969   -1.226268
      6          6           0       -0.471140    0.535661    0.322544
      7          1           0        0.749760   -1.237816    1.140059
      8          1           0        0.175425   -1.063927   -0.785216
      9          6           0       -1.926239   -0.125437   -0.220180
     10          1           0       -0.311034    1.123450   -0.371624
     11          1           0       -0.351278    1.305322    1.359200
     12          1           0       -1.575092   -0.447078   -1.008334
     13          1           0       -2.596940    0.597680   -0.642813
     14          1           0       -2.783876   -1.038292    0.818351
 ---------------------------------------------------------------------

 SCF Done:  E(RB2PLYPD3) =  -157.835604205     A.U. after   11 cycles
 E2(B2PLYPD3) =    -0.2561296846D+00 E(B2PLYPD3) =    -0.15809173388938D+03

 The electronic state is 1-A.
 Alpha  occ. eigenvalues --  -10.64936 -10.63871 -10.63109 -10.62275  -0.93799
 Alpha  occ. eigenvalues --   -0.83018  -0.73956  -0.65868  -0.53631  -0.49938
 Alpha  occ. eigenvalues --   -0.48330  -0.44560  -0.41671  -0.39899  -0.38365
 Alpha  occ. eigenvalues --   -0.35817  -0.35113
 Alpha virt. eigenvalues --    0.02966   0.03891   0.06164   0.07280   0.09022
 Alpha virt. eigenvalues --    0.10432   0.11704   0.12012   0.14012   0.14396
 Alpha virt. eigenvalues --    0.15939   0.16543   0.17659   0.19396   0.19787

 Mulliken charges:
               1
     1  C   -0.165853
     2  C   -0.022309
     3  H    0.055980
     4  H    0.084777
     5  H   -0.011710
     6  C   -0.139143
     7  H    0.010769
     8  H    0.050303
     9  C   -0.221188
    10  H    0.128856
    11  H    0.023520
    12  H    0.134156
    13  H    0.049579
    14  H    0.022262
 Sum of Mulliken charges =   0.00000

 Dipole moment (field-independent basis, Debye):
    X=              0.1627    Y=              0.2504    Z=             -0.2065  Tot=              0.3631
 Quadrupole moment (field-independent basis, Debye-Ang):
   XX=            -31.7381   YY=            -30.1564   ZZ=            -29.1505
   XY=             -1.6241   XZ=              2.2515   YZ=             -0.0964

 Normal termination of Gaussian 09 at Wed Aug 26 15:45:57 2020.
