 Gaussian 09, Revision D.01,
 Gaussian 09:  ES64L-G09RevD.01 24-Apr-2013

 --------------------
 #p B2PLYPD3/Def2QZVP
 --------------------

 ----------
 butane_opt
 ----------
 Symbolic Z-matrix:
 Charge =  0 Multiplicity = 1

                         Standard orientation:
 ---------------------------------------------------------------------
 Center     Atomic      Atomic             Coordinates (Angstroms)
 Number     Number       Type             X           Y           Z
 ---------------------------------------------------------------------
      1          6           0        1.969733    0.031111   -0.093620
      2          6           0        0.634101   -0.528670    0.168077
      3          1           0        2.658547   -0.679240   -0.341888
      4          1           0        2.191984    1.016330    0.901693
      5          1           0        1.848241    0.506938   -0.887205
      6          6           0       -0.547817    0.652184    0.074622
      7          1           0        0.659053   -0.965261    1.046219
      8          1           0        0.467834   -1.055928   -0.667108
      9          6           0       -2.031568   -0.193764   -0.094133
     10          1           0       -0.262876    1.293311   -0.944508
     11          1           0       -0.548915    1.248799    0.778741
     12          1           0       -1.890588   -0.917591   -0.924881
     13          1           0       -2.687818    0.580762   -0.204664
     14          1           0       -2.582160   -0.793281    0.913926
 ---------------------------------------------------------------------

 SCF Done:  E(RB2PLYPD3) =  -157.949882292     A.U. after   11 cycles
 E2(B2PLYPD3) =    -0.2491006013D+00 E(B2PLYPD3) =    -0.15819898289354D+03

 The electronic state is 1-A.
 Alpha  occ. eigenvalues --  -10.62633 -10.62319 -10.59582 -10.58665  -0.91143
 Alpha  occ. eigenvalues --   -0.82277  -0.72835  -0.69024  -0.56129  -0.50497
 Alpha  occ. eigenvalues --   -0.49134  -0.45589  -0.43698  -0.40386  -0.38939
 Alpha  occ. eigenvalues --   -0.36520  -0.34772
 Alpha virt. eigenvalues --    0.05236   0.06022   0.08282   0.08537   0.10413
 Alpha virt. eigenvalues --    0.11419   0.12124   0.13155   0.14023   0.14989
 Alpha virt. eigenvalues --    0.16136   0.16523   0.18483   0.19637   0.20645

 Mulliken charges:
               1
     1  C   -0.169042
     2  C   -0.050984
     3  H    0.052938
     4  H   -0.001200
     5  H    0.076108
     6  C   -0.093985
     7  H    0.058490
     8  H    0.055702
     9  C   -0.191677
    10  H    0.010859
    11  H    0.090690
    12  H    0.064641
    13  H    0.071836
    14  H    0.025626
 Sum of Mulliken charges =   0.00000

 Dipole moment (field-independent basis, Debye):
    X=             -0.1600    Y=             -0.1613    Z=             -0.3735  Tot=              0.4372
 Quadrupole moment (field-independent basis, Debye-Ang):
   XX=            -30.8147   YY=            -28.7798   ZZ=            -28.0965
   XY=             -1.4392   XZ=             -1.2989   YZ=              0.6399

 Normal termination of Gaussian 09 at Wed Aug 26 13:09:41 2020.
