 Gaussian 09, Revision D.01,
 Gaussian 09:  ES64L-G09RevD.01 24-Apr-2013

 --------------------
 #p B2PLYPD3/Def2QZVP
 --------------------

 ----------
 butane_opt
 ----------
 Symbolic Z-matrix:
 Charge =  0 Multiplicity = 1

                         Standard orientation:
 ---------------------------------------------------------------------
 Center     Atomic      Atomic             Coordinates (Angstroms)
 Number     Number       Type             X           Y           Z
 ---------------------------------------------------------------------
      1          6           0        1.931711   -0.164062    0.066069
      2          6           0        0.483409    0.565711   -0.196620
      3          1           0        2.692429    0.594322    0.494977
      4          1           0        2.465058   -0.907209   -0.719953
      5          1           0        2.094628   -0.605038    0.866173
      6          6           0       -0.608964   -0.468635    0.005234
      7          1           0        0.643362    1.023886   -1.114431
      8          1           0        0.330261    1.118122    0.494253
      9          6           0       -1.856654    0.082436    0.002486
     10          1           0       -0.604192   -1.056023    1.017516
     11          1           0       -0.607817   -1.005859   -0.755108
     12          1           0       -1.981327    1.168619    1.240813
     13          1           0       -2.698880   -0.820313   -0.072622
     14          1           0       -2.030537    0.396790   -0.714633
 ---------------------------------------------------------------------

 SCF Done:  E(RB2PLYPD3) =  -157.787278754     A.U. after   11 cycles
 E2(B2PLYPD3) =    -0.2501491315D+00 E(B2PLYPD3) =    -0.15803742788578D+03

 The electronic state is 1-A.
 Alpha  occ. eigenvalues --  -10.61811 -10.59943 -10.59339 -10.58834  -0.96073
 Alpha  occ. eigenvalues --   -0.85485  -0.76017  -0.70174  -0.58881  -0.52144
 Alpha  occ. eigenvalues --   -0.48949  -0.47799  -0.42391  -0.41087  -0.38725
 Alpha  occ. eigenvalues --   -0.36674  -0.34220
 Alpha virt. eigenvalues --    0.02975   0.06142   0.07085   0.08279   0.10430
 Alpha virt. eigenvalues --    0.10771   0.12051   0.13165   0.14161   0.15002
 Alpha virt. eigenvalues --    0.15383   0.16822   0.19045   0.20155   0.20748

 Mulliken charges:
               1
     1  C   -0.177996
     2  C   -0.114743
     3  H    0.009484
     4  H    0.037121
     5  H    0.070345
     6  C   -0.020140
     7  H    0.052959
     8  H    0.115841
     9  C   -0.303123
    10  H    0.047463
    11  H    0.069526
    12  H   -0.034707
    13  H    0.032695
    14  H    0.215274
 Sum of Mulliken charges =   0.00000

 Dipole moment (field-independent basis, Debye):
    X=              0.1619    Y=             -0.4373    Z=             -0.5745  Tot=              0.7399
 Quadrupole moment (field-independent basis, Debye-Ang):
   XX=            -31.5026   YY=            -29.3063   ZZ=            -27.7503
   XY=              0.9387   XZ=              2.4766   YZ=              0.1387

 Normal termination of Gaussian 09 at Wed Aug 26 15:04:10 2020.
