 Gaussian 09, Revision D.01,
 Gaussian 09:  ES64L-G09RevD.01 24-Apr-2013

 --------------------
 #p B2PLYPD3/Def2QZVP
 --------------------

 ----------
 butane_opt
 ----------
 Symbolic Z-matrix:
 Charge =  0 Multiplicity = 1

                         Standard orientation:
 ---------------------------------------------------------------------
 Center     Atomic      Atomic             Coordinates (Angstroms)
 Number     Number       Type             X           Y           Z
 ---------------------------------------------------------------------
      1          6           0       -1.839873    0.033064   -0.238547
      2          6           0       -0.549366   -0.467902    0.130533
      3          1           0       -2.650134   -0.745131   -0.117904
      4          1           0       -1.722233    0.953038   -1.143549
      5          1           0       -2.079777    0.725055    0.640970
      6          6           0        0.484746    0.593942    0.384553
      7          1           0       -0.315654   -1.023977   -0.832348
      8          1           0       -0.900116   -1.311099    1.179926
      9          6           0        1.937765   -0.163172   -0.191272
     10          1           0        0.334947    1.283765    1.224831
     11          1           0        0.272764    1.201945   -0.493126
     12          1           0        2.610838   -1.152247    0.824971
     13          1           0        2.714032    0.654478   -0.780510
     14          1           0        1.535695   -0.561421   -1.014866
 ---------------------------------------------------------------------

 SCF Done:  E(RB2PLYPD3) =  -157.903113609     A.U. after   11 cycles
 E2(B2PLYPD3) =    -0.2572195096D+00 E(B2PLYPD3) =    -0.15816033311857D+03

 The electronic state is 1-A.
 Alpha  occ. eigenvalues --  -10.66610 -10.63714 -10.63338 -10.62564  -0.92698
 Alpha  occ. eigenvalues --   -0.81685  -0.71858  -0.64673  -0.53274  -0.49770
 Alpha  occ. eigenvalues --   -0.47838  -0.44616  -0.43110  -0.38489  -0.37418
 Alpha  occ. eigenvalues --   -0.35282  -0.34902
 Alpha virt. eigenvalues --    0.03410   0.05064   0.06085   0.07789   0.09153
 Alpha virt. eigenvalues --    0.10295   0.11562   0.12237   0.13468   0.14584
 Alpha virt. eigenvalues --    0.15943   0.16542   0.17800   0.18752   0.19214

 Mulliken charges:
               1
     1  C   -0.138964
     2  C   -0.035524
     3  H    0.067887
     4  H    0.018417
     5  H    0.024120
     6  C   -0.093772
     7  H    0.054107
     8  H   -0.008459
     9  C   -0.208477
    10  H    0.071483
    11  H    0.060212
    12  H    0.035983
    13  H    0.035763
    14  H    0.117225
 Sum of Mulliken charges =   0.00000

 Dipole moment (field-independent basis, Debye):
    X=             -0.4560    Y=              0.3914    Z=             -0.3223  Tot=              0.6819
 Quadrupole moment (field-independent basis, Debye-Ang):
   XX=            -32.3980   YY=            -29.9722   ZZ=            -29.0701
   XY=              0.9220   XZ=             -1.3523   YZ=             -0.0112

 Normal termination of Gaussian 09 at Wed Aug 26 13:26:23 2020.
