 Gaussian 09, Revision D.01,
 Gaussian 09:  ES64L-G09RevD.01 24-Apr-2013

 --------------------
 #p B2PLYPD3/Def2QZVP
 --------------------

 ----------
 butane_opt
 ----------
 Symbolic Z-matrix:
 Charge =  0 Multiplicity = 1

                         Standard orientation:
 ---------------------------------------------------------------------
 Center     Atomic      Atomic             Coordinates (Angstroms)
 Number     Number       Type             X           Y           Z
 ---------------------------------------------------------------------
      1          6           0       -1.936585   -0.137566    0.098791
      2          6           0       -0.608979    0.519157   -0.147301
      3          1           0       -2.800772    0.726363    0.078989
      4          1           0       -2.044084   -0.768669    0.974788
      5          1           0       -2.086706   -0.562476   -0.623128
      6          6           0        0.566177   -0.567366   -0.055426
      7          1           0       -0.356300    1.125637    0.601622
      8          1           0       -0.621465    1.177310   -1.053195
      9          6           0        1.980804    0.139707    0.054280
     10          1           0        0.462259   -1.264452   -0.875667
     11          1           0        0.401976   -1.181354    0.866724
     12          1           0        2.192183    0.418909   -0.624415
     13          1           0        2.619850   -0.550217   -0.169113
     14          1           0        2.224555    1.155360    1.121329
 ---------------------------------------------------------------------

 SCF Done:  E(RB2PLYPD3) =  -157.817721294     A.U. after   11 cycles
 E2(B2PLYPD3) =    -0.2479421444D+00 E(B2PLYPD3) =    -0.15806566343787D+03

 The electronic state is 1-A.
 Alpha  occ. eigenvalues --  -10.61773 -10.59435 -10.58794 -10.57808  -0.91818
 Alpha  occ. eigenvalues --   -0.87447  -0.76405  -0.68592  -0.54347  -0.49568
 Alpha  occ. eigenvalues --   -0.48565  -0.46757  -0.42964  -0.41160  -0.39999
 Alpha  occ. eigenvalues --   -0.38325  -0.35209
 Alpha virt. eigenvalues --    0.04831   0.06233   0.07877   0.08472   0.10827
 Alpha virt. eigenvalues --    0.11439   0.12546   0.13544   0.14979   0.15659
 Alpha virt. eigenvalues --    0.15950   0.16614   0.19001   0.19556   0.21594

 Mulliken charges:
               1
     1  C   -0.249889
     2  C   -0.039257
     3  H    0.016420
     4  H    0.051405
     5  H    0.146514
     6  C   -0.017230
     7  H    0.055534
     8  H    0.022555
     9  C   -0.405910
    10  H    0.024564
    11  H    0.037069
    12  H    0.272878
    13  H    0.047314
    14  H    0.038034
 Sum of Mulliken charges =   0.00000

 Dipole moment (field-independent basis, Debye):
    X=              0.1806    Y=             -0.2423    Z=             -0.5636  Tot=              0.6395
 Quadrupole moment (field-independent basis, Debye-Ang):
   XX=            -29.7637   YY=            -28.3313   ZZ=            -27.8904
   XY=              0.1512   XZ=             -1.0109   YZ=              0.3424

 Normal termination of Gaussian 09 at Wed Aug 26 21:13:17 2020.
