 Gaussian 09, Revision D.01,
 Gaussian 09:  ES64L-G09RevD.01 24-Apr-2013

 --------------------
 #p B2PLYPD3/Def2QZVP
 --------------------

 ----------
 butane_opt
 ----------
 Symbolic Z-matrix:
 Charge =  0 Multiplicity = 1

                         Standard orientation:
 ---------------------------------------------------------------------
 Center     Atomic      Atomic             Coordinates (Angstroms)
 Number     Number       Type             X           Y           Z
 ---------------------------------------------------------------------
      1          6           0        1.968528    0.040640    0.187226
      2          6           0        0.608037   -0.498582   -0.242668
      3          1           0        2.778172   -0.677643   -0.057929
      4          1           0        1.906918    0.832101    1.476028
      5          1           0        2.218838    0.511589   -0.527985
      6          6           0       -0.517967    0.667642   -0.240025
      7          1           0        0.154227   -1.516156    0.789790
      8          1           0        0.666120   -0.977628   -1.095488
      9          6           0       -2.013172   -0.146849    0.187972
     10          1           0       -0.485657    1.586725   -1.128520
     11          1           0       -0.306234    1.092395    0.452560
     12          1           0       -2.741320   -1.014001   -1.013197
     13          1           0       -2.641611    0.463084    0.823291
     14          1           0       -1.822004   -0.677570    0.926420
 ---------------------------------------------------------------------

 SCF Done:  E(RB2PLYPD3) =  -157.714083712     A.U. after   11 cycles
 E2(B2PLYPD3) =    -0.2561900672D+00 E(B2PLYPD3) =    -0.15797027377954D+03

 The electronic state is 1-A.
 Alpha  occ. eigenvalues --  -10.64697 -10.64051 -10.62836 -10.62479  -0.91144
 Alpha  occ. eigenvalues --   -0.84027  -0.76016  -0.69280  -0.52723  -0.48034
 Alpha  occ. eigenvalues --   -0.47227  -0.45793  -0.42056  -0.39528  -0.38101
 Alpha  occ. eigenvalues --   -0.35740  -0.34031
 Alpha virt. eigenvalues --    0.02700   0.03353   0.05841   0.07393   0.08810
 Alpha virt. eigenvalues --    0.10157   0.11200   0.12678   0.13714   0.14974
 Alpha virt. eigenvalues --    0.15954   0.16330   0.17690   0.18452   0.19028

 Mulliken charges:
               1
     1  C   -0.220299
     2  C   -0.026709
     3  H    0.047204
     4  H    0.032865
     5  H    0.126781
     6  C   -0.242392
     7  H   -0.033481
     8  H    0.080568
     9  C   -0.209397
    10  H    0.031901
    11  H    0.219408
    12  H    0.015406
    13  H    0.046142
    14  H    0.132001
 Sum of Mulliken charges =   0.00000

 Dipole moment (field-independent basis, Debye):
    X=              0.7717    Y=              0.5372    Z=             -0.0889  Tot=              0.9445
 Quadrupole moment (field-independent basis, Debye-Ang):
   XX=            -31.1333   YY=            -30.2127   ZZ=            -28.1107
   XY=             -0.2066   XZ=             -3.2291   YZ=              0.9859

 Normal termination of Gaussian 09 at Wed Aug 26 13:32:24 2020.
