 Gaussian 09, Revision D.01,
 Gaussian 09:  ES64L-G09RevD.01 24-Apr-2013

 --------------------
 #p B2PLYPD3/Def2QZVP
 --------------------

 ----------
 butane_opt
 ----------
 Symbolic Z-matrix:
 Charge =  0 Multiplicity = 1

                         Standard orientation:
 ---------------------------------------------------------------------
 Center     Atomic      Atomic             Coordinates (Angstroms)
 Number     Number       Type             X           Y           Z
 ---------------------------------------------------------------------
      1          6           0       -1.961161    0.053991    0.104031
      2          6           0       -0.528251   -0.500642   -0.176703
      3          1           0       -2.730910   -0.584899   -0.292795
      4          1           0       -2.187017    0.213658   -0.465004
      5          1           0       -2.383077    1.139066    1.512941
      6          6           0        0.560900    0.570716   -0.167076
      7          1           0       -0.540692   -0.943541   -1.039342
      8          1           0       -0.777024   -1.245948    0.657855
      9          6           0        2.009889   -0.134059    0.090687
     10          1           0        0.303261    1.025529    0.776620
     11          1           0        0.428080    1.548497   -1.215501
     12          1           0        2.147521   -1.086184    1.153654
     13          1           0        2.839774    0.524219    0.341554
     14          1           0        2.411824   -0.530426   -0.535617
 ---------------------------------------------------------------------

 SCF Done:  E(RB2PLYPD3) =  -157.359439581     A.U. after   13 cycles
 E2(B2PLYPD3) =    -0.2578759264D+00 E(B2PLYPD3) =    -0.15761731550714D+03

 The electronic state is 1-A.
 Alpha  occ. eigenvalues --  -10.65573 -10.61415 -10.61215 -10.61061  -0.95888
 Alpha  occ. eigenvalues --   -0.87128  -0.79595  -0.68800  -0.55575  -0.49358
 Alpha  occ. eigenvalues --   -0.47147  -0.44884  -0.40765  -0.38275  -0.37211
 Alpha  occ. eigenvalues --   -0.36299  -0.33948
 Alpha virt. eigenvalues --   -0.00392   0.04393   0.05521   0.06591   0.09819
 Alpha virt. eigenvalues --    0.10601   0.11847   0.12665   0.13966   0.14965
 Alpha virt. eigenvalues --    0.15998   0.16194   0.19064   0.19392   0.20572

 Mulliken charges:
               1
     1  C   -0.741839
     2  C   -0.029330
     3  H    0.046130
     4  H    0.581218
     5  H    0.024150
     6  C   -0.070882
     7  H    0.055160
     8  H    0.069120
     9  C   -0.229004
    10  H    0.073694
    11  H    0.024072
    12  H    0.008790
    13  H    0.037239
    14  H    0.151484
 Sum of Mulliken charges =   0.00000

 Dipole moment (field-independent basis, Debye):
    X=             -0.0806    Y=             -0.1291    Z=             -1.0109  Tot=              1.0223
 Quadrupole moment (field-independent basis, Debye-Ang):
   XX=            -28.5948   YY=            -30.2206   ZZ=            -28.4006
   XY=              0.5048   XZ=              1.1830   YZ=              0.6816

 Normal termination of Gaussian 09 at Wed Aug 26 22:12:02 2020.
