 Gaussian 09, Revision D.01,
 Gaussian 09:  ES64L-G09RevD.01 24-Apr-2013

 --------------------
 #p B2PLYPD3/Def2QZVP
 --------------------

 ----------
 butane_opt
 ----------
 Symbolic Z-matrix:
 Charge =  0 Multiplicity = 1

                         Standard orientation:
 ---------------------------------------------------------------------
 Center     Atomic      Atomic             Coordinates (Angstroms)
 Number     Number       Type             X           Y           Z
 ---------------------------------------------------------------------
      1          6           0        2.006799   -0.236580   -0.134000
      2          6           0        0.554564    0.566542    0.055105
      3          1           0        2.782364    0.407482   -0.324356
      4          1           0        1.763991   -1.132802   -0.898228
      5          1           0        2.427964   -0.385080    0.746577
      6          6           0       -0.637139   -0.299389    0.355299
      7          1           0        0.022132    0.838723   -1.004001
      8          1           0        0.513845    1.529309    0.760963
      9          6           0       -1.841635    0.045600   -0.190125
     10          1           0       -0.645673   -0.874375    1.680323
     11          1           0       -0.632717   -1.157344   -0.297036
     12          1           0       -2.526331    0.855467    0.510367
     13          1           0       -2.827394   -0.992427   -0.587915
     14          1           0       -1.373716    0.454015   -1.104368
 ---------------------------------------------------------------------

 SCF Done:  E(RB2PLYPD3) =  -157.886978500     A.U. after   11 cycles
 E2(B2PLYPD3) =    -0.2569452274D+00 E(B2PLYPD3) =    -0.15814392372702D+03

 The electronic state is 1-A.
 Alpha  occ. eigenvalues --  -10.65234 -10.65016 -10.63071 -10.61611  -0.95277
 Alpha  occ. eigenvalues --   -0.84212  -0.73510  -0.63052  -0.55118  -0.51099
 Alpha  occ. eigenvalues --   -0.48131  -0.46715  -0.42735  -0.40259  -0.38274
 Alpha  occ. eigenvalues --   -0.34670  -0.32949
 Alpha virt. eigenvalues --    0.03951   0.05984   0.06102   0.07593   0.08949
 Alpha virt. eigenvalues --    0.10307   0.12491   0.13453   0.14044   0.15234
 Alpha virt. eigenvalues --    0.15531   0.16055   0.16929   0.19096   0.20067

 Mulliken charges:
               1
     1  C   -0.126866
     2  C   -0.071515
     3  H    0.044444
     4  H    0.066828
     5  H    0.055698
     6  C   -0.022321
     7  H    0.014010
     8  H    0.041389
     9  C   -0.154303
    10  H   -0.023545
    11  H    0.070422
    12  H    0.028430
    13  H    0.012214
    14  H    0.065116
 Sum of Mulliken charges =   0.00000

 Dipole moment (field-independent basis, Debye):
    X=              0.9053    Y=              0.1158    Z=             -0.2898  Tot=              0.9576
 Quadrupole moment (field-independent basis, Debye-Ang):
   XX=            -30.0203   YY=            -30.3800   ZZ=            -30.1141
   XY=              0.4002   XZ=              0.8885   YZ=              1.6468

 Normal termination of Gaussian 09 at Wed Aug 26 11:23:20 2020.
