 Gaussian 09, Revision D.01,
 Gaussian 09:  ES64L-G09RevD.01 24-Apr-2013

 --------------------
 #p B2PLYPD3/Def2QZVP
 --------------------

 ----------
 butane_opt
 ----------
 Symbolic Z-matrix:
 Charge =  0 Multiplicity = 1

                         Standard orientation:
 ---------------------------------------------------------------------
 Center     Atomic      Atomic             Coordinates (Angstroms)
 Number     Number       Type             X           Y           Z
 ---------------------------------------------------------------------
      1          6           0       -1.874403    0.057867    0.048054
      2          6           0       -0.565867   -0.416896   -0.073250
      3          1           0       -2.910171   -0.896814   -0.247932
      4          1           0       -1.713674    0.324495   -0.542753
      5          1           0       -2.088671    1.308741    1.377048
      6          6           0        0.521145    0.487595   -0.163687
      7          1           0       -0.488341   -1.067237   -1.034036
      8          1           0       -0.390254   -1.103189    0.883484
      9          6           0        1.964619   -0.105951    0.062705
     10          1           0        0.117446    1.123485    0.660231
     11          1           0        0.331373    1.220785   -1.165444
     12          1           0        1.895266   -1.028247    1.256537
     13          1           0        2.657642    0.413224    0.153032
     14          1           0        2.316421   -0.430939   -0.583100
 ---------------------------------------------------------------------

 SCF Done:  E(RB2PLYPD3) =  -157.376951888     A.U. after   12 cycles
 E2(B2PLYPD3) =    -0.2582467918D+00 E(B2PLYPD3) =    -0.15763519868009D+03

 The electronic state is 1-A.
 Alpha  occ. eigenvalues --  -10.63665 -10.63549 -10.62403 -10.59761  -0.99877
 Alpha  occ. eigenvalues --   -0.90273  -0.80636  -0.65194  -0.56088  -0.52130
 Alpha  occ. eigenvalues --   -0.49554  -0.48134  -0.42850  -0.38487  -0.37614
 Alpha  occ. eigenvalues --   -0.35557  -0.33304
 Alpha virt. eigenvalues --   -0.00613   0.04275   0.05013   0.06777   0.09448
 Alpha virt. eigenvalues --    0.10065   0.11677   0.12820   0.13791   0.14586
 Alpha virt. eigenvalues --    0.15540   0.16096   0.18133   0.20090   0.21444

 Mulliken charges:
               1
     1  C   -0.726636
     2  C    0.031497
     3  H    0.069037
     4  H    0.590987
     5  H   -0.020860
     6  C   -0.024760
     7  H    0.026317
     8  H    0.021857
     9  C   -0.301247
    10  H    0.046306
    11  H    0.003801
    12  H    0.011061
    13  H    0.093699
    14  H    0.178941
 Sum of Mulliken charges =   0.00000

 Dipole moment (field-independent basis, Debye):
    X=              0.8630    Y=             -0.2218    Z=             -1.1072  Tot=              1.4212
 Quadrupole moment (field-independent basis, Debye-Ang):
   XX=            -29.6102   YY=            -30.6942   ZZ=            -29.0495
   XY=              1.6535   XZ=              0.2099   YZ=              0.1621

 Normal termination of Gaussian 09 at Wed Aug 26 09:46:10 2020.
