 Gaussian 09, Revision D.01,
 Gaussian 09:  ES64L-G09RevD.01 24-Apr-2013

 --------------------
 #p B2PLYPD3/Def2QZVP
 --------------------

 ----------
 butane_opt
 ----------
 Symbolic Z-matrix:
 Charge =  0 Multiplicity = 1

                         Standard orientation:
 ---------------------------------------------------------------------
 Center     Atomic      Atomic             Coordinates (Angstroms)
 Number     Number       Type             X           Y           Z
 ---------------------------------------------------------------------
      1          6           0        1.930535   -0.067549   -0.256703
      2          6           0        0.563600    0.412990    0.238939
      3          1           0        2.590104    0.528792   -0.287489
      4          1           0        1.729640   -0.525589   -1.162997
      5          1           0        2.256612   -0.940432    0.658133
      6          6           0       -0.510543   -0.480185    0.121131
      7          1           0        0.071363    0.887059   -0.240057
      8          1           0        0.772711    1.453973    1.502356
      9          6           0       -1.924161    0.126617   -0.120762
     10          1           0       -0.511549   -1.425679    1.090317
     11          1           0       -0.316217   -0.890285   -0.722695
     12          1           0       -1.981131    0.576680    0.566102
     13          1           0       -2.923250   -0.875433   -0.072205
     14          1           0       -2.044871    1.259685   -1.227100
 ---------------------------------------------------------------------

 SCF Done:  E(RB2PLYPD3) =  -157.637523433     A.U. after   12 cycles
 E2(B2PLYPD3) =    -0.2557239886D+00 E(B2PLYPD3) =    -0.15789324742133D+03

 The electronic state is 1-A.
 Alpha  occ. eigenvalues --  -10.65226 -10.63268 -10.62194 -10.60886  -0.98506
 Alpha  occ. eigenvalues --   -0.85357  -0.78318  -0.68564  -0.55605  -0.53775
 Alpha  occ. eigenvalues --   -0.49854  -0.45173  -0.43368  -0.41561  -0.37861
 Alpha  occ. eigenvalues --   -0.36115  -0.32459
 Alpha virt. eigenvalues --    0.02112   0.03183   0.05688   0.06380   0.09926
 Alpha virt. eigenvalues --    0.10792   0.12310   0.12568   0.13044   0.14257
 Alpha virt. eigenvalues --    0.15159   0.15794   0.17392   0.19804   0.20508

 Mulliken charges:
               1
     1  C   -0.153760
     2  C   -0.184771
     3  H    0.098662
     4  H    0.058255
     5  H    0.027067
     6  C   -0.082460
     7  H    0.216081
     8  H   -0.061556
     9  C   -0.370547
    10  H    0.000045
    11  H    0.111630
    12  H    0.272295
    13  H    0.057592
    14  H    0.011465
 Sum of Mulliken charges =   0.00000

 Dipole moment (field-independent basis, Debye):
    X=              0.0835    Y=             -0.2961    Z=             -0.7674  Tot=              0.8268
 Quadrupole moment (field-independent basis, Debye-Ang):
   XX=            -29.5356   YY=            -30.5574   ZZ=            -30.2607
   XY=              0.6069   XZ=             -1.4914   YZ=             -0.7779

 Normal termination of Gaussian 09 at Wed Aug 26 18:43:39 2020.
