 Gaussian 09, Revision D.01,
 Gaussian 09:  ES64L-G09RevD.01 24-Apr-2013

 --------------------
 #p B2PLYPD3/Def2QZVP
 --------------------

 ----------
 butane_opt
 ----------
 Symbolic Z-matrix:
 Charge =  0 Multiplicity = 1

                         Standard orientation:
 ---------------------------------------------------------------------
 Center     Atomic      Atomic             Coordinates (Angstroms)
 Number     Number       Type             X           Y           Z
 ---------------------------------------------------------------------
      1          6           0        1.966855   -0.177989   -0.139694
      2          6           0        0.461352    0.583060    0.196255
      3          1           0        2.643360    0.343940   -0.677022
      4          1           0        1.843500   -1.139749   -1.049932
      5          1           0        2.310542   -0.750537    0.926875
      6          6           0       -0.568007   -0.311526    0.205467
      7          1           0        0.233295    1.127455   -0.729228
      8          1           0        0.712464    1.464992    1.073420
      9          6           0       -1.904284    0.029025   -0.211427
     10          1           0       -0.691348   -1.072846    1.266069
     11          1           0       -0.181871   -0.943552   -0.399955
     12          1           0       -1.991142    0.551699    0.641322
     13          1           0       -2.828336   -0.954673   -0.036466
     14          1           0       -1.785958    0.637850   -1.318691
 ---------------------------------------------------------------------

 SCF Done:  E(RB2PLYPD3) =  -157.897269243     A.U. after   11 cycles
 E2(B2PLYPD3) =    -0.2548058730D+00 E(B2PLYPD3) =    -0.15815207511644D+03

 The electronic state is 1-A.
 Alpha  occ. eigenvalues --  -10.64635 -10.63940 -10.63010 -10.59932  -0.95735
 Alpha  occ. eigenvalues --   -0.81884  -0.73682  -0.65417  -0.55056  -0.50396
 Alpha  occ. eigenvalues --   -0.48300  -0.45291  -0.43576  -0.38784  -0.38248
 Alpha  occ. eigenvalues --   -0.35214  -0.34501
 Alpha virt. eigenvalues --    0.04686   0.05671   0.06573   0.07611   0.10424
 Alpha virt. eigenvalues --    0.11358   0.11929   0.12298   0.13109   0.14515
 Alpha virt. eigenvalues --    0.15398   0.15640   0.18617   0.19304   0.20538

 Mulliken charges:
               1
     1  C   -0.180471
     2  C   -0.049165
     3  H    0.085570
     4  H    0.000570
     5  H    0.056965
     6  C   -0.030686
     7  H    0.039998
     8  H    0.024159
     9  C   -0.168688
    10  H   -0.023531
    11  H    0.089798
    12  H    0.077656
    13  H    0.039278
    14  H    0.038547
 Sum of Mulliken charges =   0.00000

 Dipole moment (field-independent basis, Debye):
    X=              0.2644    Y=              0.1951    Z=             -0.2327  Tot=              0.4026
 Quadrupole moment (field-independent basis, Debye-Ang):
   XX=            -31.0296   YY=            -30.3695   ZZ=            -28.8018
   XY=              0.9883   XZ=             -0.8681   YZ=             -0.3337

 Normal termination of Gaussian 09 at Wed Aug 26 19:06:15 2020.
