 Gaussian 09, Revision D.01,
 Gaussian 09:  ES64L-G09RevD.01 24-Apr-2013

 --------------------
 #p B2PLYPD3/Def2QZVP
 --------------------

 ----------
 butane_opt
 ----------
 Symbolic Z-matrix:
 Charge =  0 Multiplicity = 1

                         Standard orientation:
 ---------------------------------------------------------------------
 Center     Atomic      Atomic             Coordinates (Angstroms)
 Number     Number       Type             X           Y           Z
 ---------------------------------------------------------------------
      1          6           0        1.942312   -0.001411   -0.219959
      2          6           0        0.652003   -0.349376    0.293901
      3          1           0        2.833946   -0.897842   -0.321520
      4          1           0        2.605211    0.973796    0.617998
      5          1           0        1.836560    0.281809   -1.156296
      6          6           0       -0.532143    0.607349    0.008158
      7          1           0        0.559800   -0.971827    1.692245
      8          1           0        0.405305   -1.039246   -0.352334
      9          6           0       -2.069814   -0.185095   -0.144801
     10          1           0       -0.159608    0.889646   -0.735327
     11          1           0       -0.600013    1.673481    0.869248
     12          1           0       -2.221585   -1.237878   -0.841232
     13          1           0       -2.933114    0.543781   -0.265454
     14          1           0       -2.280652   -0.644516    0.868882
 ---------------------------------------------------------------------

 SCF Done:  E(RB2PLYPD3) =  -157.849678705     A.U. after   11 cycles
 E2(B2PLYPD3) =    -0.2549352975D+00 E(B2PLYPD3) =    -0.15810461400295D+03

 The electronic state is 1-A.
 Alpha  occ. eigenvalues --  -10.64925 -10.64573 -10.63954 -10.63755  -0.93920
 Alpha  occ. eigenvalues --   -0.81797  -0.73900  -0.66555  -0.53041  -0.50011
 Alpha  occ. eigenvalues --   -0.47776  -0.45656  -0.42035  -0.40367  -0.39003
 Alpha  occ. eigenvalues --   -0.34736  -0.34546
 Alpha virt. eigenvalues --    0.03696   0.05571   0.06637   0.07301   0.08933
 Alpha virt. eigenvalues --    0.10497   0.11853   0.12786   0.13340   0.13903
 Alpha virt. eigenvalues --    0.15532   0.15769   0.18307   0.19133   0.19676

 Mulliken charges:
               1
     1  C   -0.167642
     2  C   -0.076054
     3  H    0.046883
     4  H    0.005757
     5  H    0.085638
     6  C   -0.160434
     7  H   -0.019007
     8  H    0.114824
     9  C   -0.161761
    10  H    0.161877
    11  H    0.013152
    12  H    0.033322
    13  H    0.065548
    14  H    0.057898
 Sum of Mulliken charges =   0.00000

 Dipole moment (field-independent basis, Debye):
    X=             -0.2750    Y=             -0.2457    Z=             -0.9297  Tot=              1.0002
 Quadrupole moment (field-independent basis, Debye-Ang):
   XX=            -29.8168   YY=            -30.2058   ZZ=            -29.8860
   XY=             -0.4415   XZ=             -1.4326   YZ=              0.8153

 Normal termination of Gaussian 09 at Wed Aug 26 21:50:11 2020.
