 Gaussian 09, Revision D.01,
 Gaussian 09:  ES64L-G09RevD.01 24-Apr-2013

 --------------------
 #p B2PLYPD3/Def2QZVP
 --------------------

 ----------
 butane_opt
 ----------
 Symbolic Z-matrix:
 Charge =  0 Multiplicity = 1

                         Standard orientation:
 ---------------------------------------------------------------------
 Center     Atomic      Atomic             Coordinates (Angstroms)
 Number     Number       Type             X           Y           Z
 ---------------------------------------------------------------------
      1          6           0        1.886801    0.062422   -0.095599
      2          6           0        0.536750   -0.445277    0.215550
      3          1           0        2.776041   -0.768515   -0.770377
      4          1           0        2.189995    1.080195    0.845888
      5          1           0        1.713858    0.207894   -0.678341
      6          6           0       -0.460784    0.595364    0.063237
      7          1           0        0.693800   -1.157226    1.097255
      8          1           0        0.107895   -1.084312   -0.661885
      9          6           0       -1.901396   -0.188812   -0.047522
     10          1           0       -0.336399    1.341165   -0.922350
     11          1           0       -0.527052    1.101897    0.720927
     12          1           0       -1.974300   -0.777114   -0.776119
     13          1           0       -2.645953    0.555776   -0.357953
     14          1           0       -2.366109   -0.641947    0.688954
 ---------------------------------------------------------------------

 SCF Done:  E(RB2PLYPD3) =  -157.477377960     A.U. after   12 cycles
 E2(B2PLYPD3) =    -0.2516426133D+00 E(B2PLYPD3) =    -0.15772902057355D+03

 The electronic state is 1-A.
 Alpha  occ. eigenvalues --  -10.61407 -10.61083 -10.60553 -10.57528  -0.96079
 Alpha  occ. eigenvalues --   -0.87177  -0.78077  -0.69390  -0.57110  -0.50265
 Alpha  occ. eigenvalues --   -0.49016  -0.46278  -0.44347  -0.42154  -0.37365
 Alpha  occ. eigenvalues --   -0.36831  -0.35328
 Alpha virt. eigenvalues --    0.04047   0.06112   0.07467   0.07666   0.10251
 Alpha virt. eigenvalues --    0.11176   0.11995   0.13105   0.14432   0.15268
 Alpha virt. eigenvalues --    0.16743   0.17416   0.18586   0.19637   0.21495

 Mulliken charges:
               1
     1  C   -0.871326
     2  C    0.024880
     3  H    0.031201
     4  H    0.053622
     5  H    0.681501
     6  C   -0.153431
     7  H    0.050267
     8  H    0.012795
     9  C   -0.123353
    10  H    0.028482
    11  H    0.156314
    12  H    0.053107
    13  H    0.012392
    14  H    0.043551
 Sum of Mulliken charges =   0.00000

 Dipole moment (field-independent basis, Debye):
    X=             -0.7602    Y=              0.2578    Z=             -0.1585  Tot=              0.8183
 Quadrupole moment (field-independent basis, Debye-Ang):
   XX=            -31.2105   YY=            -28.7229   ZZ=            -27.6605
   XY=              0.5884   XZ=             -0.2493   YZ=              0.4990

 Normal termination of Gaussian 09 at Wed Aug 26 11:21:48 2020.
