 Gaussian 09, Revision D.01,
 Gaussian 09:  ES64L-G09RevD.01 24-Apr-2013

 --------------------
 #p B2PLYPD3/Def2QZVP
 --------------------

 ----------
 butane_opt
 ----------
 Symbolic Z-matrix:
 Charge =  0 Multiplicity = 1

                         Standard orientation:
 ---------------------------------------------------------------------
 Center     Atomic      Atomic             Coordinates (Angstroms)
 Number     Number       Type             X           Y           Z
 ---------------------------------------------------------------------
      1          6           0        1.833378    0.084829    0.124029
      2          6           0        0.535532   -0.463949   -0.187537
      3          1           0        2.843424   -0.937296   -0.124884
      4          1           0        1.951517    0.973033    1.348781
      5          1           0        2.007388    0.393753   -0.438970
      6          6           0       -0.467817    0.647899   -0.041014
      7          1           0        0.600931   -0.927291    0.572239
      8          1           0        0.493428   -1.291690   -1.175413
      9          6           0       -1.942658   -0.139443    0.128170
     10          1           0       -0.162004    1.483324   -1.121945
     11          1           0       -0.400431    0.695785    0.563360
     12          1           0       -2.101502   -0.425401   -0.555908
     13          1           0       -2.683121    0.408694   -0.397006
     14          1           0       -2.300241   -1.148922    1.187855
 ---------------------------------------------------------------------

 SCF Done:  E(RB2PLYPD3) =  -156.866061659     A.U. after   12 cycles
 E2(B2PLYPD3) =    -0.2585781139D+00 E(B2PLYPD3) =    -0.15712463977253D+03

 The electronic state is 1-A.
 Alpha  occ. eigenvalues --  -10.62376 -10.62082 -10.60326 -10.59415  -0.98326
 Alpha  occ. eigenvalues --   -0.89894  -0.83586  -0.72963  -0.57109  -0.49906
 Alpha  occ. eigenvalues --   -0.45497  -0.44885  -0.42283  -0.39190  -0.37710
 Alpha  occ. eigenvalues --   -0.36564  -0.34144
 Alpha virt. eigenvalues --    0.02618   0.03867   0.04837   0.06252   0.09575
 Alpha virt. eigenvalues --    0.10289   0.11209   0.12622   0.13931   0.15077
 Alpha virt. eigenvalues --    0.15672   0.16414   0.17341   0.18497   0.21735

 Mulliken charges:
               1
     1  C   -0.675738
     2  C   -0.045736
     3  H    0.007155
     4  H    0.046235
     5  H    0.509588
     6  C   -0.890083
     7  H    0.167485
     8  H    0.030054
     9  C   -0.476690
    10  H    0.071702
    11  H    0.778435
    12  H    0.378475
    13  H    0.032794
    14  H    0.066324
 Sum of Mulliken charges =   0.00000

 Dipole moment (field-independent basis, Debye):
    X=             -0.3080    Y=             -0.0828    Z=             -0.7607  Tot=              0.8248
 Quadrupole moment (field-independent basis, Debye-Ang):
   XX=            -31.4517   YY=            -29.3780   ZZ=            -27.1940
   XY=              1.7480   XZ=              0.7320   YZ=             -0.7480

 Normal termination of Gaussian 09 at Wed Aug 26 10:16:37 2020.
