 Gaussian 09, Revision D.01,
 Gaussian 09:  ES64L-G09RevD.01 24-Apr-2013

 --------------------
 #p B2PLYPD3/Def2QZVP
 --------------------

 ----------
 butane_opt
 ----------
 Symbolic Z-matrix:
 Charge =  0 Multiplicity = 1

                         Standard orientation:
 ---------------------------------------------------------------------
 Center     Atomic      Atomic             Coordinates (Angstroms)
 Number     Number       Type             X           Y           Z
 ---------------------------------------------------------------------
      1          6           0        1.880054    0.061156    0.162887
      2          6           0        0.532256   -0.399580   -0.283240
      3          1           0        2.810637   -0.858666   -0.006943
      4          1           0        1.813733    0.569853    1.323133
      5          1           0        2.119903    0.347111   -0.292964
      6          6           0       -0.520169    0.670861   -0.146270
      7          1           0        0.384341   -1.258844    0.526769
      8          1           0        0.494615   -0.829248   -1.183326
      9          6           0       -1.909862   -0.175876    0.103989
     10          1           0       -0.507575    1.627604   -0.938410
     11          1           0       -0.006636    0.903083    0.492196
     12          1           0       -2.659858   -0.718642   -0.770951
     13          1           0       -2.585493    0.174996    1.072751
     14          1           0       -1.757337   -0.896614    0.753555
 ---------------------------------------------------------------------

 SCF Done:  E(RB2PLYPD3) =  -157.380777604     A.U. after   11 cycles
 E2(B2PLYPD3) =    -0.2529879953D+00 E(B2PLYPD3) =    -0.15763376559969D+03

 The electronic state is 1-A.
 Alpha  occ. eigenvalues --  -10.62883 -10.60837 -10.60832 -10.60469  -0.95800
 Alpha  occ. eigenvalues --   -0.86377  -0.77064  -0.69773  -0.58124  -0.49889
 Alpha  occ. eigenvalues --   -0.47725  -0.45322  -0.43103  -0.40877  -0.39068
 Alpha  occ. eigenvalues --   -0.36826  -0.33946
 Alpha virt. eigenvalues --    0.04740   0.05752   0.07564   0.08455   0.10198
 Alpha virt. eigenvalues --    0.11072   0.12012   0.13368   0.15114   0.15461
 Alpha virt. eigenvalues --    0.16121   0.16236   0.18239   0.18528   0.21564

 Mulliken charges:
               1
     1  C   -0.811224
     2  C    0.040518
     3  H    0.041207
     4  H    0.078288
     5  H    0.584739
     6  C   -0.234574
     7  H    0.028002
     8  H    0.046134
     9  C   -0.184018
    10  H    0.030898
    11  H    0.214748
    12  H    0.056276
    13  H    0.012561
    14  H    0.096445
 Sum of Mulliken charges =   0.00000

 Dipole moment (field-independent basis, Debye):
    X=              0.4022    Y=             -0.1994    Z=              0.0662  Tot=              0.4538
 Quadrupole moment (field-independent basis, Debye-Ang):
   XX=            -30.7329   YY=            -29.3958   ZZ=            -27.5932
   XY=              1.9347   XZ=             -0.7062   YZ=             -0.1984

 Normal termination of Gaussian 09 at Wed Aug 26 15:36:00 2020.
