 Gaussian 09, Revision D.01,
 Gaussian 09:  ES64L-G09RevD.01 24-Apr-2013

 --------------------
 #p B2PLYPD3/Def2QZVP
 --------------------

 ----------
 butane_opt
 ----------
 Symbolic Z-matrix:
 Charge =  0 Multiplicity = 1

                         Standard orientation:
 ---------------------------------------------------------------------
 Center     Atomic      Atomic             Coordinates (Angstroms)
 Number     Number       Type             X           Y           Z
 ---------------------------------------------------------------------
      1          6           0       -1.902011   -0.149641    0.055779
      2          6           0       -0.536032    0.542724   -0.031203
      3          1           0       -2.618287    0.540412   -0.342057
      4          1           0       -2.402609   -1.143493    1.061912
      5          1           0       -2.018201   -0.425446   -0.615991
      6          6           0        0.543979   -0.448453   -0.071789
      7          1           0       -0.344945    1.136659    0.755626
      8          1           0       -0.396754    1.439162   -1.023288
      9          6           0        1.894700    0.066037    0.067071
     10          1           0        0.551251   -1.277401   -1.057502
     11          1           0        0.468102   -0.972413    0.723689
     12          1           0        2.035544    0.384690   -0.602617
     13          1           0        2.778991   -0.710761   -0.191696
     14          1           0        1.943095    0.964589    1.172779
 ---------------------------------------------------------------------

 SCF Done:  E(RB2PLYPD3) =  -157.584911358     A.U. after   11 cycles
 E2(B2PLYPD3) =    -0.2522607167D+00 E(B2PLYPD3) =    -0.15783717207488D+03

 The electronic state is 1-A.
 Alpha  occ. eigenvalues --  -10.62711 -10.60057 -10.59794 -10.59707  -0.95034
 Alpha  occ. eigenvalues --   -0.89043  -0.78835  -0.68649  -0.54207  -0.51430
 Alpha  occ. eigenvalues --   -0.48077  -0.44885  -0.42386  -0.40839  -0.38453
 Alpha  occ. eigenvalues --   -0.36817  -0.36076
 Alpha virt. eigenvalues --    0.03953   0.05055   0.06238   0.07087   0.10227
 Alpha virt. eigenvalues --    0.11221   0.12173   0.12725   0.13709   0.15737
 Alpha virt. eigenvalues --    0.16224   0.16450   0.18266   0.18821   0.20889

 Mulliken charges:
               1
     1  C   -0.506043
     2  C   -0.007607
     3  H    0.039719
     4  H    0.051698
     5  H    0.373962
     6  C   -0.017724
     7  H    0.061876
     8  H   -0.016180
     9  C   -0.456174
    10  H   -0.011497
    11  H    0.094601
    12  H    0.327368
    13  H    0.042316
    14  H    0.023684
 Sum of Mulliken charges =   0.00000

 Dipole moment (field-independent basis, Debye):
    X=             -0.1159    Y=             -0.0581    Z=             -0.5149  Tot=              0.5310
 Quadrupole moment (field-independent basis, Debye-Ang):
   XX=            -29.9753   YY=            -29.3872   ZZ=            -28.2945
   XY=              0.2564   XZ=             -0.2261   YZ=             -0.1153

 Normal termination of Gaussian 09 at Wed Aug 26 09:55:19 2020.
