 Gaussian 09, Revision D.01,
 Gaussian 09:  ES64L-G09RevD.01 24-Apr-2013

 --------------------
 #p B2PLYPD3/Def2QZVP
 --------------------

 ----------
 butane_opt
 ----------
 Symbolic Z-matrix:
 Charge =  0 Multiplicity = 1

                         Standard orientation:
 ---------------------------------------------------------------------
 Center     Atomic      Atomic             Coordinates (Angstroms)
 Number     Number       Type             X           Y           Z
 ---------------------------------------------------------------------
      1          6           0        2.041972   -0.211094   -0.169777
      2          6           0        0.597245    0.552053    0.031692
      3          1           0        2.805150    0.713717    0.171205
      4          1           0        2.299395   -1.219586   -0.948198
      5          1           0        2.168394   -0.558698    0.585812
      6          6           0       -0.619908   -0.413687    0.371474
      7          1           0        0.319272    0.944684   -0.756971
      8          1           0        0.554605    1.611537    0.848186
      9          6           0       -1.981334    0.048260   -0.243696
     10          1           0       -0.862775   -1.116595    1.494316
     11          1           0       -0.571995   -0.947741   -0.322010
     12          1           0       -2.438523    1.001601    0.714967
     13          1           0       -2.777399   -0.865721   -0.499365
     14          1           0       -1.723977    0.583605   -1.226095
 ---------------------------------------------------------------------

 SCF Done:  E(RB2PLYPD3) =  -157.779864694     A.U. after   11 cycles
 E2(B2PLYPD3) =    -0.2551077919D+00 E(B2PLYPD3) =    -0.15803497248553D+03

 The electronic state is 1-A.
 Alpha  occ. eigenvalues --  -10.65986 -10.63644 -10.62017 -10.61421  -0.91775
 Alpha  occ. eigenvalues --   -0.83856  -0.73921  -0.66592  -0.52021  -0.48252
 Alpha  occ. eigenvalues --   -0.46833  -0.45806  -0.42877  -0.39862  -0.38527
 Alpha  occ. eigenvalues --   -0.36533  -0.33943
 Alpha virt. eigenvalues --    0.04210   0.04967   0.07031   0.07439   0.09852
 Alpha virt. eigenvalues --    0.11099   0.11407   0.13021   0.13212   0.14388
 Alpha virt. eigenvalues --    0.15195   0.15356   0.17727   0.19293   0.19692

 Mulliken charges:
               1
     1  C   -0.313550
     2  C   -0.070364
     3  H    0.030854
     4  H    0.058756
     5  H    0.212669
     6  C   -0.212912
     7  H    0.106955
     8  H    0.001973
     9  C   -0.184148
    10  H    0.031152
    11  H    0.210372
    12  H    0.011080
    13  H    0.060201
    14  H    0.056961
 Sum of Mulliken charges =   0.00000

 Dipole moment (field-independent basis, Debye):
    X=              0.2954    Y=             -0.6742    Z=             -0.3454  Tot=              0.8131
 Quadrupole moment (field-independent basis, Debye-Ang):
   XX=            -31.8275   YY=            -28.9985   ZZ=            -29.1276
   XY=              0.6368   XZ=              1.4768   YZ=              0.6539

 Normal termination of Gaussian 09 at Wed Aug 26 19:18:56 2020.
