 Gaussian 09, Revision D.01,
 Gaussian 09:  ES64L-G09RevD.01 24-Apr-2013

 --------------------
 #p B2PLYPD3/Def2QZVP
 --------------------

 ----------
 butane_opt
 ----------
 Symbolic Z-matrix:
 Charge =  0 Multiplicity = 1

                         Standard orientation:
 ---------------------------------------------------------------------
 Center     Atomic      Atomic             Coordinates (Angstroms)
 Number     Number       Type             X           Y           Z
 ---------------------------------------------------------------------
      1          6           0        1.941728   -0.151500    0.046729
      2          6           0        0.485237    0.533511   -0.031427
      3          1           0        2.738133    0.653185   -0.436935
      4          1           0        1.998159   -0.336377   -0.616682
      5          1           0        2.273801   -1.096063    1.175421
      6          6           0       -0.556338   -0.518344   -0.101900
      7          1           0        0.341280    1.152987   -0.870772
      8          1           0        0.488859    1.296430    0.876593
      9          6           0       -1.885453    0.085552    0.058074
     10          1           0       -0.429647   -1.018980    0.691528
     11          1           0       -0.502859   -1.127763   -1.013081
     12          1           0       -2.073603    0.850750    1.114138
     13          1           0       -2.685724   -0.661095   -0.069957
     14          1           0       -2.059444    0.591610   -0.679106
 ---------------------------------------------------------------------

 SCF Done:  E(RB2PLYPD3) =  -157.688104826     A.U. after   11 cycles
 E2(B2PLYPD3) =    -0.2509049723D+00 E(B2PLYPD3) =    -0.15793900979801D+03

 The electronic state is 1-A.
 Alpha  occ. eigenvalues --  -10.61406 -10.61087 -10.59332 -10.58306  -0.93842
 Alpha  occ. eigenvalues --   -0.87201  -0.76166  -0.68427  -0.55563  -0.50111
 Alpha  occ. eigenvalues --   -0.48886  -0.45815  -0.41401  -0.39960  -0.38932
 Alpha  occ. eigenvalues --   -0.37067  -0.36262
 Alpha virt. eigenvalues --    0.03986   0.05965   0.07224   0.07809   0.10476
 Alpha virt. eigenvalues --    0.10898   0.12294   0.12704   0.14292   0.15376
 Alpha virt. eigenvalues --    0.16196   0.16641   0.18928   0.19354   0.21335

 Mulliken charges:
               1
     1  C   -0.690012
     2  C   -0.017769
     3  H    0.027036
     4  H    0.523290
     5  H    0.067924
     6  C   -0.047548
     7  H    0.037724
     8  H    0.031476
     9  C   -0.174045
    10  H    0.075235
    11  H    0.031821
    12  H    0.026249
    13  H    0.031483
    14  H    0.077135
 Sum of Mulliken charges =   0.00000

 Dipole moment (field-independent basis, Debye):
    X=             -0.2310    Y=             -0.2697    Z=             -0.7221  Tot=              0.8047
 Quadrupole moment (field-independent basis, Debye-Ang):
   XX=            -31.0356   YY=            -29.0008   ZZ=            -27.4145
   XY=             -0.2702   XZ=             -0.0455   YZ=             -0.5886

 Normal termination of Gaussian 09 at Wed Aug 26 10:35:32 2020.
