 Gaussian 09, Revision D.01,
 Gaussian 09:  ES64L-G09RevD.01 24-Apr-2013

 --------------------
 #p B2PLYPD3/Def2QZVP
 --------------------

 ----------
 butane_opt
 ----------
 Symbolic Z-matrix:
 Charge =  0 Multiplicity = 1

                         Standard orientation:
 ---------------------------------------------------------------------
 Center     Atomic      Atomic             Coordinates (Angstroms)
 Number     Number       Type             X           Y           Z
 ---------------------------------------------------------------------
      1          6           0        1.956399    0.137170   -0.050949
      2          6           0        0.543364   -0.576056    0.080940
      3          1           0        2.803516   -0.562689   -0.870174
      4          1           0        2.500716    1.517947    1.264324
      5          1           0        1.670380    0.353896   -0.610933
      6          6           0       -0.564335    0.441300   -0.104519
      7          1           0        0.624640   -1.302648    1.094672
      8          1           0        0.372686   -0.988829   -0.494727
      9          6           0       -1.959418   -0.099144    0.095208
     10          1           0       -0.658964    0.977709   -0.996818
     11          1           0       -0.405974    1.056492    0.624906
     12          1           0       -1.854299   -0.762652   -0.737184
     13          1           0       -2.915422    0.858335   -0.355823
     14          1           0       -1.993338   -0.567178    0.957680
 ---------------------------------------------------------------------

 SCF Done:  E(RB2PLYPD3) =  -157.323206498     A.U. after   12 cycles
 E2(B2PLYPD3) =    -0.2586357472D+00 E(B2PLYPD3) =    -0.15758184224480D+03

 The electronic state is 1-A.
 Alpha  occ. eigenvalues --  -10.64677 -10.61926 -10.60595 -10.58933  -0.97503
 Alpha  occ. eigenvalues --   -0.88227  -0.77900  -0.70550  -0.58381  -0.51092
 Alpha  occ. eigenvalues --   -0.48428  -0.45521  -0.42662  -0.39841  -0.37077
 Alpha  occ. eigenvalues --   -0.36476  -0.34268
 Alpha virt. eigenvalues --   -0.04067   0.04689   0.06276   0.07328   0.09956
 Alpha virt. eigenvalues --    0.10280   0.10843   0.12776   0.14136   0.15181
 Alpha virt. eigenvalues --    0.15550   0.16406   0.18034   0.18456   0.19277

 Mulliken charges:
               1
     1  C   -0.776349
     2  C   -0.458614
     3  H    0.047876
     4  H    0.019108
     5  H    0.661390
     6  C   -0.056217
     7  H    0.039882
     8  H    0.444081
     9  C   -0.177032
    10  H    0.032921
    11  H    0.068489
    12  H    0.044730
    13  H    0.023798
    14  H    0.085935
 Sum of Mulliken charges =   0.00000

 Dipole moment (field-independent basis, Debye):
    X=             -0.4985    Y=             -0.1596    Z=             -0.7572  Tot=              0.9205
 Quadrupole moment (field-independent basis, Debye-Ang):
   XX=            -33.7186   YY=            -29.3657   ZZ=            -27.5281
   XY=             -0.5569   XZ=             -0.7464   YZ=              0.4250

 Normal termination of Gaussian 09 at Wed Aug 26 10:15:42 2020.
