 Gaussian 09, Revision D.01,
 Gaussian 09:  ES64L-G09RevD.01 24-Apr-2013

 --------------------
 #p B2PLYPD3/Def2QZVP
 --------------------

 ----------
 butane_opt
 ----------
 Symbolic Z-matrix:
 Charge =  0 Multiplicity = 1

                         Standard orientation:
 ---------------------------------------------------------------------
 Center     Atomic      Atomic             Coordinates (Angstroms)
 Number     Number       Type             X           Y           Z
 ---------------------------------------------------------------------
      1          6           0        1.936095   -0.230255   -0.099721
      2          6           0        0.521654    0.576067    0.096995
      3          1           0        2.662446    0.560218   -0.343851
      4          1           0        1.940902   -1.166542   -1.076690
      5          1           0        2.587335   -0.444590    0.524789
      6          6           0       -0.664566   -0.421212    0.262288
      7          1           0        0.282113    1.046268   -0.729386
      8          1           0        0.530933    1.615947    0.972265
      9          6           0       -1.910002    0.085342   -0.190560
     10          1           0       -0.522507   -1.345998    1.490971
     11          1           0       -0.272859   -0.729639   -0.381698
     12          1           0       -2.070129    0.771093    0.629624
     13          1           0       -2.782114   -0.911676   -0.487419
     14          1           0       -1.655201    0.545267   -1.012623
 ---------------------------------------------------------------------

 SCF Done:  E(RB2PLYPD3) =  -157.763235078     A.U. after   11 cycles
 E2(B2PLYPD3) =    -0.2542358529D+00 E(B2PLYPD3) =    -0.15801747093073D+03

 The electronic state is 1-A.
 Alpha  occ. eigenvalues --  -10.64949 -10.62442 -10.61176 -10.60645  -0.96242
 Alpha  occ. eigenvalues --   -0.84527  -0.76541  -0.68135  -0.55699  -0.49740
 Alpha  occ. eigenvalues --   -0.48367  -0.46568  -0.42271  -0.41478  -0.38051
 Alpha  occ. eigenvalues --   -0.35633  -0.34322
 Alpha virt. eigenvalues --    0.04398   0.05584   0.06241   0.07271   0.10148
 Alpha virt. eigenvalues --    0.11468   0.11675   0.13484   0.13611   0.15192
 Alpha virt. eigenvalues --    0.15670   0.16186   0.17684   0.19074   0.20290

 Mulliken charges:
               1
     1  C   -0.162116
     2  C   -0.075027
     3  H    0.028338
     4  H    0.023465
     5  H    0.071386
     6  C   -0.307136
     7  H    0.098974
     8  H   -0.012535
     9  C   -0.160337
    10  H   -0.007063
    11  H    0.312936
    12  H    0.077012
    13  H    0.040593
    14  H    0.071509
 Sum of Mulliken charges =   0.00000

 Dipole moment (field-independent basis, Debye):
    X=              0.5410    Y=              0.3530    Z=             -0.7163  Tot=              0.9646
 Quadrupole moment (field-independent basis, Debye-Ang):
   XX=            -29.3193   YY=            -30.0196   ZZ=            -29.4642
   XY=              0.0631   XZ=              0.9044   YZ=              0.4805

 Normal termination of Gaussian 09 at Wed Aug 26 23:43:59 2020.
