 Gaussian 09, Revision D.01,
 Gaussian 09:  ES64L-G09RevD.01 24-Apr-2013

 --------------------
 #p B2PLYPD3/Def2QZVP
 --------------------

 ----------
 butane_opt
 ----------
 Symbolic Z-matrix:
 Charge =  0 Multiplicity = 1

                         Standard orientation:
 ---------------------------------------------------------------------
 Center     Atomic      Atomic             Coordinates (Angstroms)
 Number     Number       Type             X           Y           Z
 ---------------------------------------------------------------------
      1          6           0        1.887056    0.067496   -0.126283
      2          6           0        0.572070   -0.481590    0.172653
      3          1           0        2.666980   -0.649459   -0.358744
      4          1           0        2.124192    0.894709    0.789759
      5          1           0        1.757314    0.524328   -0.906073
      6          6           0       -0.465001    0.580915    0.074626
      7          1           0        0.601708   -1.133518    1.126514
      8          1           0        0.368241   -1.070471   -0.594690
      9          6           0       -1.954843   -0.153546   -0.089779
     10          1           0       -0.351345    1.162071   -0.836070
     11          1           0       -0.421471    1.149406    0.934537
     12          1           0       -1.942859   -0.929233   -0.953000
     13          1           0       -2.733746    0.654902   -0.140997
     14          1           0       -2.304709   -0.682385    0.751461
 ---------------------------------------------------------------------

 SCF Done:  E(RB2PLYPD3) =  -158.046048335     A.U. after   11 cycles
 E2(B2PLYPD3) =    -0.2469384025D+00 E(B2PLYPD3) =    -0.15829298673716D+03

 The electronic state is 1-A.
 Alpha  occ. eigenvalues --  -10.61042 -10.60608 -10.58738 -10.58528  -0.93088
 Alpha  occ. eigenvalues --   -0.82503  -0.73341  -0.67591  -0.55882  -0.50469
 Alpha  occ. eigenvalues --   -0.48349  -0.47091  -0.42621  -0.41401  -0.39555
 Alpha  occ. eigenvalues --   -0.37738  -0.36469
 Alpha virt. eigenvalues --    0.05758   0.06812   0.08238   0.08734   0.10992
 Alpha virt. eigenvalues --    0.11919   0.12730   0.13762   0.14779   0.14916
 Alpha virt. eigenvalues --    0.16013   0.16984   0.19705   0.19779   0.21545

 Mulliken charges:
               1
     1  C   -0.178844
     2  C   -0.048524
     3  H    0.041251
     4  H    0.017167
     5  H    0.084233
     6  C   -0.057404
     7  H    0.025447
     8  H    0.052970
     9  C   -0.154691
    10  H    0.046306
    11  H    0.048182
    12  H    0.038592
    13  H    0.039240
    14  H    0.046073
 Sum of Mulliken charges =   0.00000

 Dipole moment (field-independent basis, Debye):
    X=             -0.0743    Y=             -0.0942    Z=             -0.2169  Tot=              0.2479
 Quadrupole moment (field-independent basis, Debye-Ang):
   XX=            -30.4590   YY=            -28.7574   ZZ=            -27.9106
   XY=             -0.6698   XZ=             -1.0237   YZ=              0.3291

 Normal termination of Gaussian 09 at Wed Aug 26 23:04:10 2020.
