 Gaussian 09, Revision D.01,
 Gaussian 09:  ES64L-G09RevD.01 24-Apr-2013

 --------------------
 #p B2PLYPD3/Def2QZVP
 --------------------

 ----------
 butane_opt
 ----------
 Symbolic Z-matrix:
 Charge =  0 Multiplicity = 1

                         Standard orientation:
 ---------------------------------------------------------------------
 Center     Atomic      Atomic             Coordinates (Angstroms)
 Number     Number       Type             X           Y           Z
 ---------------------------------------------------------------------
      1          6           0       -1.996241    0.129696    0.158738
      2          6           0       -0.529813   -0.522277   -0.126287
      3          1           0       -2.668495   -0.361191   -0.658681
      4          1           0       -2.091275    0.010105   -0.375595
      5          1           0       -2.315066    1.260625    1.446993
      6          6           0        0.620653    0.491602   -0.145242
      7          1           0       -0.598289   -1.246349   -1.171159
      8          1           0       -0.663585   -1.097750    0.739063
      9          6           0        1.944757   -0.116249    0.138506
     10          1           0        0.517225    0.737499    0.498381
     11          1           0        0.424869    1.634623   -1.264834
     12          1           0        2.100046   -1.104102    1.146834
     13          1           0        2.903754    0.776542    0.003335
     14          1           0        2.154686   -0.506632   -0.518627
 ---------------------------------------------------------------------

 SCF Done:  E(RB2PLYPD3) =  -156.620464741     A.U. after   15 cycles
 E2(B2PLYPD3) =    -0.2661448579D+00 E(B2PLYPD3) =    -0.15688660959877D+03

 The electronic state is 1-A.
 Alpha  occ. eigenvalues --  -10.64300 -10.64274 -10.61873 -10.61228  -1.03669
 Alpha  occ. eigenvalues --   -0.94246  -0.79618  -0.71699  -0.53744  -0.49110
 Alpha  occ. eigenvalues --   -0.46041  -0.44654  -0.42153  -0.38283  -0.37191
 Alpha  occ. eigenvalues --   -0.35747  -0.26141
 Alpha virt. eigenvalues --   -0.01271   0.01817   0.03219   0.04796   0.08764
 Alpha virt. eigenvalues --    0.10534   0.11557   0.12400   0.13380   0.14756
 Alpha virt. eigenvalues --    0.15655   0.16591   0.17363   0.19313   0.20568

 Mulliken charges:
               1
     1  C   -1.148356
     2  C   -0.053832
     3  H    0.126089
     4  H    0.856215
     5  H    0.107407
     6  C   -0.626620
     7  H    0.000375
     8  H    0.109458
     9  C   -0.353092
    10  H    0.614419
    11  H    0.011358
    12  H    0.048792
    13  H    0.038184
    14  H    0.269603
 Sum of Mulliken charges =   0.00000

 Dipole moment (field-independent basis, Debye):
    X=             -0.1994    Y=             -0.1680    Z=             -0.8018  Tot=              0.8431
 Quadrupole moment (field-independent basis, Debye-Ang):
   XX=            -30.0293   YY=            -30.5861   ZZ=            -27.3368
   XY=             -1.3441   XZ=              2.0539   YZ=              1.6066

 Normal termination of Gaussian 09 at Wed Aug 26 20:24:43 2020.
