 Gaussian 09, Revision D.01,
 Gaussian 09:  ES64L-G09RevD.01 24-Apr-2013

 --------------------
 #p B2PLYPD3/Def2QZVP
 --------------------

 ----------
 butane_opt
 ----------
 Symbolic Z-matrix:
 Charge =  0 Multiplicity = 1

                         Standard orientation:
 ---------------------------------------------------------------------
 Center     Atomic      Atomic             Coordinates (Angstroms)
 Number     Number       Type             X           Y           Z
 ---------------------------------------------------------------------
      1          6           0        1.981118   -0.167338   -0.102972
      2          6           0        0.529673    0.594310    0.111388
      3          1           0        2.759804    0.599426   -0.119433
      4          1           0        2.101879   -0.740558   -0.889705
      5          1           0        2.331844   -0.778280    0.773337
      6          6           0       -0.631369   -0.487535    0.147904
      7          1           0        0.315117    1.171072   -0.809106
      8          1           0        0.429238    1.173150    0.912125
      9          6           0       -1.919665    0.089580   -0.113312
     10          1           0       -0.616784   -1.122064    1.051885
     11          1           0       -0.363168   -1.151698   -0.668525
     12          1           0       -2.320365    0.751234    0.774951
     13          1           0       -2.651487   -0.693937   -0.385722
     14          1           0       -1.744621    0.617554   -0.897852
 ---------------------------------------------------------------------

 SCF Done:  E(RB2PLYPD3) =  -158.073587580     A.U. after   11 cycles
 E2(B2PLYPD3) =    -0.2461719977D+00 E(B2PLYPD3) =    -0.15831975957819D+03

 The electronic state is 1-A.
 Alpha  occ. eigenvalues --  -10.60871 -10.59674 -10.59623 -10.58547  -0.91509
 Alpha  occ. eigenvalues --   -0.83118  -0.73884  -0.67161  -0.54968  -0.49621
 Alpha  occ. eigenvalues --   -0.48483  -0.46972  -0.44910  -0.41820  -0.38869
 Alpha  occ. eigenvalues --   -0.38299  -0.35868
 Alpha virt. eigenvalues --    0.05905   0.06929   0.08465   0.09072   0.10917
 Alpha virt. eigenvalues --    0.11879   0.12965   0.13689   0.15172   0.15590
 Alpha virt. eigenvalues --    0.16382   0.16431   0.19397   0.19904   0.21867

 Mulliken charges:
               1
     1  C   -0.143362
     2  C   -0.083251
     3  H    0.034037
     4  H    0.061741
     5  H    0.029320
     6  C   -0.034053
     7  H    0.032678
     8  H    0.063785
     9  C   -0.154580
    10  H    0.028432
    11  H    0.028949
    12  H    0.029943
    13  H    0.040774
    14  H    0.065587
 Sum of Mulliken charges =   0.00000

 Dipole moment (field-independent basis, Debye):
    X=              0.0735    Y=             -0.0132    Z=             -0.1530  Tot=              0.1703
 Quadrupole moment (field-independent basis, Debye-Ang):
   XX=            -29.6385   YY=            -28.7312   ZZ=            -27.9007
   XY=              0.0219   XZ=             -0.0900   YZ=              0.4400

 Normal termination of Gaussian 09 at Wed Aug 26 11:25:24 2020.
