 Gaussian 09, Revision D.01,
 Gaussian 09:  ES64L-G09RevD.01 24-Apr-2013

 --------------------
 #p B2PLYPD3/Def2QZVP
 --------------------

 ----------
 butane_opt
 ----------
 Symbolic Z-matrix:
 Charge =  0 Multiplicity = 1

                         Standard orientation:
 ---------------------------------------------------------------------
 Center     Atomic      Atomic             Coordinates (Angstroms)
 Number     Number       Type             X           Y           Z
 ---------------------------------------------------------------------
      1          6           0        2.039960    0.147445   -0.030667
      2          6           0        0.597897   -0.546082    0.089735
      3          1           0        2.742986   -0.771782   -0.775186
      4          1           0        2.635566    1.464869    1.085616
      5          1           0        1.844530    0.397132   -0.536516
      6          6           0       -0.618410    0.388757   -0.143780
      7          1           0        0.404710   -1.276224    1.113815
      8          1           0        0.264007   -1.153294   -0.527487
      9          6           0       -1.915015   -0.047887    0.065576
     10          1           0       -0.760112    1.064630   -1.090317
     11          1           0       -0.489446    1.256441    0.788620
     12          1           0       -2.049908   -0.739453   -0.775658
     13          1           0       -2.894634    0.803008   -0.205993
     14          1           0       -2.324291   -0.698725    1.037920
 ---------------------------------------------------------------------

 SCF Done:  E(RB2PLYPD3) =  -157.320554834     A.U. after   13 cycles
 E2(B2PLYPD3) =    -0.2605846095D+00 E(B2PLYPD3) =    -0.15758113944340D+03

 The electronic state is 1-A.
 Alpha  occ. eigenvalues --  -10.65846 -10.63554 -10.63451 -10.63201  -0.94943
 Alpha  occ. eigenvalues --   -0.89065  -0.76851  -0.64765  -0.53494  -0.50040
 Alpha  occ. eigenvalues --   -0.48303  -0.45890  -0.41678  -0.39283  -0.37098
 Alpha  occ. eigenvalues --   -0.36452  -0.32431
 Alpha virt. eigenvalues --   -0.02595   0.04684   0.06373   0.07004   0.08892
 Alpha virt. eigenvalues --    0.09889   0.10903   0.12076   0.13428   0.14689
 Alpha virt. eigenvalues --    0.15574   0.16707   0.17321   0.18575   0.19868

 Mulliken charges:
               1
     1  C   -0.907110
     2  C   -0.060415
     3  H    0.064610
     4  H    0.057543
     5  H    0.755003
     6  C   -0.029585
     7  H    0.026313
     8  H    0.109412
     9  C   -0.152127
    10  H    0.045926
    11  H   -0.013358
    12  H    0.029380
    13  H    0.033189
    14  H    0.041218
 Sum of Mulliken charges =   0.00000

 Dipole moment (field-independent basis, Debye):
    X=             -0.3727    Y=             -0.1386    Z=             -0.8550  Tot=              0.9429
 Quadrupole moment (field-independent basis, Debye-Ang):
   XX=            -31.7318   YY=            -29.4381   ZZ=            -28.9942
   XY=              0.7103   XZ=             -0.3213   YZ=              0.4280

 Normal termination of Gaussian 09 at Wed Aug 26 23:34:35 2020.
