 Gaussian 09, Revision D.01,
 Gaussian 09:  ES64L-G09RevD.01 24-Apr-2013

 --------------------
 #p B2PLYPD3/Def2QZVP
 --------------------

 ----------
 butane_opt
 ----------
 Symbolic Z-matrix:
 Charge =  0 Multiplicity = 1

                         Standard orientation:
 ---------------------------------------------------------------------
 Center     Atomic      Atomic             Coordinates (Angstroms)
 Number     Number       Type             X           Y           Z
 ---------------------------------------------------------------------
      1          6           0        1.991495   -0.168094    0.029245
      2          6           0        0.546472    0.585558   -0.006431
      3          1           0        2.730794    0.557933   -0.306757
      4          1           0        2.080442   -0.353377   -0.596725
      5          1           0        2.388997   -1.064437    0.956598
      6          6           0       -0.637656   -0.521153   -0.109723
      7          1           0        0.369096    1.214606   -0.858499
      8          1           0        0.465170    1.148127    0.841220
      9          6           0       -1.930959    0.103511    0.057209
     10          1           0       -0.590607   -1.180487    0.824471
     11          1           0       -0.464171   -1.083905   -0.970155
     12          1           0       -1.949915    0.875129    1.089940
     13          1           0       -2.674386   -0.651966   -0.108574
     14          1           0       -2.171533    0.539439   -0.693327
 ---------------------------------------------------------------------

 SCF Done:  E(RB2PLYPD3) =  -157.676196725     A.U. after   11 cycles
 E2(B2PLYPD3) =    -0.2487944923D+00 E(B2PLYPD3) =    -0.15792499121769D+03

 The electronic state is 1-A.
 Alpha  occ. eigenvalues --  -10.60690 -10.60065 -10.58641 -10.58553  -0.92086
 Alpha  occ. eigenvalues --   -0.88193  -0.76693  -0.68033  -0.54793  -0.50831
 Alpha  occ. eigenvalues --   -0.47896  -0.45563  -0.42696  -0.41442  -0.39806
 Alpha  occ. eigenvalues --   -0.38042  -0.34640
 Alpha virt. eigenvalues --    0.05544   0.06136   0.08270   0.08530   0.10459
 Alpha virt. eigenvalues --    0.11599   0.12441   0.13082   0.14325   0.15706
 Alpha virt. eigenvalues --    0.16531   0.16746   0.18641   0.19597   0.21995

 Mulliken charges:
               1
     1  C   -0.683996
     2  C   -0.032583
     3  H    0.038906
     4  H    0.502073
     5  H    0.073505
     6  C   -0.033901
     7  H    0.036960
     8  H    0.058512
     9  C   -0.174089
    10  H    0.024613
    11  H    0.045843
    12  H    0.042491
    13  H    0.034825
    14  H    0.066841
 Sum of Mulliken charges =   0.00000

 Dipole moment (field-independent basis, Debye):
    X=             -0.1091    Y=             -0.0188    Z=             -0.7268  Tot=              0.7352
 Quadrupole moment (field-independent basis, Debye-Ang):
   XX=            -29.5762   YY=            -28.7755   ZZ=            -27.3283
   XY=             -0.2294   XZ=              0.0442   YZ=             -0.1045

 Normal termination of Gaussian 09 at Wed Aug 26 21:57:06 2020.
