 Gaussian 09, Revision D.01,
 Gaussian 09:  ES64L-G09RevD.01 24-Apr-2013

 --------------------
 #p B2PLYPD3/Def2QZVP
 --------------------

 ----------
 butane_opt
 ----------
 Symbolic Z-matrix:
 Charge =  0 Multiplicity = 1

                         Standard orientation:
 ---------------------------------------------------------------------
 Center     Atomic      Atomic             Coordinates (Angstroms)
 Number     Number       Type             X           Y           Z
 ---------------------------------------------------------------------
      1          6           0        1.855019    0.164392    0.121572
      2          6           0        0.597784   -0.477882   -0.039593
      3          1           0        2.962452   -1.001670   -0.378407
      4          1           0        2.029132    1.477035    1.238064
      5          1           0        1.964576    0.298867   -0.404680
      6          6           0       -0.565851    0.433406   -0.218871
      7          1           0        0.323004   -0.782399    0.639462
      8          1           0        0.540880   -1.306563   -0.869064
      9          6           0       -1.909926   -0.122022    0.146970
     10          1           0       -0.614283    1.263930   -1.261514
     11          1           0       -0.194740    0.819548    0.392688
     12          1           0       -1.940302   -0.537794   -0.532661
     13          1           0       -2.714662    0.587608   -0.282234
     14          1           0       -2.218204   -0.805925    1.397876
 ---------------------------------------------------------------------

 SCF Done:  E(RB2PLYPD3) =  -156.843452609     A.U. after   13 cycles
 E2(B2PLYPD3) =    -0.2599593263D+00 E(B2PLYPD3) =    -0.15710341193554D+03

 The electronic state is 1-A.
 Alpha  occ. eigenvalues --  -10.66871 -10.60897 -10.59909 -10.58958  -1.00396
 Alpha  occ. eigenvalues --   -0.90874  -0.82485  -0.71921  -0.55869  -0.52930
 Alpha  occ. eigenvalues --   -0.48020  -0.46912  -0.43695  -0.39730  -0.38445
 Alpha  occ. eigenvalues --   -0.37401  -0.32042
 Alpha virt. eigenvalues --   -0.02240   0.02533   0.04586   0.06036   0.09871
 Alpha virt. eigenvalues --    0.10403   0.11868   0.12498   0.13398   0.15262
 Alpha virt. eigenvalues --    0.15546   0.16185   0.17309   0.18583   0.20750

 Mulliken charges:
               1
     1  C   -0.827133
     2  C   -0.216584
     3  H   -0.029248
     4  H    0.055147
     5  H    0.674447
     6  C   -0.268694
     7  H    0.308773
     8  H    0.029556
     9  C   -0.410283
    10  H    0.010568
    11  H    0.270990
    12  H    0.294308
    13  H    0.051049
    14  H    0.057105
 Sum of Mulliken charges =   0.00000

 Dipole moment (field-independent basis, Debye):
    X=             -0.8239    Y=              0.2217    Z=             -0.3552  Tot=              0.9242
 Quadrupole moment (field-independent basis, Debye-Ang):
   XX=            -33.0101   YY=            -29.2631   ZZ=            -27.8287
   XY=              1.5216   XZ=             -0.3103   YZ=              0.4099

 Normal termination of Gaussian 09 at Wed Aug 26 18:35:05 2020.
