 Gaussian 09, Revision D.01,
 Gaussian 09:  ES64L-G09RevD.01 24-Apr-2013

 --------------------
 #p B2PLYPD3/Def2QZVP
 --------------------

 ----------
 butane_opt
 ----------
 Symbolic Z-matrix:
 Charge =  0 Multiplicity = 1

                         Standard orientation:
 ---------------------------------------------------------------------
 Center     Atomic      Atomic             Coordinates (Angstroms)
 Number     Number       Type             X           Y           Z
 ---------------------------------------------------------------------
      1          6           0        1.985603   -0.100906   -0.176500
      2          6           0        0.544539    0.541064    0.108433
      3          1           0        2.703487    0.423438    0.008199
      4          1           0        2.198164   -1.052014   -1.096731
      5          1           0        2.305762   -0.442943    0.512850
      6          6           0       -0.548413   -0.517212    0.327030
      7          1           0        0.321724    1.121678   -0.872178
      8          1           0        0.899229    1.369281    0.993021
      9          6           0       -1.996980    0.107737   -0.155587
     10          1           0       -0.586223   -1.193093    1.375720
     11          1           0       -0.281489   -1.181508   -0.446623
     12          1           0       -2.678845    0.993329    0.630837
     13          1           0       -2.850150   -0.898928   -0.634417
     14          1           0       -1.940153    0.676661   -1.090938
 ---------------------------------------------------------------------

 SCF Done:  E(RB2PLYPD3) =  -157.836106184     A.U. after   11 cycles
 E2(B2PLYPD3) =    -0.2539474035D+00 E(B2PLYPD3) =    -0.15809005358793D+03

 The electronic state is 1-A.
 Alpha  occ. eigenvalues --  -10.66520 -10.64959 -10.64451 -10.57785  -0.91505
 Alpha  occ. eigenvalues --   -0.85119  -0.73345  -0.66102  -0.51716  -0.48093
 Alpha  occ. eigenvalues --   -0.47301  -0.45046  -0.41153  -0.39524  -0.38285
 Alpha  occ. eigenvalues --   -0.36627  -0.36397
 Alpha virt. eigenvalues --    0.04680   0.05644   0.07285   0.07658   0.09596
 Alpha virt. eigenvalues --    0.10128   0.11882   0.13418   0.14150   0.14726
 Alpha virt. eigenvalues --    0.15391   0.16607   0.19142   0.19286   0.19774

 Mulliken charges:
               1
     1  C   -0.281424
     2  C   -0.048459
     3  H    0.068448
     4  H    0.018149
     5  H    0.166013
     6  C   -0.051757
     7  H    0.052501
     8  H    0.016362
     9  C   -0.178043
    10  H    0.042175
    11  H    0.074313
    12  H    0.038956
    13  H    0.017064
    14  H    0.065703
 Sum of Mulliken charges =   0.00000

 Dipole moment (field-independent basis, Debye):
    X=              0.7371    Y=             -0.0075    Z=              0.1716  Tot=              0.7568
 Quadrupole moment (field-independent basis, Debye-Ang):
   XX=            -30.4048   YY=            -29.4758   ZZ=            -29.0916
   XY=             -0.4243   XZ=              2.1282   YZ=              0.2308

 Normal termination of Gaussian 09 at Wed Aug 26 12:45:08 2020.
