 Gaussian 09, Revision D.01,
 Gaussian 09:  ES64L-G09RevD.01 24-Apr-2013

 --------------------
 #p B2PLYPD3/Def2QZVP
 --------------------

 ----------
 butane_opt
 ----------
 Symbolic Z-matrix:
 Charge =  0 Multiplicity = 1

                         Standard orientation:
 ---------------------------------------------------------------------
 Center     Atomic      Atomic             Coordinates (Angstroms)
 Number     Number       Type             X           Y           Z
 ---------------------------------------------------------------------
      1          6           0        2.082649    0.149304    0.107107
      2          6           0        0.542142   -0.623091   -0.050532
      3          1           0        2.798171   -0.729296   -0.470442
      4          1           0        2.856616    1.474763    1.268496
      5          1           0        1.757099    0.305160   -0.513990
      6          6           0       -0.645494    0.477469   -0.233681
      7          1           0        0.212605   -0.905839    0.618493
      8          1           0        0.213710   -1.397374   -0.916983
      9          6           0       -1.988284   -0.023161    0.243040
     10          1           0       -0.759808    1.234481   -1.413614
     11          1           0       -0.490588    0.851470    0.240230
     12          1           0       -1.938436   -0.550402   -0.455156
     13          1           0       -2.686956    0.656787   -0.029251
     14          1           0       -1.908490   -0.822878    1.276615
 ---------------------------------------------------------------------

 SCF Done:  E(RB2PLYPD3) =  -157.019870629     A.U. after   13 cycles
 E2(B2PLYPD3) =    -0.2616618064D+00 E(B2PLYPD3) =    -0.15728153243563D+03

 The electronic state is 1-A.
 Alpha  occ. eigenvalues --  -10.64609 -10.61923 -10.60065 -10.58726  -0.96540
 Alpha  occ. eigenvalues --   -0.88511  -0.78953  -0.74586  -0.54452  -0.50997
 Alpha  occ. eigenvalues --   -0.47145  -0.45470  -0.40856  -0.39443  -0.37377
 Alpha  occ. eigenvalues --   -0.36150  -0.35205
 Alpha virt. eigenvalues --   -0.04983   0.05215   0.06070   0.07452   0.09827
 Alpha virt. eigenvalues --    0.11268   0.11746   0.12730   0.14099   0.15144
 Alpha virt. eigenvalues --    0.15495   0.16166   0.17838   0.18079   0.19521

 Mulliken charges:
               1
     1  C   -0.653355
     2  C   -0.320396
     3  H    0.060561
     4  H    0.078458
     5  H    0.509116
     6  C   -0.792208
     7  H    0.311768
     8  H    0.058032
     9  C   -0.237846
    10  H    0.014371
    11  H    0.684172
    12  H    0.172215
    13  H    0.067208
    14  H    0.047903
 Sum of Mulliken charges =   0.00000

 Dipole moment (field-independent basis, Debye):
    X=             -0.3877    Y=              0.0681    Z=             -0.2750  Tot=              0.4801
 Quadrupole moment (field-independent basis, Debye-Ang):
   XX=            -30.4216   YY=            -28.4663   ZZ=            -28.3786
   XY=              0.8847   XZ=              0.6087   YZ=              1.1658

 Normal termination of Gaussian 09 at Wed Aug 26 16:28:43 2020.
