 Gaussian 09, Revision D.01,
 Gaussian 09:  ES64L-G09RevD.01 24-Apr-2013

 --------------------
 #p B2PLYPD3/Def2QZVP
 --------------------

 ----------
 butane_opt
 ----------
 Symbolic Z-matrix:
 Charge =  0 Multiplicity = 1

                         Standard orientation:
 ---------------------------------------------------------------------
 Center     Atomic      Atomic             Coordinates (Angstroms)
 Number     Number       Type             X           Y           Z
 ---------------------------------------------------------------------
      1          6           0        1.977105   -0.183573   -0.142928
      2          6           0        0.519018    0.606932    0.097064
      3          1           0        2.619315    0.416609   -0.553191
      4          1           0        1.854412   -1.071139   -0.824841
      5          1           0        2.365584   -0.812718    0.969270
      6          6           0       -0.635888   -0.288128    0.353706
      7          1           0        0.322518    0.801253   -0.818618
      8          1           0        0.446923    1.558095    0.758596
      9          6           0       -1.883286   -0.028432   -0.196611
     10          1           0       -0.624345   -0.685425    1.387597
     11          1           0       -0.213327   -1.282666   -0.456778
     12          1           0       -2.186525    0.873995    0.506010
     13          1           0       -2.854460   -0.982756   -0.319801
     14          1           0       -1.591785    0.543959   -1.315634
 ---------------------------------------------------------------------

 SCF Done:  E(RB2PLYPD3) =  -157.936523051     A.U. after   11 cycles
 E2(B2PLYPD3) =    -0.2541005043D+00 E(B2PLYPD3) =    -0.15819062355577D+03

 The electronic state is 1-A.
 Alpha  occ. eigenvalues --  -10.65207 -10.62893 -10.62404 -10.61346  -0.93422
 Alpha  occ. eigenvalues --   -0.82799  -0.73367  -0.63922  -0.54822  -0.49959
 Alpha  occ. eigenvalues --   -0.48020  -0.45520  -0.43958  -0.41511  -0.37476
 Alpha  occ. eigenvalues --   -0.37202  -0.31765
 Alpha virt. eigenvalues --    0.04210   0.06052   0.07387   0.07947   0.09775
 Alpha virt. eigenvalues --    0.10734   0.11743   0.12290   0.14040   0.14886
 Alpha virt. eigenvalues --    0.15334   0.16057   0.18658   0.19771   0.20098

 Mulliken charges:
               1
     1  C   -0.147232
     2  C   -0.109080
     3  H    0.086043
     4  H    0.046795
     5  H    0.018270
     6  C   -0.010705
     7  H    0.102062
     8  H    0.028050
     9  C   -0.164193
    10  H    0.051539
    11  H   -0.029775
    12  H    0.032384
    13  H    0.068461
    14  H    0.027380
 Sum of Mulliken charges =   0.00000

 Dipole moment (field-independent basis, Debye):
    X=              0.0514    Y=              0.2721    Z=             -0.1196  Tot=              0.3017
 Quadrupole moment (field-independent basis, Debye-Ang):
   XX=            -30.6893   YY=            -30.0212   ZZ=            -28.9470
   XY=              0.8488   XZ=             -1.3677   YZ=              0.2347

 Normal termination of Gaussian 09 at Wed Aug 26 10:46:53 2020.
