 Gaussian 09, Revision D.01,
 Gaussian 09:  ES64L-G09RevD.01 24-Apr-2013

 --------------------
 #p B2PLYPD3/Def2QZVP
 --------------------

 ----------
 butane_opt
 ----------
 Symbolic Z-matrix:
 Charge =  0 Multiplicity = 1

                         Standard orientation:
 ---------------------------------------------------------------------
 Center     Atomic      Atomic             Coordinates (Angstroms)
 Number     Number       Type             X           Y           Z
 ---------------------------------------------------------------------
      1          6           0       -1.955156   -0.128858    0.006358
      2          6           0       -0.506870    0.471131   -0.005971
      3          1           0       -2.809571    0.739860   -0.271630
      4          1           0       -2.009616   -0.843193    1.053421
      5          1           0       -2.129109   -0.786444   -0.950456
      6          6           0        0.510092   -0.429010    0.005050
      7          1           0       -0.354745    1.307671    0.899090
      8          1           0       -0.186287    1.090668   -0.876978
      9          6           0        1.913510    0.045815   -0.019422
     10          1           0        0.742610   -0.801952   -0.691316
     11          1           0        0.448118   -1.291002    1.153539
     12          1           0        1.567877    0.526598   -0.752182
     13          1           0        2.683612   -0.634074   -0.639986
     14          1           0        2.277649    0.937396    1.160399
 ---------------------------------------------------------------------

 SCF Done:  E(RB2PLYPD3) =  -157.782719209     A.U. after   11 cycles
 E2(B2PLYPD3) =    -0.2567519575D+00 E(B2PLYPD3) =    -0.15803947116609D+03

 The electronic state is 1-A.
 Alpha  occ. eigenvalues --  -10.65539 -10.63706 -10.62877 -10.60766  -0.99332
 Alpha  occ. eigenvalues --   -0.84930  -0.72418  -0.66707  -0.56083  -0.50939
 Alpha  occ. eigenvalues --   -0.49537  -0.46498  -0.41421  -0.40665  -0.38460
 Alpha  occ. eigenvalues --   -0.35142  -0.32835
 Alpha virt. eigenvalues --    0.03701   0.05377   0.06387   0.07786   0.09705
 Alpha virt. eigenvalues --    0.10364   0.11696   0.11873   0.12990   0.14631
 Alpha virt. eigenvalues --    0.15123   0.17098   0.17939   0.19529   0.20166

 Mulliken charges:
               1
     1  C   -0.161908
     2  C    0.016370
     3  H    0.044121
     4  H    0.072371
     5  H    0.035234
     6  C   -0.247281
     7  H    0.028583
     8  H    0.014174
     9  C   -0.214635
    10  H    0.270645
    11  H   -0.044313
    12  H    0.111624
    13  H    0.060876
    14  H    0.014139
 Sum of Mulliken charges =   0.00000

 Dipole moment (field-independent basis, Debye):
    X=             -0.1528    Y=              0.1468    Z=             -1.1750  Tot=              1.1940
 Quadrupole moment (field-independent basis, Debye-Ang):
   XX=            -31.0841   YY=            -31.1178   ZZ=            -28.6617
   XY=             -0.9140   XZ=             -0.9866   YZ=              0.7266

 Normal termination of Gaussian 09 at Wed Aug 26 19:47:40 2020.
