 Gaussian 09, Revision D.01,
 Gaussian 09:  ES64L-G09RevD.01 24-Apr-2013

 --------------------
 #p B2PLYPD3/Def2QZVP
 --------------------

 ----------
 butane_opt
 ----------
 Symbolic Z-matrix:
 Charge =  0 Multiplicity = 1

                         Standard orientation:
 ---------------------------------------------------------------------
 Center     Atomic      Atomic             Coordinates (Angstroms)
 Number     Number       Type             X           Y           Z
 ---------------------------------------------------------------------
      1          6           0       -1.954448    0.132820    0.082718
      2          6           0       -0.567001   -0.542387   -0.090885
      3          1           0       -2.697691   -0.673217   -0.308448
      4          1           0       -2.055251    0.484100   -0.601743
      5          1           0       -2.162713    1.128776    1.182498
      6          6           0        0.580301    0.513009   -0.118763
      7          1           0       -0.609846   -1.206209   -0.847333
      8          1           0       -0.429051   -1.206724    0.825218
      9          6           0        1.962056   -0.094283    0.085024
     10          1           0        0.310967    1.079886    0.683568
     11          1           0        0.660451    1.366683   -1.125627
     12          1           0        2.076083   -0.880622    1.139442
     13          1           0        2.664780    0.556738    0.069678
     14          1           0        2.116824   -0.704365   -0.765821
 ---------------------------------------------------------------------

 SCF Done:  E(RB2PLYPD3) =  -157.850053227     A.U. after   11 cycles
 E2(B2PLYPD3) =    -0.2503127458D+00 E(B2PLYPD3) =    -0.15810036597314D+03

 The electronic state is 1-A.
 Alpha  occ. eigenvalues --  -10.62350 -10.61042 -10.60701 -10.60280  -0.91791
 Alpha  occ. eigenvalues --   -0.85387  -0.75097  -0.67606  -0.53171  -0.50580
 Alpha  occ. eigenvalues --   -0.47873  -0.46205  -0.41967  -0.39215  -0.39187
 Alpha  occ. eigenvalues --   -0.37539  -0.36583
 Alpha virt. eigenvalues --    0.04202   0.06145   0.06886   0.07638   0.10606
 Alpha virt. eigenvalues --    0.11386   0.12404   0.13169   0.13823   0.15196
 Alpha virt. eigenvalues --    0.15463   0.16361   0.18828   0.19265   0.21164

 Mulliken charges:
               1
     1  C   -0.427366
     2  C    0.004176
     3  H    0.029074
     4  H    0.308059
     5  H    0.038625
     6  C   -0.063818
     7  H    0.039964
     8  H    0.031549
     9  C   -0.141959
    10  H    0.060701
    11  H   -0.005359
    12  H    0.012219
    13  H    0.065329
    14  H    0.048806
 Sum of Mulliken charges =   0.00000

 Dipole moment (field-independent basis, Debye):
    X=              0.1413    Y=              0.0205    Z=             -0.5468  Tot=              0.5651
 Quadrupole moment (field-independent basis, Debye-Ang):
   XX=            -30.3904   YY=            -28.8227   ZZ=            -28.5363
   XY=              0.5665   XZ=              0.8846   YZ=              0.7973

 Normal termination of Gaussian 09 at Wed Aug 26 19:18:39 2020.
