 Gaussian 09, Revision D.01,
 Gaussian 09:  ES64L-G09RevD.01 24-Apr-2013

 --------------------
 #p B2PLYPD3/Def2QZVP
 --------------------

 ----------
 butane_opt
 ----------
 Symbolic Z-matrix:
 Charge =  0 Multiplicity = 1

                         Standard orientation:
 ---------------------------------------------------------------------
 Center     Atomic      Atomic             Coordinates (Angstroms)
 Number     Number       Type             X           Y           Z
 ---------------------------------------------------------------------
      1          6           0        1.981787   -0.246221   -0.132257
      2          6           0        0.543381    0.594960    0.031058
      3          1           0        2.749664    0.540893   -0.059519
      4          1           0        2.189957   -0.859603   -0.924149
      5          1           0        2.393721   -0.615211    0.631149
      6          6           0       -0.621517   -0.467507    0.239273
      7          1           0        0.484394    1.143158   -0.762437
      8          1           0        0.598254    1.631550    1.071880
      9          6           0       -1.935397    0.024917   -0.148839
     10          1           0       -0.575318   -1.173403    1.479961
     11          1           0       -0.757566   -0.882305   -0.457794
     12          1           0       -2.579856    0.850078    0.696539
     13          1           0       -2.610825   -0.659030   -0.659882
     14          1           0       -1.701948    0.586976   -0.951160
 ---------------------------------------------------------------------

 SCF Done:  E(RB2PLYPD3) =  -157.815572483     A.U. after   11 cycles
 E2(B2PLYPD3) =    -0.2521198584D+00 E(B2PLYPD3) =    -0.15806769234163D+03

 The electronic state is 1-A.
 Alpha  occ. eigenvalues --  -10.65155 -10.61831 -10.61473 -10.58500  -0.95328
 Alpha  occ. eigenvalues --   -0.84880  -0.74655  -0.68564  -0.54181  -0.50478
 Alpha  occ. eigenvalues --   -0.49327  -0.48372  -0.42357  -0.39226  -0.38019
 Alpha  occ. eigenvalues --   -0.36236  -0.34980
 Alpha virt. eigenvalues --    0.04428   0.06402   0.07040   0.07543   0.10326
 Alpha virt. eigenvalues --    0.11252   0.11991   0.13484   0.14722   0.15036
 Alpha virt. eigenvalues --    0.15405   0.16515   0.18304   0.19257   0.20869

 Mulliken charges:
               1
     1  C   -0.128028
     2  C   -0.078740
     3  H    0.017849
     4  H    0.049701
     5  H    0.052201
     6  C   -0.312210
     7  H    0.095946
     8  H   -0.006639
     9  C   -0.156620
    10  H    0.024618
    11  H    0.319856
    12  H    0.008576
    13  H    0.049575
    14  H    0.063914
 Sum of Mulliken charges =   0.00000

 Dipole moment (field-independent basis, Debye):
    X=              0.1969    Y=             -0.2584    Z=             -0.9505  Tot=              1.0045
 Quadrupole moment (field-independent basis, Debye-Ang):
   XX=            -29.6014   YY=            -29.6988   ZZ=            -28.3079
   XY=              0.3538   XZ=              1.4398   YZ=              0.2648

 Normal termination of Gaussian 09 at Wed Aug 26 20:59:42 2020.
