 Gaussian 09, Revision D.01,
 Gaussian 09:  ES64L-G09RevD.01 24-Apr-2013

 --------------------
 #p B2PLYPD3/Def2QZVP
 --------------------

 ----------
 butane_opt
 ----------
 Symbolic Z-matrix:
 Charge =  0 Multiplicity = 1

                         Standard orientation:
 ---------------------------------------------------------------------
 Center     Atomic      Atomic             Coordinates (Angstroms)
 Number     Number       Type             X           Y           Z
 ---------------------------------------------------------------------
      1          6           0       -1.940671   -0.129248   -0.058345
      2          6           0       -0.470873    0.561154    0.070785
      3          1           0       -2.740098    0.629024   -0.278313
      4          1           0       -2.350747   -0.953238    0.954320
      5          1           0       -1.949694   -0.675505   -0.861319
      6          6           0        0.575347   -0.476494    0.031867
      7          1           0       -0.457163    1.311634    1.035086
      8          1           0       -0.339130    0.952538   -0.712097
      9          6           0        1.887673    0.077632   -0.043511
     10          1           0        0.352336   -1.077535   -0.832109
     11          1           0        0.656685   -1.131806    0.863851
     12          1           0        1.970989    0.738299   -1.029516
     13          1           0        2.602545   -0.630031    0.042136
     14          1           0        1.945416    0.638357    0.813187
 ---------------------------------------------------------------------

 SCF Done:  E(RB2PLYPD3) =  -158.002431616     A.U. after   11 cycles
 E2(B2PLYPD3) =    -0.2471951753D+00 E(B2PLYPD3) =    -0.15824962679171D+03

 The electronic state is 1-A.
 Alpha  occ. eigenvalues --  -10.61795 -10.60098 -10.58601 -10.58297  -0.94191
 Alpha  occ. eigenvalues --   -0.83923  -0.73717  -0.67390  -0.56048  -0.51703
 Alpha  occ. eigenvalues --   -0.48351  -0.47915  -0.42550  -0.39939  -0.38588
 Alpha  occ. eigenvalues --   -0.38136  -0.37647
 Alpha virt. eigenvalues --    0.05565   0.06628   0.08073   0.08663   0.10827
 Alpha virt. eigenvalues --    0.11560   0.12733   0.13523   0.14849   0.15069
 Alpha virt. eigenvalues --    0.15665   0.16755   0.19436   0.20062   0.22038

 Mulliken charges:
               1
     1  C   -0.173197
     2  C   -0.142654
     3  H    0.041546
     4  H    0.017900
     5  H    0.074776
     6  C   -0.017872
     7  H    0.022411
     8  H    0.141605
     9  C   -0.136662
    10  H    0.027401
    11  H    0.028031
    12  H    0.017394
    13  H    0.046864
    14  H    0.052457
 Sum of Mulliken charges =   0.00000

 Dipole moment (field-independent basis, Debye):
    X=              0.2556    Y=             -0.0756    Z=             -0.3090  Tot=              0.4081
 Quadrupole moment (field-independent basis, Debye-Ang):
   XX=            -30.3174   YY=            -29.1134   ZZ=            -27.8409
   XY=             -0.9545   XZ=              1.2665   YZ=             -0.1564

 Normal termination of Gaussian 09 at Wed Aug 26 13:52:57 2020.
