 Gaussian 09, Revision D.01,
 Gaussian 09:  ES64L-G09RevD.01 24-Apr-2013

 --------------------
 #p B2PLYPD3/Def2QZVP
 --------------------

 ----------
 butane_opt
 ----------
 Symbolic Z-matrix:
 Charge =  0 Multiplicity = 1

                         Standard orientation:
 ---------------------------------------------------------------------
 Center     Atomic      Atomic             Coordinates (Angstroms)
 Number     Number       Type             X           Y           Z
 ---------------------------------------------------------------------
      1          6           0       -1.971892   -0.098693    0.030905
      2          6           0       -0.626849    0.467944    0.001853
      3          1           0       -2.769881    0.709537   -0.108079
      4          1           0       -2.051644   -0.873303    1.010757
      5          1           0       -1.936740   -0.556058   -0.760412
      6          6           0        0.569827   -0.535920   -0.020268
      7          1           0       -0.475847    0.980486    0.819608
      8          1           0       -0.625115    1.335888   -1.036229
      9          6           0        1.994908    0.125702   -0.007839
     10          1           0        0.354817   -1.274141   -0.894842
     11          1           0        0.469511   -1.158526    0.853650
     12          1           0        2.042519    0.587403   -0.772089
     13          1           0        2.706667   -0.537601   -0.309656
     14          1           0        2.489748    1.032115    1.169380
 ---------------------------------------------------------------------

 SCF Done:  E(RB2PLYPD3) =  -157.914679445     A.U. after   11 cycles
 E2(B2PLYPD3) =    -0.2500382897D+00 E(B2PLYPD3) =    -0.15816471773424D+03

 The electronic state is 1-A.
 Alpha  occ. eigenvalues --  -10.62627 -10.61548 -10.61387 -10.59762  -0.92085
 Alpha  occ. eigenvalues --   -0.85550  -0.74772  -0.66755  -0.53746  -0.49489
 Alpha  occ. eigenvalues --   -0.48799  -0.47181  -0.42298  -0.41037  -0.38995
 Alpha  occ. eigenvalues --   -0.36775  -0.35824
 Alpha virt. eigenvalues --    0.03958   0.05666   0.07131   0.07795   0.10413
 Alpha virt. eigenvalues --    0.11225   0.12325   0.12679   0.14242   0.15291
 Alpha virt. eigenvalues --    0.15958   0.16230   0.18943   0.19296   0.20701

 Mulliken charges:
               1
     1  C   -0.186209
     2  C   -0.049818
     3  H    0.054621
     4  H    0.027973
     5  H    0.101126
     6  C   -0.028101
     7  H    0.077613
     8  H   -0.026373
     9  C   -0.203805
    10  H    0.013489
    11  H    0.040038
    12  H    0.112764
    13  H    0.049403
    14  H    0.017279
 Sum of Mulliken charges =   0.00000

 Dipole moment (field-independent basis, Debye):
    X=             -0.0081    Y=             -0.3155    Z=             -0.3669  Tot=              0.4840
 Quadrupole moment (field-independent basis, Debye-Ang):
   XX=            -29.9515   YY=            -29.6839   ZZ=            -28.3952
   XY=             -0.7259   XZ=             -0.5984   YZ=              0.2705

 Normal termination of Gaussian 09 at Wed Aug 26 22:28:55 2020.
