 Gaussian 09, Revision D.01,
 Gaussian 09:  ES64L-G09RevD.01 24-Apr-2013

 --------------------
 #p B2PLYPD3/Def2QZVP
 --------------------

 ----------
 butane_opt
 ----------
 Symbolic Z-matrix:
 Charge =  0 Multiplicity = 1

                         Standard orientation:
 ---------------------------------------------------------------------
 Center     Atomic      Atomic             Coordinates (Angstroms)
 Number     Number       Type             X           Y           Z
 ---------------------------------------------------------------------
      1          6           0       -1.993702   -0.146857    0.027079
      2          6           0       -0.538600    0.591739   -0.031920
      3          1           0       -2.634339    0.446729   -0.082541
      4          1           0       -2.273654   -1.187106    1.056326
      5          1           0       -2.126092   -0.399471   -0.544079
      6          6           0        0.563433   -0.493488   -0.161686
      7          1           0       -0.430989    1.194344    0.875334
      8          1           0       -0.450868    1.249194   -0.934578
      9          6           0        1.982939    0.079425    0.100008
     10          1           0        0.638639   -1.107481   -1.097365
     11          1           0        0.422695   -1.021887    0.556557
     12          1           0        2.176339    0.630854   -0.712404
     13          1           0        2.749193   -0.737088    0.234747
     14          1           0        1.844652    0.746998    1.047109
 ---------------------------------------------------------------------

 SCF Done:  E(RB2PLYPD3) =  -157.614416997     A.U. after   11 cycles
 E2(B2PLYPD3) =    -0.2475665250D+00 E(B2PLYPD3) =    -0.15786198352153D+03

 The electronic state is 1-A.
 Alpha  occ. eigenvalues --  -10.62233 -10.59643 -10.58350 -10.57690  -0.93051
 Alpha  occ. eigenvalues --   -0.88076  -0.76048  -0.68406  -0.54854  -0.51082
 Alpha  occ. eigenvalues --   -0.48553  -0.47386  -0.43381  -0.41146  -0.39105
 Alpha  occ. eigenvalues --   -0.37863  -0.36857
 Alpha virt. eigenvalues --    0.05243   0.06149   0.08056   0.08492   0.10842
 Alpha virt. eigenvalues --    0.11386   0.12602   0.13631   0.14863   0.15394
 Alpha virt. eigenvalues --    0.16085   0.16509   0.18937   0.19915   0.21583

 Mulliken charges:
               1
     1  C   -0.627638
     2  C   -0.003927
     3  H    0.054231
     4  H    0.022576
     5  H    0.477535
     6  C   -0.113409
     7  H    0.047165
     8  H    0.025051
     9  C   -0.160641
    10  H    0.022996
    11  H    0.114415
    12  H    0.064249
    13  H    0.043727
    14  H    0.033671
 Sum of Mulliken charges =   0.00000

 Dipole moment (field-independent basis, Debye):
    X=             -0.1346    Y=              0.0981    Z=             -0.4854  Tot=              0.5132
 Quadrupole moment (field-independent basis, Debye-Ang):
   XX=            -29.4502   YY=            -28.5274   ZZ=            -27.7069
   XY=             -1.0030   XZ=              0.6874   YZ=             -0.2816

 Normal termination of Gaussian 09 at Wed Aug 26 22:54:44 2020.
