 Gaussian 09, Revision D.01,
 Gaussian 09:  ES64L-G09RevD.01 24-Apr-2013

 --------------------
 #p B2PLYPD3/Def2QZVP
 --------------------

 ----------
 butane_opt
 ----------
 Symbolic Z-matrix:
 Charge =  0 Multiplicity = 1

                         Standard orientation:
 ---------------------------------------------------------------------
 Center     Atomic      Atomic             Coordinates (Angstroms)
 Number     Number       Type             X           Y           Z
 ---------------------------------------------------------------------
      1          6           0        1.944442    0.107569   -0.002836
      2          6           0        0.568808   -0.488000   -0.007501
      3          1           0        2.753285   -0.710069   -0.192657
      4          1           0        2.149184    0.954030    1.024814
      5          1           0        1.967119    0.615059   -0.772022
      6          6           0       -0.556274    0.502009   -0.024997
      7          1           0        0.494393   -1.229577    0.921593
      8          1           0        0.328623   -1.118468   -0.820361
      9          6           0       -1.944470   -0.106277    0.008741
     10          1           0       -0.444235    1.213617   -0.946847
     11          1           0       -0.448740    1.102450    0.826504
     12          1           0       -2.060178   -0.714529   -0.828427
     13          1           0       -2.702149    0.599332    0.031156
     14          1           0       -2.112337   -0.803649    0.915806
 ---------------------------------------------------------------------

 SCF Done:  E(RB2PLYPD3) =  -158.052544018     A.U. after   11 cycles
 E2(B2PLYPD3) =    -0.2473069970D+00 E(B2PLYPD3) =    -0.15829985101486D+03

 The electronic state is 1-A.
 Alpha  occ. eigenvalues --  -10.61128 -10.60715 -10.60482 -10.59286  -0.92061
 Alpha  occ. eigenvalues --   -0.84061  -0.73461  -0.66320  -0.54379  -0.49686
 Alpha  occ. eigenvalues --   -0.49115  -0.47580  -0.42465  -0.40339  -0.39674
 Alpha  occ. eigenvalues --   -0.37991  -0.36559
 Alpha virt. eigenvalues --    0.05516   0.06571   0.07858   0.08467   0.10744
 Alpha virt. eigenvalues --    0.11781   0.12873   0.13593   0.14718   0.14969
 Alpha virt. eigenvalues --    0.15627   0.16401   0.19651   0.20224   0.21616

 Mulliken charges:
               1
     1  C   -0.188590
     2  C   -0.020263
     3  H    0.045629
     4  H    0.023731
     5  H    0.095082
     6  C   -0.040164
     7  H    0.008547
     8  H    0.035979
     9  C   -0.133996
    10  H    0.008747
    11  H    0.039115
    12  H    0.043282
    13  H    0.052088
    14  H    0.030813
 Sum of Mulliken charges =   0.00000

 Dipole moment (field-independent basis, Debye):
    X=             -0.1789    Y=              0.0273    Z=             -0.3825  Tot=              0.4231
 Quadrupole moment (field-independent basis, Debye-Ang):
   XX=            -29.7374   YY=            -29.0326   ZZ=            -28.4502
   XY=             -0.4464   XZ=             -0.5896   YZ=              0.3204

 Normal termination of Gaussian 09 at Wed Aug 26 11:09:08 2020.
