 Gaussian 09, Revision D.01,
 Gaussian 09:  ES64L-G09RevD.01 24-Apr-2013

 --------------------
 #p B2PLYPD3/Def2QZVP
 --------------------

 ----------
 butane_opt
 ----------
 Symbolic Z-matrix:
 Charge =  0 Multiplicity = 1

                         Standard orientation:
 ---------------------------------------------------------------------
 Center     Atomic      Atomic             Coordinates (Angstroms)
 Number     Number       Type             X           Y           Z
 ---------------------------------------------------------------------
      1          6           0        1.942490   -0.088100   -0.196355
      2          6           0        0.641045    0.561686    0.248193
      3          1           0        2.683431    0.547495   -0.919257
      4          1           0        1.503756   -0.659000   -1.157670
      5          1           0        2.468022   -1.009972    0.761859
      6          6           0       -0.572991   -0.631332    0.148872
      7          1           0        0.428201    0.822542   -0.364735
      8          1           0        0.956832    1.579795    1.385753
      9          6           0       -2.034194    0.136387   -0.183727
     10          1           0       -0.456569   -1.341704    1.046635
     11          1           0       -0.108241   -0.885015   -0.350960
     12          1           0       -2.246585    0.699536    0.726250
     13          1           0       -2.790841   -0.473426   -0.017445
     14          1           0       -2.296104    0.847909   -1.212329
 ---------------------------------------------------------------------

 SCF Done:  E(RB2PLYPD3) =  -157.485490408     A.U. after   12 cycles
 E2(B2PLYPD3) =    -0.2560374127D+00 E(B2PLYPD3) =    -0.15774152782104D+03

 The electronic state is 1-A.
 Alpha  occ. eigenvalues --  -10.65973 -10.62894 -10.61892 -10.61125  -0.95353
 Alpha  occ. eigenvalues --   -0.83132  -0.76743  -0.70035  -0.53095  -0.50046
 Alpha  occ. eigenvalues --   -0.47027  -0.44686  -0.42173  -0.41639  -0.39528
 Alpha  occ. eigenvalues --   -0.36755  -0.33119
 Alpha virt. eigenvalues --    0.04035   0.05437   0.05682   0.08288   0.09957
 Alpha virt. eigenvalues --    0.10907   0.11368   0.12898   0.13165   0.14461
 Alpha virt. eigenvalues --    0.15889   0.16818   0.17377   0.18185   0.19804

 Mulliken charges:
               1
     1  C   -0.139124
     2  C   -0.653964
     3  H    0.062660
     4  H    0.015765
     5  H    0.041849
     6  C   -0.496108
     7  H    0.598846
     8  H    0.007363
     9  C   -0.142908
    10  H    0.066607
    11  H    0.461799
    12  H    0.064238
    13  H    0.063868
    14  H    0.049107
 Sum of Mulliken charges =   0.00000

 Dipole moment (field-independent basis, Debye):
    X=             -0.6093    Y=             -0.2307    Z=             -0.6004  Tot=              0.8860
 Quadrupole moment (field-independent basis, Debye-Ang):
   XX=            -28.9937   YY=            -30.2523   ZZ=            -28.4351
   XY=             -0.0859   XZ=             -0.8675   YZ=             -1.6288

 Normal termination of Gaussian 09 at Wed Aug 26 10:32:25 2020.
