 Gaussian 09, Revision D.01,
 Gaussian 09:  ES64L-G09RevD.01 24-Apr-2013

 --------------------
 #p B2PLYPD3/Def2QZVP
 --------------------

 ----------
 butane_opt
 ----------
 Symbolic Z-matrix:
 Charge =  0 Multiplicity = 1

                         Standard orientation:
 ---------------------------------------------------------------------
 Center     Atomic      Atomic             Coordinates (Angstroms)
 Number     Number       Type             X           Y           Z
 ---------------------------------------------------------------------
      1          6           0       -1.971058    0.030145    0.059871
      2          6           0       -0.629948   -0.449831    0.029651
      3          1           0       -2.688669   -0.678828   -0.296213
      4          1           0       -1.902934    0.367406   -0.599824
      5          1           0       -2.423746    1.068247    1.237969
      6          6           0        0.548573    0.565560   -0.184077
      7          1           0       -0.561865   -1.322004   -0.922303
      8          1           0       -0.362126   -0.818517    0.701228
      9          6           0        2.102894   -0.139638    0.124415
     10          1           0        0.520408    1.023914    0.441705
     11          1           0        0.186581    1.313900   -1.158550
     12          1           0        1.879300   -0.664540    0.879610
     13          1           0        2.750122    0.452521    0.116340
     14          1           0        2.300157   -0.779517   -0.579127
 ---------------------------------------------------------------------

 SCF Done:  E(RB2PLYPD3) =  -157.528473440     A.U. after   11 cycles
 E2(B2PLYPD3) =    -0.2491308844D+00 E(B2PLYPD3) =    -0.15777760432388D+03

 The electronic state is 1-A.
 Alpha  occ. eigenvalues --  -10.59966 -10.59731 -10.59461 -10.56708  -0.95527
 Alpha  occ. eigenvalues --   -0.87795  -0.79857  -0.72439  -0.55079  -0.54581
 Alpha  occ. eigenvalues --   -0.49929  -0.47527  -0.46481  -0.42162  -0.38090
 Alpha  occ. eigenvalues --   -0.37402  -0.34456
 Alpha virt. eigenvalues --    0.03437   0.05560   0.06995   0.08683   0.10656
 Alpha virt. eigenvalues --    0.11661   0.12515   0.14207   0.14685   0.15348
 Alpha virt. eigenvalues --    0.16000   0.16479   0.18436   0.19937   0.20368

 Mulliken charges:
               1
     1  C   -0.471893
     2  C   -0.193351
     3  H    0.069805
     4  H    0.385142
     5  H   -0.000799
     6  C   -0.365800
     7  H   -0.001560
     8  H    0.210012
     9  C   -0.180742
    10  H    0.317235
    11  H    0.015979
    12  H    0.073003
    13  H    0.095087
    14  H    0.047883
 Sum of Mulliken charges =   0.00000

 Dipole moment (field-independent basis, Debye):
    X=              0.5517    Y=             -0.3486    Z=             -0.0472  Tot=              0.6543
 Quadrupole moment (field-independent basis, Debye-Ang):
   XX=            -28.5567   YY=            -28.8557   ZZ=            -28.2212
   XY=              0.4310   XZ=              1.8016   YZ=              0.4561

 Normal termination of Gaussian 09 at Wed Aug 26 09:57:20 2020.
