 Gaussian 09, Revision D.01,
 Gaussian 09:  ES64L-G09RevD.01 24-Apr-2013

 --------------------
 #p B2PLYPD3/Def2QZVP
 --------------------

 ----------
 butane_opt
 ----------
 Symbolic Z-matrix:
 Charge =  0 Multiplicity = 1

                         Standard orientation:
 ---------------------------------------------------------------------
 Center     Atomic      Atomic             Coordinates (Angstroms)
 Number     Number       Type             X           Y           Z
 ---------------------------------------------------------------------
      1          6           0        1.926718    0.078669   -0.205641
      2          6           0        0.532128   -0.325864    0.371043
      3          1           0        2.875073   -1.002025   -0.548886
      4          1           0        2.352951    1.028076    0.570214
      5          1           0        1.408911    0.366712   -1.105750
      6          6           0       -0.541167    0.442099    0.004149
      7          1           0        0.566501   -0.927555    1.661337
      8          1           0        0.413474   -1.091603   -0.110120
      9          6           0       -1.908359   -0.194937   -0.157880
     10          1           0       -0.036457    0.789549   -0.888439
     11          1           0       -0.755809    1.702469    0.803953
     12          1           0       -2.048064   -1.065252   -0.899866
     13          1           0       -2.557141    0.550258   -0.168861
     14          1           0       -2.275358   -0.350429    0.616395
 ---------------------------------------------------------------------

 SCF Done:  E(RB2PLYPD3) =  -157.795543615     A.U. after   12 cycles
 E2(B2PLYPD3) =    -0.2559140309D+00 E(B2PLYPD3) =    -0.15805145764549D+03

 The electronic state is 1-A.
 Alpha  occ. eigenvalues --  -10.66425 -10.64332 -10.61534 -10.58053  -0.96696
 Alpha  occ. eigenvalues --   -0.86989  -0.74660  -0.66416  -0.54511  -0.51812
 Alpha  occ. eigenvalues --   -0.50180  -0.47629  -0.40864  -0.40008  -0.39614
 Alpha  occ. eigenvalues --   -0.35857  -0.33195
 Alpha virt. eigenvalues --    0.03595   0.04805   0.06667   0.07189   0.09016
 Alpha virt. eigenvalues --    0.10729   0.12492   0.13447   0.14020   0.14912
 Alpha virt. eigenvalues --    0.15120   0.16256   0.17687   0.19508   0.19797

 Mulliken charges:
               1
     1  C   -0.187853
     2  C   -0.098479
     3  H    0.039326
     4  H    0.061061
     5  H    0.069046
     6  C    0.005983
     7  H   -0.023359
     8  H    0.128625
     9  C   -0.191025
    10  H    0.038654
    11  H   -0.047162
    12  H    0.045632
    13  H    0.050830
    14  H    0.108721
 Sum of Mulliken charges =   0.00000

 Dipole moment (field-independent basis, Debye):
    X=             -0.6341    Y=             -0.4856    Z=             -0.6376  Tot=              1.0220
 Quadrupole moment (field-independent basis, Debye-Ang):
   XX=            -29.2517   YY=            -30.1971   ZZ=            -30.2533
   XY=             -0.0425   XZ=             -0.7523   YZ=              1.3166

 Normal termination of Gaussian 09 at Wed Aug 26 21:20:59 2020.
