 Gaussian 09, Revision D.01,
 Gaussian 09:  ES64L-G09RevD.01 24-Apr-2013

 --------------------
 #p B2PLYPD3/Def2QZVP
 --------------------

 ----------
 butane_opt
 ----------
 Symbolic Z-matrix:
 Charge =  0 Multiplicity = 1

                         Standard orientation:
 ---------------------------------------------------------------------
 Center     Atomic      Atomic             Coordinates (Angstroms)
 Number     Number       Type             X           Y           Z
 ---------------------------------------------------------------------
      1          6           0       -2.037853   -0.193283   -0.117582
      2          6           0       -0.531783    0.580703    0.077269
      3          1           0       -2.806796    0.557812   -0.125264
      4          1           0       -2.213747   -0.528177    0.672014
      5          1           0       -2.092335   -1.084017   -0.956494
      6          6           0        0.632561   -0.446790    0.269550
      7          1           0       -0.559380    1.488872    0.918422
      8          1           0       -0.187090    1.221402   -1.082941
      9          6           0        1.946164    0.069753   -0.259175
     10          1           0        0.410513   -0.841399   -0.386686
     11          1           0        0.531593   -1.244540    1.506551
     12          1           0        1.613314    0.061141   -0.793931
     13          1           0        2.795659   -0.829282   -0.448194
     14          1           0        2.453739    1.135883    0.876149
 ---------------------------------------------------------------------

 SCF Done:  E(RB2PLYPD3) =  -157.337030867     A.U. after   12 cycles
 E2(B2PLYPD3) =    -0.2575398626D+00 E(B2PLYPD3) =    -0.15759457072928D+03

 The electronic state is 1-A.
 Alpha  occ. eigenvalues --  -10.67163 -10.63146 -10.62025 -10.60923  -0.98717
 Alpha  occ. eigenvalues --   -0.85426  -0.77094  -0.65885  -0.54345  -0.49290
 Alpha  occ. eigenvalues --   -0.47946  -0.47508  -0.41738  -0.40739  -0.38626
 Alpha  occ. eigenvalues --   -0.35781  -0.33775
 Alpha virt. eigenvalues --    0.02007   0.05551   0.05768   0.07342   0.08007
 Alpha virt. eigenvalues --    0.10412   0.11809   0.13094   0.14297   0.14690
 Alpha virt. eigenvalues --    0.15133   0.16070   0.17689   0.19265   0.19650

 Mulliken charges:
               1
     1  C   -0.203860
     2  C   -0.072942
     3  H    0.050631
     4  H    0.137916
     5  H    0.042945
     6  C   -0.335164
     7  H    0.035636
     8  H    0.001857
     9  C   -0.786436
    10  H    0.357721
    11  H    0.006323
    12  H    0.654347
    13  H    0.079932
    14  H    0.031094
 Sum of Mulliken charges =   0.00000

 Dipole moment (field-independent basis, Debye):
    X=             -0.6994    Y=             -0.4612    Z=             -0.1289  Tot=              0.8477
 Quadrupole moment (field-independent basis, Debye-Ang):
   XX=            -29.8863   YY=            -29.9509   ZZ=            -28.8642
   XY=             -0.8145   XZ=             -0.7843   YZ=              1.6246

 Normal termination of Gaussian 09 at Wed Aug 26 23:19:00 2020.
