 Gaussian 09, Revision D.01,
 Gaussian 09:  ES64L-G09RevD.01 24-Apr-2013

 --------------------
 #p B2PLYPD3/Def2QZVP
 --------------------

 ----------
 butane_opt
 ----------
 Symbolic Z-matrix:
 Charge =  0 Multiplicity = 1

                         Standard orientation:
 ---------------------------------------------------------------------
 Center     Atomic      Atomic             Coordinates (Angstroms)
 Number     Number       Type             X           Y           Z
 ---------------------------------------------------------------------
      1          6           0       -2.028814    0.146526    0.032562
      2          6           0       -0.474923   -0.637620   -0.050376
      3          1           0       -2.894404   -0.534539   -0.326813
      4          1           0       -2.166725    0.160134   -0.518990
      5          1           0       -2.423310    1.480763    1.337573
      6          6           0        0.612900    0.528125   -0.143433
      7          1           0       -0.315706   -1.458065   -0.977631
      8          1           0       -0.601482   -0.961034    0.803601
      9          6           0        1.960440   -0.027037    0.153763
     10          1           0        0.521887    0.804427    0.425818
     11          1           0        0.706928    1.397868   -1.244542
     12          1           0        2.075173   -0.890184    1.360358
     13          1           0        2.598616    0.493359   -0.295677
     14          1           0        2.081406   -0.552692   -0.518786
 ---------------------------------------------------------------------

 SCF Done:  E(RB2PLYPD3) =  -156.708362842     A.U. after   13 cycles
 E2(B2PLYPD3) =    -0.2606237428D+00 E(B2PLYPD3) =    -0.15696898658493D+03

 The electronic state is 1-A.
 Alpha  occ. eigenvalues --  -10.64084 -10.63487 -10.60173 -10.58611  -0.95935
 Alpha  occ. eigenvalues --   -0.92361  -0.81721  -0.74055  -0.54588  -0.49823
 Alpha  occ. eigenvalues --   -0.46499  -0.44995  -0.40592  -0.39685  -0.37707
 Alpha  occ. eigenvalues --   -0.36278  -0.33547
 Alpha virt. eigenvalues --   -0.02618   0.04410   0.05222   0.06404   0.09073
 Alpha virt. eigenvalues --    0.10059   0.11916   0.12594   0.13601   0.15577
 Alpha virt. eigenvalues --    0.16043   0.16680   0.17856   0.18427   0.20535

 Mulliken charges:
               1
     1  C   -0.904251
     2  C   -0.082184
     3  H    0.035771
     4  H    0.741892
     5  H    0.037489
     6  C   -0.757516
     7  H    0.045348
     8  H    0.138874
     9  C   -0.223857
    10  H    0.675600
    11  H    0.034156
    12  H    0.042104
    13  H    0.065008
    14  H    0.151567
 Sum of Mulliken charges =   0.00000

 Dipole moment (field-independent basis, Debye):
    X=              0.3692    Y=             -0.3192    Z=             -0.8662  Tot=              0.9942
 Quadrupole moment (field-independent basis, Debye-Ang):
   XX=            -30.2418   YY=            -29.2794   ZZ=            -27.3385
   XY=             -0.0293   XZ=             -0.0782   YZ=              0.5028

 Normal termination of Gaussian 09 at Wed Aug 26 10:35:54 2020.
