 Gaussian 09, Revision D.01,
 Gaussian 09:  ES64L-G09RevD.01 24-Apr-2013

 --------------------
 #p B2PLYPD3/Def2QZVP
 --------------------

 ----------
 butane_opt
 ----------
 Symbolic Z-matrix:
 Charge =  0 Multiplicity = 1

                         Standard orientation:
 ---------------------------------------------------------------------
 Center     Atomic      Atomic             Coordinates (Angstroms)
 Number     Number       Type             X           Y           Z
 ---------------------------------------------------------------------
      1          6           0       -2.026753   -0.108730   -0.040985
      2          6           0       -0.535217    0.616289    0.111152
      3          1           0       -2.536031    0.309258   -0.675906
      4          1           0       -2.748196   -1.166435    1.129612
      5          1           0       -2.011158   -0.411152   -0.958925
      6          6           0        0.629480   -0.476490   -0.003782
      7          1           0       -0.308076    1.387043    1.095883
      8          1           0       -0.379110    1.076167   -0.614074
      9          6           0        1.954564    0.050969   -0.052781
     10          1           0        0.546554   -0.895379   -0.705219
     11          1           0        0.591234   -1.341595    0.860346
     12          1           0        1.676980    0.502927   -0.797064
     13          1           0        2.692938   -0.641601   -0.272539
     14          1           0        2.342420    0.688543    0.856261
 ---------------------------------------------------------------------

 SCF Done:  E(RB2PLYPD3) =  -157.671472892     A.U. after   11 cycles
 E2(B2PLYPD3) =    -0.2530957538D+00 E(B2PLYPD3) =    -0.15792456864582D+03

 The electronic state is 1-A.
 Alpha  occ. eigenvalues --  -10.62870 -10.62712 -10.58360 -10.57195  -0.95299
 Alpha  occ. eigenvalues --   -0.90126  -0.78607  -0.70123  -0.55862  -0.52651
 Alpha  occ. eigenvalues --   -0.49383  -0.45402  -0.41239  -0.40318  -0.37248
 Alpha  occ. eigenvalues --   -0.35690  -0.34523
 Alpha virt. eigenvalues --    0.00690   0.05863   0.07145   0.08533   0.09827
 Alpha virt. eigenvalues --    0.11067   0.12629   0.12774   0.15089   0.15705
 Alpha virt. eigenvalues --    0.16466   0.17587   0.18052   0.19044   0.20397

 Mulliken charges:
               1
     1  C   -0.322928
     2  C   -0.185013
     3  H    0.145266
     4  H    0.051614
     5  H    0.111191
     6  C   -0.194434
     7  H    0.037020
     8  H    0.164847
     9  C   -0.168931
    10  H    0.200888
    11  H   -0.004265
    12  H    0.080882
    13  H    0.046952
    14  H    0.036912
 Sum of Mulliken charges =   0.00000

 Dipole moment (field-independent basis, Debye):
    X=              0.1018    Y=              0.0759    Z=             -1.3460  Tot=              1.3520
 Quadrupole moment (field-independent basis, Debye-Ang):
   XX=            -29.7830   YY=            -29.9530   ZZ=            -26.9632
   XY=              0.0924   XZ=              1.9895   YZ=             -0.4182

 Normal termination of Gaussian 09 at Wed Aug 26 12:53:39 2020.
