 Gaussian 09, Revision D.01,
 Gaussian 09:  ES64L-G09RevD.01 24-Apr-2013

 --------------------
 #p B2PLYPD3/Def2QZVP
 --------------------

 ----------
 butane_opt
 ----------
 Symbolic Z-matrix:
 Charge =  0 Multiplicity = 1

                         Standard orientation:
 ---------------------------------------------------------------------
 Center     Atomic      Atomic             Coordinates (Angstroms)
 Number     Number       Type             X           Y           Z
 ---------------------------------------------------------------------
      1          6           0       -1.953856   -0.166545   -0.073486
      2          6           0       -0.545118    0.400544    0.188192
      3          1           0       -2.823378    0.869307   -0.493232
      4          1           0       -2.215075   -0.677189    0.796096
      5          1           0       -1.721342   -0.452875   -0.831855
      6          6           0        0.521232   -0.474355   -0.045265
      7          1           0       -0.502481    1.131274    1.131605
      8          1           0       -0.348265    1.210587   -0.635218
      9          6           0        1.929458    0.117036   -0.011914
     10          1           0        0.527887   -0.960209   -0.944423
     11          1           0        0.383683   -1.363043    0.871780
     12          1           0        2.058120    1.030052   -0.888263
     13          1           0        2.731925   -0.625382   -0.212708
     14          1           0        2.198629    0.577399    0.861058
 ---------------------------------------------------------------------

 SCF Done:  E(RB2PLYPD3) =  -157.944311861     A.U. after   11 cycles
 E2(B2PLYPD3) =    -0.2503439663D+00 E(B2PLYPD3) =    -0.15819465582707D+03

 The electronic state is 1-A.
 Alpha  occ. eigenvalues --  -10.61885 -10.61736 -10.61650 -10.60255  -0.94142
 Alpha  occ. eigenvalues --   -0.84707  -0.74206  -0.65730  -0.57187  -0.52448
 Alpha  occ. eigenvalues --   -0.48723  -0.47438  -0.43022  -0.40325  -0.38361
 Alpha  occ. eigenvalues --   -0.37461  -0.33853
 Alpha virt. eigenvalues --    0.05033   0.06187   0.07115   0.08044   0.10221
 Alpha virt. eigenvalues --    0.11338   0.12266   0.13433   0.14160   0.15456
 Alpha virt. eigenvalues --    0.15661   0.16230   0.18683   0.19496   0.21005

 Mulliken charges:
               1
     1  C   -0.302210
     2  C   -0.022324
     3  H    0.009110
     4  H    0.093906
     5  H    0.193382
     6  C   -0.032313
     7  H    0.025458
     8  H    0.004647
     9  C   -0.129084
    10  H    0.063266
    11  H   -0.021545
    12  H    0.008579
    13  H    0.048644
    14  H    0.060485
 Sum of Mulliken charges =   0.00000

 Dipole moment (field-independent basis, Debye):
    X=              0.3893    Y=             -0.1935    Z=             -0.0707  Tot=              0.4405
 Quadrupole moment (field-independent basis, Debye-Ang):
   XX=            -30.7162   YY=            -29.9925   ZZ=            -28.3369
   XY=              0.0123   XZ=             -0.2614   YZ=              0.1249

 Normal termination of Gaussian 09 at Wed Aug 26 15:47:53 2020.
