 Gaussian 09, Revision D.01,
 Gaussian 09:  ES64L-G09RevD.01 24-Apr-2013

 --------------------
 #p B2PLYPD3/Def2QZVP
 --------------------

 ----------
 butane_opt
 ----------
 Symbolic Z-matrix:
 Charge =  0 Multiplicity = 1

                         Standard orientation:
 ---------------------------------------------------------------------
 Center     Atomic      Atomic             Coordinates (Angstroms)
 Number     Number       Type             X           Y           Z
 ---------------------------------------------------------------------
      1          6           0       -2.050512   -0.172212   -0.031741
      2          6           0       -0.600302    0.520320    0.031188
      3          1           0       -2.723675    0.605340   -0.256879
      4          1           0       -2.444710   -0.763280    0.866682
      5          1           0       -1.851876   -0.691541   -0.833717
      6          6           0        0.617062   -0.456033    0.143667
      7          1           0       -0.489097    1.151182    0.843659
      8          1           0       -0.176642    1.423257   -1.162717
      9          6           0        1.985434    0.055385   -0.063965
     10          1           0        0.448734   -1.177633   -0.728041
     11          1           0        0.817745   -1.058146    1.069904
     12          1           0        1.749430    0.220598   -0.675693
     13          1           0        2.686799   -0.647972   -0.593422
     14          1           0        2.273201    1.253435    0.995337
 ---------------------------------------------------------------------

 SCF Done:  E(RB2PLYPD3) =  -157.618791953     A.U. after   12 cycles
 E2(B2PLYPD3) =    -0.2548174600D+00 E(B2PLYPD3) =    -0.15787360941268D+03

 The electronic state is 1-A.
 Alpha  occ. eigenvalues --  -10.65594 -10.62334 -10.60732 -10.60008  -0.95663
 Alpha  occ. eigenvalues --   -0.86531  -0.75283  -0.65971  -0.55154  -0.50107
 Alpha  occ. eigenvalues --   -0.48820  -0.48297  -0.41093  -0.40680  -0.39028
 Alpha  occ. eigenvalues --   -0.35206  -0.33999
 Alpha virt. eigenvalues --    0.02978   0.04468   0.06355   0.07113   0.09906
 Alpha virt. eigenvalues --    0.10808   0.11697   0.12388   0.13205   0.15362
 Alpha virt. eigenvalues --    0.16526   0.16659   0.18149   0.18819   0.20118

 Mulliken charges:
               1
     1  C   -0.158320
     2  C   -0.079115
     3  H    0.060867
     4  H    0.058377
     5  H    0.083597
     6  C    0.022476
     7  H    0.062053
     8  H   -0.026547
     9  C   -0.722981
    10  H    0.002753
    11  H    0.037962
    12  H    0.557097
    13  H    0.082640
    14  H    0.019143
 Sum of Mulliken charges =   0.00000

 Dipole moment (field-independent basis, Debye):
    X=             -0.6600    Y=             -0.4850    Z=             -0.1536  Tot=              0.8333
 Quadrupole moment (field-independent basis, Debye-Ang):
   XX=            -30.0533   YY=            -30.1951   ZZ=            -28.4165
   XY=             -0.8165   XZ=             -1.6424   YZ=              1.1500

 Normal termination of Gaussian 09 at Wed Aug 26 20:37:26 2020.
