 Gaussian 09, Revision D.01,
 Gaussian 09:  ES64L-G09RevD.01 24-Apr-2013

 --------------------
 #p B2PLYPD3/Def2QZVP
 --------------------

 ----------
 butane_opt
 ----------
 Symbolic Z-matrix:
 Charge =  0 Multiplicity = 1

                         Standard orientation:
 ---------------------------------------------------------------------
 Center     Atomic      Atomic             Coordinates (Angstroms)
 Number     Number       Type             X           Y           Z
 ---------------------------------------------------------------------
      1          6           0        1.987318    0.007233   -0.226767
      2          6           0        0.624076   -0.336232    0.308224
      3          1           0        2.967926   -1.031510   -0.639467
      4          1           0        2.502379    1.216986    0.680745
      5          1           0        1.582370    0.249651   -0.954758
      6          6           0       -0.553438    0.638187    0.016413
      7          1           0        0.749076   -1.130551    1.776272
      8          1           0        0.387277   -0.855035   -0.262095
      9          6           0       -2.053484   -0.203831   -0.111031
     10          1           0       -0.281468    1.007810   -0.867104
     11          1           0       -0.961328    1.482130    0.835746
     12          1           0       -2.193310   -1.269558   -0.935581
     13          1           0       -2.634441    0.295361   -0.357585
     14          1           0       -2.145321   -0.597423    0.802795
 ---------------------------------------------------------------------

 SCF Done:  E(RB2PLYPD3) =  -157.574511196     A.U. after   12 cycles
 E2(B2PLYPD3) =    -0.2574732630D+00 E(B2PLYPD3) =    -0.15783198445929D+03

 The electronic state is 1-A.
 Alpha  occ. eigenvalues --  -10.66245 -10.65097 -10.63765 -10.60445  -0.96017
 Alpha  occ. eigenvalues --   -0.85667  -0.76527  -0.68729  -0.55357  -0.52711
 Alpha  occ. eigenvalues --   -0.48222  -0.46435  -0.43606  -0.39727  -0.37723
 Alpha  occ. eigenvalues --   -0.34908  -0.33219
 Alpha virt. eigenvalues --    0.01256   0.04310   0.05598   0.06873   0.07670
 Alpha virt. eigenvalues --    0.10056   0.11516   0.12939   0.12990   0.14148
 Alpha virt. eigenvalues --    0.15339   0.16354   0.17341   0.18527   0.19609

 Mulliken charges:
               1
     1  C   -0.276120
     2  C   -0.338727
     3  H    0.056768
     4  H    0.016937
     5  H    0.191545
     6  C   -0.078553
     7  H   -0.040171
     8  H    0.360473
     9  C   -0.328273
    10  H    0.082758
    11  H    0.036458
    12  H   -0.004166
    13  H    0.218511
    14  H    0.102561
 Sum of Mulliken charges =   0.00000

 Dipole moment (field-independent basis, Debye):
    X=             -0.8070    Y=              0.3260    Z=             -1.0420  Tot=              1.3577
 Quadrupole moment (field-independent basis, Debye-Ang):
   XX=            -30.4675   YY=            -30.2170   ZZ=            -29.9267
   XY=             -1.7987   XZ=             -1.4971   YZ=              1.1488

 Normal termination of Gaussian 09 at Wed Aug 26 22:16:35 2020.
