 Gaussian 09, Revision D.01,
 Gaussian 09:  ES64L-G09RevD.01 24-Apr-2013

 --------------------
 #p B2PLYPD3/Def2QZVP
 --------------------

 ----------
 butane_opt
 ----------
 Symbolic Z-matrix:
 Charge =  0 Multiplicity = 1

                         Standard orientation:
 ---------------------------------------------------------------------
 Center     Atomic      Atomic             Coordinates (Angstroms)
 Number     Number       Type             X           Y           Z
 ---------------------------------------------------------------------
      1          6           0        1.921338   -0.077283   -0.098440
      2          6           0        0.631859    0.494617    0.150905
      3          1           0        2.833798    0.810741   -0.175382
      4          1           0        1.877282   -0.689601   -1.111163
      5          1           0        2.220192   -0.570672    0.748940
      6          6           0       -0.491876   -0.638478    0.166602
      7          1           0        0.440404    1.363020   -0.833135
      8          1           0        0.373836    0.880685    0.877019
      9          6           0       -2.010660    0.099204   -0.121239
     10          1           0       -0.485815   -1.452635    1.022543
     11          1           0       -0.315077   -1.076083   -0.576505
     12          1           0       -2.667005    1.202009    1.157474
     13          1           0       -2.708808   -0.381028   -0.927574
     14          1           0       -1.872775    0.645198   -0.769179
 ---------------------------------------------------------------------

 SCF Done:  E(RB2PLYPD3) =  -157.747604447     A.U. after   12 cycles
 E2(B2PLYPD3) =    -0.2545255904D+00 E(B2PLYPD3) =    -0.15800213003687D+03

 The electronic state is 1-A.
 Alpha  occ. eigenvalues --  -10.64504 -10.62397 -10.62170 -10.60779  -0.92964
 Alpha  occ. eigenvalues --   -0.84207  -0.75880  -0.70683  -0.55711  -0.48458
 Alpha  occ. eigenvalues --   -0.47372  -0.47128  -0.43485  -0.41426  -0.36775
 Alpha  occ. eigenvalues --   -0.35941  -0.34077
 Alpha virt. eigenvalues --   -0.00028   0.04821   0.07067   0.07898   0.09813
 Alpha virt. eigenvalues --    0.10430   0.11140   0.12522   0.14341   0.15391
 Alpha virt. eigenvalues --    0.15715   0.16432   0.18015   0.18827   0.19863

 Mulliken charges:
               1
     1  C   -0.130120
     2  C   -0.144092
     3  H    0.024079
     4  H    0.055945
     5  H    0.063306
     6  C   -0.150231
     7  H   -0.006956
     8  H    0.155630
     9  C   -0.300197
    10  H    0.038365
    11  H    0.157926
    12  H   -0.014172
    13  H    0.042596
    14  H    0.207922
 Sum of Mulliken charges =   0.00000

 Dipole moment (field-independent basis, Debye):
    X=              0.8533    Y=             -0.3935    Z=             -0.6299  Tot=              1.1312
 Quadrupole moment (field-independent basis, Debye-Ang):
   XX=            -33.0620   YY=            -29.7797   ZZ=            -27.8089
   XY=             -0.0948   XZ=              2.5755   YZ=              0.1860

 Normal termination of Gaussian 09 at Wed Aug 26 13:51:49 2020.
