 Gaussian 09, Revision D.01,
 Gaussian 09:  ES64L-G09RevD.01 24-Apr-2013

 --------------------
 #p B2PLYPD3/Def2QZVP
 --------------------

 ----------
 butane_opt
 ----------
 Symbolic Z-matrix:
 Charge =  0 Multiplicity = 1

                         Standard orientation:
 ---------------------------------------------------------------------
 Center     Atomic      Atomic             Coordinates (Angstroms)
 Number     Number       Type             X           Y           Z
 ---------------------------------------------------------------------
      1          6           0        2.059495   -0.138125   -0.069695
      2          6           0        0.539645    0.566595    0.049236
      3          1           0        2.850792    0.636299   -0.655183
      4          1           0        1.835634   -0.634161   -0.812520
      5          1           0        2.478387   -1.075453    1.150193
      6          6           0       -0.592544   -0.442104    0.025228
      7          1           0        0.445635    0.793453   -0.556389
      8          1           0        0.587425    1.461618    1.253230
      9          6           0       -2.007490    0.074783   -0.048083
     10          1           0       -0.431618   -1.195573    0.939156
     11          1           0       -0.615577   -1.035344   -0.838463
     12          1           0       -2.415576    0.611463    0.859492
     13          1           0       -2.741314   -0.622934   -0.068238
     14          1           0       -1.988424    0.693735   -1.011396
 ---------------------------------------------------------------------

 SCF Done:  E(RB2PLYPD3) =  -157.586682349     A.U. after   11 cycles
 E2(B2PLYPD3) =    -0.2536316248D+00 E(B2PLYPD3) =    -0.15784031397344D+03

 The electronic state is 1-A.
 Alpha  occ. eigenvalues --  -10.65005 -10.62102 -10.61664 -10.60457  -0.94627
 Alpha  occ. eigenvalues --   -0.84638  -0.75398  -0.68805  -0.54877  -0.50567
 Alpha  occ. eigenvalues --   -0.47369  -0.46708  -0.40742  -0.39375  -0.38790
 Alpha  occ. eigenvalues --   -0.37652  -0.34593
 Alpha virt. eigenvalues --    0.02485   0.05860   0.06352   0.08350   0.09349
 Alpha virt. eigenvalues --    0.10281   0.11597   0.12424   0.14213   0.14880
 Alpha virt. eigenvalues --    0.15412   0.16585   0.17380   0.18887   0.20197

 Mulliken charges:
               1
     1  C   -0.220897
     2  C   -0.720538
     3  H    0.043780
     4  H    0.142316
     5  H    0.035917
     6  C   -0.015386
     7  H    0.655403
     8  H    0.016709
     9  C   -0.116291
    10  H    0.016092
    11  H    0.045649
    12  H    0.032553
    13  H    0.049871
    14  H    0.034821
 Sum of Mulliken charges =   0.00000

 Dipole moment (field-independent basis, Debye):
    X=             -0.5169    Y=             -0.3269    Z=             -0.8448  Tot=              1.0429
 Quadrupole moment (field-independent basis, Debye-Ang):
   XX=            -30.2399   YY=            -30.3650   ZZ=            -27.8264
   XY=              0.8415   XZ=             -1.1005   YZ=             -0.6113

 Normal termination of Gaussian 09 at Wed Aug 26 11:48:05 2020.
