 Gaussian 09, Revision D.01,
 Gaussian 09:  ES64L-G09RevD.01 24-Apr-2013

 --------------------
 #p B2PLYPD3/Def2QZVP
 --------------------

 ----------
 butane_opt
 ----------
 Symbolic Z-matrix:
 Charge =  0 Multiplicity = 1

                         Standard orientation:
 ---------------------------------------------------------------------
 Center     Atomic      Atomic             Coordinates (Angstroms)
 Number     Number       Type             X           Y           Z
 ---------------------------------------------------------------------
      1          6           0        2.009043    0.137070    0.080689
      2          6           0        0.484869   -0.532068    0.021408
      3          1           0        2.787889   -0.690938   -0.643794
      4          1           0        2.364388    1.274688    1.115192
      5          1           0        2.027363    0.345750   -0.557197
      6          6           0       -0.625046    0.415664   -0.117455
      7          1           0        0.334757   -1.047139    0.795158
      8          1           0        0.266750   -1.283108   -0.924855
      9          6           0       -1.863253   -0.057995    0.027810
     10          1           0       -0.381515    0.955755   -1.097935
     11          1           0       -0.525313    1.223447    0.783788
     12          1           0       -2.051485   -0.364341   -0.543434
     13          1           0       -2.667994    0.929901   -0.347577
     14          1           0       -2.188517   -1.120041    1.345932
 ---------------------------------------------------------------------

 SCF Done:  E(RB2PLYPD3) =  -157.218522771     A.U. after   12 cycles
 E2(B2PLYPD3) =    -0.2592665580D+00 E(B2PLYPD3) =    -0.15747778932922D+03

 The electronic state is 1-A.
 Alpha  occ. eigenvalues --  -10.63451 -10.62444 -10.61779 -10.61666  -0.97160
 Alpha  occ. eigenvalues --   -0.89167  -0.80005  -0.68806  -0.57321  -0.51405
 Alpha  occ. eigenvalues --   -0.47971  -0.44024  -0.42020  -0.38612  -0.38043
 Alpha  occ. eigenvalues --   -0.35026  -0.34419
 Alpha virt. eigenvalues --    0.00610   0.01243   0.04653   0.06172   0.09554
 Alpha virt. eigenvalues --    0.09675   0.10726   0.12003   0.12890   0.14926
 Alpha virt. eigenvalues --    0.15834   0.16717   0.18072   0.18408   0.20792

 Mulliken charges:
               1
     1  C   -0.751228
     2  C   -0.039219
     3  H    0.022387
     4  H    0.072922
     5  H    0.609839
     6  C    0.030320
     7  H    0.085815
     8  H   -0.001148
     9  C   -0.621030
    10  H    0.042273
    11  H    0.020916
    12  H    0.479676
    13  H    0.042462
    14  H    0.006016
 Sum of Mulliken charges =   0.00000

 Dipole moment (field-independent basis, Debye):
    X=             -0.0533    Y=              0.3707    Z=             -1.1150  Tot=              1.1762
 Quadrupole moment (field-independent basis, Debye-Ang):
   XX=            -33.0888   YY=            -29.7071   ZZ=            -27.9949
   XY=              1.3964   XZ=              0.3176   YZ=              0.4231

 Normal termination of Gaussian 09 at Wed Aug 26 18:55:47 2020.
