 Gaussian 09, Revision D.01,
 Gaussian 09:  ES64L-G09RevD.01 24-Apr-2013

 --------------------
 #p B2PLYPD3/Def2QZVP
 --------------------

 ----------
 butane_opt
 ----------
 Symbolic Z-matrix:
 Charge =  0 Multiplicity = 1

                         Standard orientation:
 ---------------------------------------------------------------------
 Center     Atomic      Atomic             Coordinates (Angstroms)
 Number     Number       Type             X           Y           Z
 ---------------------------------------------------------------------
      1          6           0       -1.881964    0.008647   -0.238930
      2          6           0       -0.677915   -0.485133    0.246842
      3          1           0       -2.556133   -0.786528   -0.601513
      4          1           0       -1.608582    0.514881   -0.983192
      5          1           0       -2.628509    1.183650    0.857056
      6          6           0        0.518430    0.600525    0.042616
      7          1           0       -0.308793   -0.809282   -0.379458
      8          1           0       -0.810105   -1.423339    1.473446
      9          6           0        2.040484   -0.105014   -0.051473
     10          1           0        0.338643    1.539839    0.902401
     11          1           0        0.393747    1.056859   -0.731739
     12          1           0        2.410899   -0.528860    0.736545
     13          1           0        2.700948    0.305682   -0.239445
     14          1           0        2.073678   -1.167052   -1.028425
 ---------------------------------------------------------------------

 SCF Done:  E(RB2PLYPD3) =  -157.586653204     A.U. after   12 cycles
 E2(B2PLYPD3) =    -0.2551033076D+00 E(B2PLYPD3) =    -0.15784175651129D+03

 The electronic state is 1-A.
 Alpha  occ. eigenvalues --  -10.64307 -10.63841 -10.62223 -10.60815  -0.96660
 Alpha  occ. eigenvalues --   -0.86767  -0.78054  -0.70399  -0.54836  -0.52589
 Alpha  occ. eigenvalues --   -0.52313  -0.45887  -0.44643  -0.40148  -0.37671
 Alpha  occ. eigenvalues --   -0.36437  -0.32176
 Alpha virt. eigenvalues --    0.01072   0.04815   0.05582   0.07465   0.08411
 Alpha virt. eigenvalues --    0.10836   0.11605   0.13113   0.13707   0.14470
 Alpha virt. eigenvalues --    0.15107   0.16928   0.18456   0.18819   0.19785

 Mulliken charges:
               1
     1  C   -0.129955
     2  C   -0.375123
     3  H    0.073121
     4  H    0.091155
     5  H   -0.051883
     6  C   -0.132888
     7  H    0.385517
     8  H    0.019367
     9  C   -0.286355
    10  H    0.024862
    11  H    0.130176
    12  H    0.060349
    13  H    0.209047
    14  H   -0.017389
 Sum of Mulliken charges =   0.00000

 Dipole moment (field-independent basis, Debye):
    X=              0.9422    Y=             -0.2447    Z=             -1.0421  Tot=              1.4260
 Quadrupole moment (field-independent basis, Debye-Ang):
   XX=            -30.7292   YY=            -30.1414   ZZ=            -29.1695
   XY=              2.2052   XZ=              2.0426   YZ=             -0.3503

 Normal termination of Gaussian 09 at Wed Aug 26 19:06:46 2020.
