 Gaussian 09, Revision D.01,
 Gaussian 09:  ES64L-G09RevD.01 24-Apr-2013

 --------------------
 #p B2PLYPD3/Def2QZVP
 --------------------

 ----------
 butane_opt
 ----------
 Symbolic Z-matrix:
 Charge =  0 Multiplicity = 1

                         Standard orientation:
 ---------------------------------------------------------------------
 Center     Atomic      Atomic             Coordinates (Angstroms)
 Number     Number       Type             X           Y           Z
 ---------------------------------------------------------------------
      1          6           0        1.900568   -0.245050   -0.134452
      2          6           0        0.565630    0.636775    0.003440
      3          1           0        2.745319    0.492779   -0.249890
      4          1           0        1.988784   -1.110678   -0.762675
      5          1           0        2.277436   -0.543764    0.633254
      6          6           0       -0.589596   -0.322352    0.407447
      7          1           0        0.119233    0.841116   -0.717894
      8          1           0        0.356688    1.482997    0.582891
      9          6           0       -1.883767    0.042533   -0.191624
     10          1           0       -0.565139   -0.885815    1.519805
     11          1           0       -0.446921   -1.074170   -0.280256
     12          1           0       -2.332640    0.959916    0.518803
     13          1           0       -2.781324   -1.092387   -0.730140
     14          1           0       -1.318445    0.258569   -1.022760
 ---------------------------------------------------------------------

 SCF Done:  E(RB2PLYPD3) =  -157.853527397     A.U. after   11 cycles
 E2(B2PLYPD3) =    -0.2533474448D+00 E(B2PLYPD3) =    -0.15810687484166D+03

 The electronic state is 1-A.
 Alpha  occ. eigenvalues --  -10.64630 -10.60901 -10.59664 -10.59572  -0.95464
 Alpha  occ. eigenvalues --   -0.84874  -0.76986  -0.65554  -0.56345  -0.49659
 Alpha  occ. eigenvalues --   -0.49162  -0.46430  -0.44465  -0.41785  -0.38570
 Alpha  occ. eigenvalues --   -0.36452  -0.33701
 Alpha virt. eigenvalues --    0.03186   0.06225   0.07964   0.08405   0.09889
 Alpha virt. eigenvalues --    0.11322   0.12499   0.13658   0.14725   0.15586
 Alpha virt. eigenvalues --    0.16112   0.16282   0.18397   0.19239   0.20122

 Mulliken charges:
               1
     1  C   -0.132229
     2  C   -0.163397
     3  H    0.020851
     4  H    0.050968
     5  H    0.076888
     6  C   -0.080806
     7  H    0.153698
     8  H    0.046661
     9  C   -0.177189
    10  H    0.010167
    11  H    0.068161
    12  H    0.045066
    13  H    0.015161
    14  H    0.066001
 Sum of Mulliken charges =   0.00000

 Dipole moment (field-independent basis, Debye):
    X=              0.8425    Y=              0.0342    Z=             -0.1045  Tot=              0.8497
 Quadrupole moment (field-independent basis, Debye-Ang):
   XX=            -30.9723   YY=            -28.6087   ZZ=            -29.3737
   XY=             -0.8282   XZ=              0.3661   YZ=              1.3395

 Normal termination of Gaussian 09 at Wed Aug 26 18:44:20 2020.
