 Gaussian 09, Revision D.01,
 Gaussian 09:  ES64L-G09RevD.01 24-Apr-2013

 --------------------
 #p B2PLYPD3/Def2QZVP
 --------------------

 ----------
 butane_opt
 ----------
 Symbolic Z-matrix:
 Charge =  0 Multiplicity = 1

                         Standard orientation:
 ---------------------------------------------------------------------
 Center     Atomic      Atomic             Coordinates (Angstroms)
 Number     Number       Type             X           Y           Z
 ---------------------------------------------------------------------
      1          6           0        1.909804    0.086115   -0.074090
      2          6           0        0.636294   -0.444141    0.174242
      3          1           0        2.683662   -0.881494   -0.495782
      4          1           0        2.281192    0.971079    0.787326
      5          1           0        1.877851    0.515583   -0.948551
      6          6           0       -0.515918    0.642952   -0.003257
      7          1           0        0.603806   -1.235552    1.243531
      8          1           0        0.614624   -1.199495   -0.746981
      9          6           0       -1.999950   -0.214726   -0.060428
     10          1           0       -0.602516    0.934892   -0.815080
     11          1           0       -0.317541    1.477342    0.901733
     12          1           0       -2.091817   -0.809686   -0.853397
     13          1           0       -2.892979    0.588040   -0.249638
     14          1           0       -2.337659   -0.781913    0.958036
 ---------------------------------------------------------------------

 SCF Done:  E(RB2PLYPD3) =  -157.913984838     A.U. after   11 cycles
 E2(B2PLYPD3) =    -0.2525701390D+00 E(B2PLYPD3) =    -0.15816655497753D+03

 The electronic state is 1-A.
 Alpha  occ. eigenvalues --  -10.63899 -10.62612 -10.62505 -10.62174  -0.91896
 Alpha  occ. eigenvalues --   -0.83307  -0.72734  -0.65392  -0.54234  -0.49716
 Alpha  occ. eigenvalues --   -0.48134  -0.45545  -0.42989  -0.40667  -0.37759
 Alpha  occ. eigenvalues --   -0.35819  -0.34593
 Alpha virt. eigenvalues --    0.04437   0.06194   0.07241   0.07970   0.10365
 Alpha virt. eigenvalues --    0.10875   0.11590   0.12551   0.14355   0.14737
 Alpha virt. eigenvalues --    0.15437   0.16256   0.18434   0.19147   0.19932

 Mulliken charges:
               1
     1  C   -0.159426
     2  C   -0.027552
     3  H    0.024820
     4  H    0.021661
     5  H    0.084330
     6  C   -0.199961
     7  H    0.033035
     8  H    0.019541
     9  C   -0.162097
    10  H    0.173798
    11  H    0.047208
    12  H    0.078160
    13  H    0.020030
    14  H    0.046452
 Sum of Mulliken charges =   0.00000

 Dipole moment (field-independent basis, Debye):
    X=             -0.1306    Y=              0.1534    Z=             -0.7194  Tot=              0.7470
 Quadrupole moment (field-independent basis, Debye-Ang):
   XX=            -32.0417   YY=            -29.4827   ZZ=            -28.2116
   XY=              0.1468   XZ=             -0.1661   YZ=              0.4625

 Normal termination of Gaussian 09 at Wed Aug 26 22:15:53 2020.
