 Gaussian 09, Revision D.01,
 Gaussian 09:  ES64L-G09RevD.01 24-Apr-2013

 --------------------
 #p B2PLYPD3/Def2QZVP
 --------------------

 ----------
 butane_opt
 ----------
 Symbolic Z-matrix:
 Charge =  0 Multiplicity = 1

                         Standard orientation:
 ---------------------------------------------------------------------
 Center     Atomic      Atomic             Coordinates (Angstroms)
 Number     Number       Type             X           Y           Z
 ---------------------------------------------------------------------
      1          6           0       -1.907212    0.097055   -0.184817
      2          6           0       -0.615486   -0.475296    0.288101
      3          1           0       -2.735330   -0.814637   -0.759089
      4          1           0       -1.694718    0.383898   -1.015717
      5          1           0       -2.554237    0.844003    0.653901
      6          6           0        0.541337    0.633434    0.127678
      7          1           0       -0.509334   -0.946309   -0.412971
      8          1           0       -0.765241   -1.242137    1.491171
      9          6           0        2.033674   -0.228195   -0.137246
     10          1           0        0.510439    1.422508    1.026592
     11          1           0        0.438049    1.329859   -0.896659
     12          1           0        2.389295   -0.603480    0.542253
     13          1           0        2.684892    0.512733   -0.162065
     14          1           0        1.922309   -1.048428   -1.029716
 ---------------------------------------------------------------------

 SCF Done:  E(RB2PLYPD3) =  -157.795642871     A.U. after   11 cycles
 E2(B2PLYPD3) =    -0.2525848424D+00 E(B2PLYPD3) =    -0.15804822771340D+03

 The electronic state is 1-A.
 Alpha  occ. eigenvalues --  -10.65863 -10.62265 -10.61793 -10.59048  -0.92264
 Alpha  occ. eigenvalues --   -0.84546  -0.73732  -0.67287  -0.53899  -0.49264
 Alpha  occ. eigenvalues --   -0.48459  -0.45019  -0.42984  -0.41461  -0.37996
 Alpha  occ. eigenvalues --   -0.36553  -0.34167
 Alpha virt. eigenvalues --    0.04615   0.05851   0.06548   0.08126   0.10320
 Alpha virt. eigenvalues --    0.10536   0.11685   0.13671   0.14474   0.14750
 Alpha virt. eigenvalues --    0.15772   0.16197   0.18444   0.18708   0.20646

 Mulliken charges:
               1
     1  C   -0.214814
     2  C   -0.248327
     3  H   -0.003511
     4  H    0.129570
     5  H    0.050490
     6  C   -0.062033
     7  H    0.251273
     8  H    0.024600
     9  C   -0.201627
    10  H    0.039520
    11  H    0.026580
    12  H    0.117778
    13  H    0.047923
    14  H    0.042579
 Sum of Mulliken charges =   0.00000

 Dipole moment (field-independent basis, Debye):
    X=              0.6385    Y=              0.1695    Z=             -0.2470  Tot=              0.7053
 Quadrupole moment (field-independent basis, Debye-Ang):
   XX=            -30.7548   YY=            -29.3322   ZZ=            -28.3288
   XY=             -0.2848   XZ=              0.6682   YZ=              0.7503

 Normal termination of Gaussian 09 at Wed Aug 26 10:45:52 2020.
