 Gaussian 09, Revision D.01,
 Gaussian 09:  ES64L-G09RevD.01 24-Apr-2013

 --------------------
 #p B2PLYPD3/Def2QZVP
 --------------------

 ----------
 butane_opt
 ----------
 Symbolic Z-matrix:
 Charge =  0 Multiplicity = 1

                         Standard orientation:
 ---------------------------------------------------------------------
 Center     Atomic      Atomic             Coordinates (Angstroms)
 Number     Number       Type             X           Y           Z
 ---------------------------------------------------------------------
      1          6           0        1.992803   -0.148046    0.043110
      2          6           0        0.533937    0.619168   -0.012709
      3          1           0        2.588889    0.257396   -0.330202
      4          1           0        2.108312   -0.421054   -0.648089
      5          1           0        2.357823   -1.131382    1.202025
      6          6           0       -0.605347   -0.460419   -0.020645
      7          1           0        0.456205    1.514436   -1.049414
      8          1           0        0.646227    1.146612    0.784629
      9          6           0       -1.935393    0.011300    0.028843
     10          1           0       -0.681033   -1.029594    0.691718
     11          1           0       -0.394754   -1.353708   -1.061155
     12          1           0       -2.498607    1.042160    1.174628
     13          1           0       -2.780968   -0.754019   -0.395453
     14          1           0       -1.718102    0.597132   -0.600283
 ---------------------------------------------------------------------

 SCF Done:  E(RB2PLYPD3) =  -157.470464516     A.U. after   12 cycles
 E2(B2PLYPD3) =    -0.2561369561D+00 E(B2PLYPD3) =    -0.15772660147159D+03

 The electronic state is 1-A.
 Alpha  occ. eigenvalues --  -10.64483 -10.62164 -10.61987 -10.58376  -0.96353
 Alpha  occ. eigenvalues --   -0.93035  -0.77934  -0.68954  -0.55434  -0.49884
 Alpha  occ. eigenvalues --   -0.46921  -0.44260  -0.40391  -0.39992  -0.39085
 Alpha  occ. eigenvalues --   -0.37256  -0.32992
 Alpha virt. eigenvalues --    0.02266   0.03687   0.04850   0.06788   0.09503
 Alpha virt. eigenvalues --    0.11118   0.11449   0.12254   0.13700   0.15280
 Alpha virt. eigenvalues --    0.16436   0.17235   0.18069   0.19091   0.19780

 Mulliken charges:
               1
     1  C   -0.630368
     2  C   -0.055686
     3  H    0.204281
     4  H    0.348600
     5  H    0.046284
     6  C   -0.067267
     7  H   -0.002885
     8  H    0.100073
     9  C   -0.247125
    10  H    0.102539
    11  H    0.001948
    12  H   -0.012567
    13  H    0.063785
    14  H    0.148389
 Sum of Mulliken charges =   0.00000

 Dipole moment (field-independent basis, Debye):
    X=              0.5855    Y=             -0.2131    Z=             -0.7216  Tot=              0.9534
 Quadrupole moment (field-independent basis, Debye-Ang):
   XX=            -30.2765   YY=            -29.3152   ZZ=            -28.7240
   XY=              0.9164   XZ=             -0.4955   YZ=             -0.4410

 Normal termination of Gaussian 09 at Wed Aug 26 23:04:00 2020.
