 Gaussian 09, Revision D.01,
 Gaussian 09:  ES64L-G09RevD.01 24-Apr-2013

 --------------------
 #p B2PLYPD3/Def2QZVP
 --------------------

 ----------
 butane_opt
 ----------
 Symbolic Z-matrix:
 Charge =  0 Multiplicity = 1

                         Standard orientation:
 ---------------------------------------------------------------------
 Center     Atomic      Atomic             Coordinates (Angstroms)
 Number     Number       Type             X           Y           Z
 ---------------------------------------------------------------------
      1          6           0        1.857161    0.040541   -0.091783
      2          6           0        0.557834   -0.420770    0.235244
      3          1           0        2.624423   -0.800732   -0.576618
      4          1           0        2.581889    1.164709    0.783469
      5          1           0        1.325912    0.285559   -0.880825
      6          6           0       -0.482950    0.504115   -0.007761
      7          1           0        0.447794   -0.965845    1.292240
      8          1           0        0.539578   -1.116092   -0.571903
      9          6           0       -1.945019   -0.089847   -0.033573
     10          1           0       -0.013271    0.971041   -1.087538
     11          1           0       -0.434598    1.227316    0.688281
     12          1           0       -2.062687   -1.130098   -0.920137
     13          1           0       -2.663930    0.763836   -0.234742
     14          1           0       -2.267264   -0.603931    0.895013
 ---------------------------------------------------------------------

 SCF Done:  E(RB2PLYPD3) =  -157.887962105     A.U. after   11 cycles
 E2(B2PLYPD3) =    -0.2557317879D+00 E(B2PLYPD3) =    -0.15814369389315D+03

 The electronic state is 1-A.
 Alpha  occ. eigenvalues --  -10.64659 -10.63725 -10.62086 -10.61407  -0.98121
 Alpha  occ. eigenvalues --   -0.84231  -0.72235  -0.64936  -0.57064  -0.51105
 Alpha  occ. eigenvalues --   -0.48864  -0.45712  -0.41239  -0.40671  -0.37709
 Alpha  occ. eigenvalues --   -0.36525  -0.34336
 Alpha virt. eigenvalues --    0.03861   0.05057   0.06864   0.07547   0.09453
 Alpha virt. eigenvalues --    0.10176   0.12207   0.12580   0.13439   0.13997
 Alpha virt. eigenvalues --    0.15837   0.16996   0.18447   0.19350   0.20117

 Mulliken charges:
               1
     1  C   -0.180061
     2  C   -0.058080
     3  H    0.049486
     4  H   -0.002470
     5  H    0.086453
     6  C   -0.037642
     7  H    0.009490
     8  H    0.075096
     9  C   -0.160776
    10  H    0.007652
    11  H    0.073260
    12  H    0.010567
    13  H    0.066325
    14  H    0.060700
 Sum of Mulliken charges =   0.00000

 Dipole moment (field-independent basis, Debye):
    X=             -0.6584    Y=             -0.2677    Z=             -0.0672  Tot=              0.7139
 Quadrupole moment (field-independent basis, Debye-Ang):
   XX=            -31.8295   YY=            -29.9017   ZZ=            -29.4160
   XY=             -1.4287   XZ=             -1.5174   YZ=              1.0670

 Normal termination of Gaussian 09 at Wed Aug 26 13:10:02 2020.
