 Gaussian 09, Revision D.01,
 Gaussian 09:  ES64L-G09RevD.01 24-Apr-2013

 --------------------
 #p B2PLYPD3/Def2QZVP
 --------------------

 ----------
 butane_opt
 ----------
 Symbolic Z-matrix:
 Charge =  0 Multiplicity = 1

                         Standard orientation:
 ---------------------------------------------------------------------
 Center     Atomic      Atomic             Coordinates (Angstroms)
 Number     Number       Type             X           Y           Z
 ---------------------------------------------------------------------
      1          6           0        1.904334    0.110854    0.047574
      2          6           0        0.493678   -0.573941    0.013390
      3          1           0        2.588417   -0.562691   -0.611138
      4          1           0        2.466520    1.445488    1.252418
      5          1           0        1.683991    0.223569   -0.520342
      6          6           0       -0.536770    0.480943   -0.231088
      7          1           0        0.190990   -1.166461    1.019587
      8          1           0        0.486954   -1.229133   -0.630607
      9          6           0       -1.886452   -0.050555    0.063553
     10          1           0       -0.472101    0.945403   -1.151364
     11          1           0       -0.106144    0.943862    0.496064
     12          1           0       -2.086007   -0.547381   -0.687302
     13          1           0       -2.633739    0.850851    0.232457
     14          1           0       -1.967621   -0.707310    1.239661
 ---------------------------------------------------------------------

 SCF Done:  E(RB2PLYPD3) =  -157.381356533     A.U. after   12 cycles
 E2(B2PLYPD3) =    -0.2568387307D+00 E(B2PLYPD3) =    -0.15763819526410D+03

 The electronic state is 1-A.
 Alpha  occ. eigenvalues --  -10.62309 -10.61338 -10.61192 -10.57946  -0.98586
 Alpha  occ. eigenvalues --   -0.89247  -0.76283  -0.69644  -0.57686  -0.50600
 Alpha  occ. eigenvalues --   -0.48303  -0.46834  -0.41493  -0.40207  -0.37392
 Alpha  occ. eigenvalues --   -0.36146  -0.35103
 Alpha virt. eigenvalues --   -0.02358   0.05571   0.06755   0.08056   0.10248
 Alpha virt. eigenvalues --    0.10809   0.11474   0.13014   0.14513   0.15450
 Alpha virt. eigenvalues --    0.16143   0.16803   0.18103   0.19373   0.20352

 Mulliken charges:
               1
     1  C   -0.926544
     2  C   -0.032828
     3  H    0.060637
     4  H    0.044411
     5  H    0.749595
     6  C   -0.094051
     7  H    0.017185
     8  H    0.072434
     9  C   -0.177287
    10  H    0.037878
    11  H    0.093724
    12  H    0.094707
    13  H    0.037655
    14  H    0.022484
 Sum of Mulliken charges =   0.00000

 Dipole moment (field-independent basis, Debye):
    X=             -0.3679    Y=              0.0060    Z=             -0.9725  Tot=              1.0398
 Quadrupole moment (field-independent basis, Debye-Ang):
   XX=            -32.0129   YY=            -29.2155   ZZ=            -27.2984
   XY=              0.2533   XZ=             -0.6132   YZ=              1.3320

 Normal termination of Gaussian 09 at Wed Aug 26 10:45:12 2020.
