 Gaussian 09, Revision D.01,
 Gaussian 09:  ES64L-G09RevD.01 24-Apr-2013

 --------------------
 #p B2PLYPD3/Def2QZVP
 --------------------

 ----------
 butane_opt
 ----------
 Symbolic Z-matrix:
 Charge =  0 Multiplicity = 1

                         Standard orientation:
 ---------------------------------------------------------------------
 Center     Atomic      Atomic             Coordinates (Angstroms)
 Number     Number       Type             X           Y           Z
 ---------------------------------------------------------------------
      1          6           0       -1.920605   -0.171767   -0.084535
      2          6           0       -0.503139    0.574049    0.032838
      3          1           0       -2.674829    0.481420   -0.394640
      4          1           0       -2.161617   -0.589947    0.782519
      5          1           0       -2.059364   -0.970638   -0.967451
      6          6           0        0.584756   -0.392828    0.217962
      7          1           0       -0.569958    1.630472    1.022825
      8          1           0       -0.571528    0.765655   -0.598571
      9          6           0        1.880079    0.110433   -0.142460
     10          1           0        0.475947   -1.138992   -0.428691
     11          1           0        0.478749   -1.312254    1.403158
     12          1           0        1.716210    0.459227   -1.187946
     13          1           0        2.710702   -0.811038   -0.403338
     14          1           0        2.409139    0.766771    0.629303
 ---------------------------------------------------------------------

 SCF Done:  E(RB2PLYPD3) =  -157.666077526     A.U. after   11 cycles
 E2(B2PLYPD3) =    -0.2515497015D+00 E(B2PLYPD3) =    -0.15791762722775D+03

 The electronic state is 1-A.
 Alpha  occ. eigenvalues --  -10.62728 -10.62660 -10.60909 -10.60011  -0.95782
 Alpha  occ. eigenvalues --   -0.85715  -0.75080  -0.68224  -0.56344  -0.50291
 Alpha  occ. eigenvalues --   -0.49607  -0.46729  -0.45029  -0.39977  -0.37812
 Alpha  occ. eigenvalues --   -0.36597  -0.34349
 Alpha virt. eigenvalues --    0.04415   0.06265   0.06579   0.06980   0.10608
 Alpha virt. eigenvalues --    0.10924   0.11548   0.13225   0.14461   0.14747
 Alpha virt. eigenvalues --    0.15733   0.16705   0.18584   0.19823   0.20892

 Mulliken charges:
               1
     1  C   -0.117589
     2  C   -0.725382
     3  H    0.041064
     4  H    0.078736
     5  H    0.010465
     6  C    0.015526
     7  H    0.018752
     8  H    0.643653
     9  C   -0.149188
    10  H    0.079602
    11  H   -0.030933
    12  H    0.055108
    13  H    0.016479
    14  H    0.063707
 Sum of Mulliken charges =   0.00000

 Dipole moment (field-independent basis, Debye):
    X=             -0.2010    Y=              0.0768    Z=             -0.8640  Tot=              0.8904
 Quadrupole moment (field-independent basis, Debye-Ang):
   XX=            -29.3360   YY=            -29.9056   ZZ=            -28.7110
   XY=             -0.0444   XZ=              0.1770   YZ=              0.7460

 Normal termination of Gaussian 09 at Wed Aug 26 16:05:15 2020.
