 Gaussian 09, Revision D.01,
 Gaussian 09:  ES64L-G09RevD.01 24-Apr-2013

 --------------------
 #p B2PLYPD3/Def2QZVP
 --------------------

 ----------
 butane_opt
 ----------
 Symbolic Z-matrix:
 Charge =  0 Multiplicity = 1

                         Standard orientation:
 ---------------------------------------------------------------------
 Center     Atomic      Atomic             Coordinates (Angstroms)
 Number     Number       Type             X           Y           Z
 ---------------------------------------------------------------------
      1          6           0        2.038120   -0.182496   -0.077496
      2          6           0        0.585620    0.546503   -0.084976
      3          1           0        2.729971    0.540763   -0.041506
      4          1           0        2.155489   -0.908446   -0.954404
      5          1           0        2.360851   -0.629035    1.009737
      6          6           0       -0.651440   -0.419954    0.203410
      7          1           0        0.267100    0.866673   -0.848282
      8          1           0        0.370923    1.554106    0.909362
      9          6           0       -1.886231    0.077334   -0.086583
     10          1           0       -0.530220   -1.094893    1.360344
     11          1           0       -0.791297   -1.016451   -0.546197
     12          1           0       -2.426274    1.156529    0.738840
     13          1           0       -2.837597   -1.017982   -0.353188
     14          1           0       -1.815363    0.420415   -1.000833
 ---------------------------------------------------------------------

 SCF Done:  E(RB2PLYPD3) =  -157.829141972     A.U. after   12 cycles
 E2(B2PLYPD3) =    -0.2547330645D+00 E(B2PLYPD3) =    -0.15808387503668D+03

 The electronic state is 1-A.
 Alpha  occ. eigenvalues --  -10.65319 -10.63842 -10.62929 -10.61630  -0.95553
 Alpha  occ. eigenvalues --   -0.84554  -0.74073  -0.65647  -0.54433  -0.50309
 Alpha  occ. eigenvalues --   -0.49095  -0.47056  -0.41841  -0.41334  -0.38273
 Alpha  occ. eigenvalues --   -0.35155  -0.33270
 Alpha virt. eigenvalues --    0.03131   0.05588   0.06861   0.07786   0.08930
 Alpha virt. eigenvalues --    0.09752   0.12112   0.12636   0.13874   0.14274
 Alpha virt. eigenvalues --    0.15329   0.15638   0.18224   0.19015   0.19996

 Mulliken charges:
               1
     1  C   -0.136336
     2  C   -0.176221
     3  H    0.071194
     4  H    0.057891
     5  H    0.037054
     6  C   -0.038348
     7  H    0.146913
     8  H    0.004068
     9  C   -0.183787
    10  H    0.012979
    11  H    0.100540
    12  H   -0.005064
    13  H    0.014647
    14  H    0.094472
 Sum of Mulliken charges =   0.00000

 Dipole moment (field-independent basis, Debye):
    X=              0.8948    Y=             -0.2328    Z=             -1.0160  Tot=              1.3737
 Quadrupole moment (field-independent basis, Debye-Ang):
   XX=            -31.4182   YY=            -30.6538   ZZ=            -28.6323
   XY=              0.4303   XZ=              1.3313   YZ=              0.4885

 Normal termination of Gaussian 09 at Wed Aug 26 16:20:20 2020.
