 Gaussian 09, Revision D.01,
 Gaussian 09:  ES64L-G09RevD.01 24-Apr-2013

 --------------------
 #p B2PLYPD3/Def2QZVP
 --------------------

 ----------
 butane_opt
 ----------
 Symbolic Z-matrix:
 Charge =  0 Multiplicity = 1

                         Standard orientation:
 ---------------------------------------------------------------------
 Center     Atomic      Atomic             Coordinates (Angstroms)
 Number     Number       Type             X           Y           Z
 ---------------------------------------------------------------------
      1          6           0        1.924843    0.060583   -0.180369
      2          6           0        0.663677   -0.437208    0.289381
      3          1           0        2.850157   -0.911235   -0.336216
      4          1           0        2.479850    0.761148    0.585974
      5          1           0        1.781173    0.665216   -1.181454
      6          6           0       -0.500319    0.627975    0.060817
      7          1           0        0.788052   -1.112305    1.307393
      8          1           0        0.389050   -1.053966   -0.342369
      9          6           0       -2.003263   -0.171253   -0.101600
     10          1           0       -0.567502    1.187279   -0.879830
     11          1           0       -0.760999    1.588081    1.027764
     12          1           0       -2.084709   -1.322365   -1.095994
     13          1           0       -2.643746    0.317012   -0.126452
     14          1           0       -2.740956   -0.599452    0.631806
 ---------------------------------------------------------------------

 SCF Done:  E(RB2PLYPD3) =  -157.793448738     A.U. after   11 cycles
 E2(B2PLYPD3) =    -0.2547464806D+00 E(B2PLYPD3) =    -0.15804819521875D+03

 The electronic state is 1-A.
 Alpha  occ. eigenvalues --  -10.67411 -10.64021 -10.61863 -10.61450  -0.91747
 Alpha  occ. eigenvalues --   -0.85197  -0.74214  -0.67312  -0.52590  -0.49242
 Alpha  occ. eigenvalues --   -0.48664  -0.43680  -0.41737  -0.39861  -0.39105
 Alpha  occ. eigenvalues --   -0.35869  -0.34101
 Alpha virt. eigenvalues --    0.04656   0.04839   0.06316   0.07471   0.09702
 Alpha virt. eigenvalues --    0.10373   0.11323   0.12668   0.13834   0.14746
 Alpha virt. eigenvalues --    0.15544   0.16067   0.18489   0.19376   0.19826

 Mulliken charges:
               1
     1  C   -0.155260
     2  C   -0.066367
     3  H    0.016413
     4  H    0.047493
     5  H    0.051056
     6  C   -0.066469
     7  H    0.037128
     8  H    0.127426
     9  C   -0.345436
    10  H    0.080329
    11  H    0.006167
    12  H   -0.005716
    13  H    0.237463
    14  H    0.035774
 Sum of Mulliken charges =   0.00000

 Dipole moment (field-independent basis, Debye):
    X=             -0.2111    Y=              0.3279    Z=              0.0497  Tot=              0.3931
 Quadrupole moment (field-independent basis, Debye-Ang):
   XX=            -29.4690   YY=            -29.5228   ZZ=            -30.0680
   XY=             -1.2169   XZ=             -0.3510   YZ=             -0.3960

 Normal termination of Gaussian 09 at Wed Aug 26 22:45:42 2020.
