 Gaussian 09, Revision D.01,
 Gaussian 09:  ES64L-G09RevD.01 24-Apr-2013

 --------------------
 #p B2PLYPD3/Def2QZVP
 --------------------

 ----------
 butane_opt
 ----------
 Symbolic Z-matrix:
 Charge =  0 Multiplicity = 1

                         Standard orientation:
 ---------------------------------------------------------------------
 Center     Atomic      Atomic             Coordinates (Angstroms)
 Number     Number       Type             X           Y           Z
 ---------------------------------------------------------------------
      1          6           0       -1.854220   -0.093911   -0.186690
      2          6           0       -0.543749    0.436340    0.280201
      3          1           0       -2.577558    0.779545   -0.560084
      4          1           0       -2.330892   -0.764987    0.706559
      5          1           0       -1.576256   -0.528228   -0.988450
      6          6           0        0.522568   -0.634237    0.121508
      7          1           0       -0.640237    1.330952    1.458047
      8          1           0       -0.690869    0.902425   -0.447377
      9          6           0        1.969462    0.190657   -0.140733
     10          1           0        0.271001   -1.208843   -0.813081
     11          1           0        0.415812   -1.064884    0.763043
     12          1           0        1.785793    1.328212   -1.152456
     13          1           0        2.621104   -0.554547    0.174810
     14          1           0        2.157735    0.387256    0.413277
 ---------------------------------------------------------------------

 SCF Done:  E(RB2PLYPD3) =  -157.292489861     A.U. after   12 cycles
 E2(B2PLYPD3) =    -0.2541976906D+00 E(B2PLYPD3) =    -0.15754668755187D+03

 The electronic state is 1-A.
 Alpha  occ. eigenvalues --  -10.60943 -10.60520 -10.60233 -10.59252  -0.95788
 Alpha  occ. eigenvalues --   -0.90752  -0.80487  -0.67859  -0.56146  -0.50723
 Alpha  occ. eigenvalues --   -0.49802  -0.47266  -0.42638  -0.40756  -0.37074
 Alpha  occ. eigenvalues --   -0.36405  -0.33603
 Alpha virt. eigenvalues --    0.02989   0.05501   0.06537   0.07494   0.10371
 Alpha virt. eigenvalues --    0.10960   0.11620   0.13020   0.14886   0.15132
 Alpha virt. eigenvalues --    0.15887   0.17333   0.18031   0.19002   0.21390

 Mulliken charges:
               1
     1  C   -0.180497
     2  C   -0.204373
     3  H    0.032552
     4  H    0.030696
     5  H    0.095921
     6  C   -0.290336
     7  H   -0.002291
     8  H    0.196593
     9  C   -0.729333
    10  H    0.048743
    11  H    0.300412
    12  H    0.074799
    13  H    0.044159
    14  H    0.582955
 Sum of Mulliken charges =   0.00000

 Dipole moment (field-independent basis, Debye):
    X=              0.1264    Y=             -0.1356    Z=             -0.0381  Tot=              0.1892
 Quadrupole moment (field-independent basis, Debye-Ang):
   XX=            -31.0111   YY=            -28.6542   ZZ=            -27.9011
   XY=             -0.6362   XZ=              2.3538   YZ=             -1.4133

 Normal termination of Gaussian 09 at Wed Aug 26 10:08:40 2020.
