 Gaussian 09, Revision D.01,
 Gaussian 09:  ES64L-G09RevD.01 24-Apr-2013

 --------------------
 #p B2PLYPD3/Def2QZVP
 --------------------

 ----------
 butane_opt
 ----------
 Symbolic Z-matrix:
 Charge =  0 Multiplicity = 1

                         Standard orientation:
 ---------------------------------------------------------------------
 Center     Atomic      Atomic             Coordinates (Angstroms)
 Number     Number       Type             X           Y           Z
 ---------------------------------------------------------------------
      1          6           0       -1.992236    0.108087   -0.154286
      2          6           0       -0.644351   -0.444293    0.177598
      3          1           0       -2.865025   -0.641743   -0.495129
      4          1           0       -1.698129    0.457272   -0.836244
      5          1           0       -2.357616    0.663660    0.786007
      6          6           0        0.627808    0.586156    0.158434
      7          1           0       -0.417588   -0.998253   -0.483936
      8          1           0       -0.680661   -1.310182    1.180746
      9          6           0        1.975430   -0.187650   -0.125721
     10          1           0        0.378927    1.213477    0.862449
     11          1           0        0.490898    1.341926   -0.916609
     12          1           0        2.611654   -0.638193    0.720183
     13          1           0        2.653715    0.517470   -0.003302
     14          1           0        2.083916   -0.979234   -1.150317
 ---------------------------------------------------------------------

 SCF Done:  E(RB2PLYPD3) =  -157.846590184     A.U. after   11 cycles
 E2(B2PLYPD3) =    -0.2511819759D+00 E(B2PLYPD3) =    -0.15809777215958D+03

 The electronic state is 1-A.
 Alpha  occ. eigenvalues --  -10.64025 -10.62833 -10.60278 -10.58365  -0.92075
 Alpha  occ. eigenvalues --   -0.84901  -0.74574  -0.68351  -0.55132  -0.51442
 Alpha  occ. eigenvalues --   -0.48009  -0.45747  -0.43714  -0.40492  -0.37361
 Alpha  occ. eigenvalues --   -0.36295  -0.34536
 Alpha virt. eigenvalues --    0.05095   0.06187   0.07022   0.08833   0.10084
 Alpha virt. eigenvalues --    0.11539   0.12242   0.13226   0.14270   0.15485
 Alpha virt. eigenvalues --    0.15691   0.16668   0.18522   0.19102   0.21165

 Mulliken charges:
               1
     1  C   -0.319118
     2  C   -0.114711
     3  H    0.035571
     4  H    0.219829
     5  H    0.057059
     6  C   -0.054077
     7  H    0.120882
     8  H   -0.015624
     9  C   -0.154620
    10  H    0.083695
    11  H   -0.011835
    12  H    0.022230
    13  H    0.072130
    14  H    0.058590
 Sum of Mulliken charges =   0.00000

 Dipole moment (field-independent basis, Debye):
    X=              0.5410    Y=              0.2179    Z=             -0.1727  Tot=              0.6082
 Quadrupole moment (field-independent basis, Debye-Ang):
   XX=            -28.2313   YY=            -29.7584   ZZ=            -28.7163
   XY=              0.3284   XZ=              0.4498   YZ=              1.6039

 Normal termination of Gaussian 09 at Wed Aug 26 18:41:01 2020.
