 Gaussian 09, Revision D.01,
 Gaussian 09:  ES64L-G09RevD.01 24-Apr-2013

 --------------------
 #p B2PLYPD3/Def2QZVP
 --------------------

 ----------
 butane_opt
 ----------
 Symbolic Z-matrix:
 Charge =  0 Multiplicity = 1

                         Standard orientation:
 ---------------------------------------------------------------------
 Center     Atomic      Atomic             Coordinates (Angstroms)
 Number     Number       Type             X           Y           Z
 ---------------------------------------------------------------------
      1          6           0       -2.026627    0.129722    0.076696
      2          6           0       -0.591807   -0.575082   -0.000540
      3          1           0       -2.693668   -0.501851   -0.946813
      4          1           0       -1.846342    0.345709   -0.633304
      5          1           0       -2.676638    1.275931    1.193903
      6          6           0        0.632414    0.492052   -0.150358
      7          1           0       -0.437042   -1.054881   -0.722251
      8          1           0       -0.405116   -1.270602    1.030452
      9          6           0        2.004954   -0.103622    0.035090
     10          1           0        0.635052    1.152520    0.832876
     11          1           0        0.723274    1.011925   -0.966736
     12          1           0        1.983995   -0.808858    1.179589
     13          1           0        2.672767    0.554387   -0.132357
     14          1           0        1.930113   -0.362698   -0.600684
 ---------------------------------------------------------------------

 SCF Done:  E(RB2PLYPD3) =  -157.365810992     A.U. after   13 cycles
 E2(B2PLYPD3) =    -0.2582598106D+00 E(B2PLYPD3) =    -0.15762407080270D+03

 The electronic state is 1-A.
 Alpha  occ. eigenvalues --  -10.63940 -10.62806 -10.60699 -10.56466  -0.95423
 Alpha  occ. eigenvalues --   -0.90342  -0.76847  -0.68952  -0.56404  -0.52702
 Alpha  occ. eigenvalues --   -0.49930  -0.44261  -0.40840  -0.39672  -0.38067
 Alpha  occ. eigenvalues --   -0.35131  -0.32831
 Alpha virt. eigenvalues --   -0.01412   0.05186   0.06224   0.07945   0.09390
 Alpha virt. eigenvalues --    0.10190   0.11737   0.12595   0.13888   0.15253
 Alpha virt. eigenvalues --    0.15926   0.16876   0.18183   0.18708   0.19765

 Mulliken charges:
               1
     1  C   -0.575182
     2  C   -0.147065
     3  H    0.000825
     4  H    0.462604
     5  H    0.085111
     6  C   -0.023998
     7  H    0.154457
     8  H    0.017642
     9  C   -0.605946
    10  H    0.012361
    11  H    0.046809
    12  H    0.057886
    13  H    0.055854
    14  H    0.458643
 Sum of Mulliken charges =   0.00000

 Dipole moment (field-independent basis, Debye):
    X=              0.5736    Y=              0.5838    Z=             -0.9657  Tot=              1.2659
 Quadrupole moment (field-independent basis, Debye-Ang):
   XX=            -32.1122   YY=            -29.9833   ZZ=            -26.4154
   XY=             -0.9659   XZ=             -0.3713   YZ=              0.7117

 Normal termination of Gaussian 09 at Wed Aug 26 12:25:10 2020.
