 Gaussian 09, Revision D.01,
 Gaussian 09:  ES64L-G09RevD.01 24-Apr-2013

 --------------------
 #p B2PLYPD3/Def2QZVP
 --------------------

 ----------
 butane_opt
 ----------
 Symbolic Z-matrix:
 Charge =  0 Multiplicity = 1

                         Standard orientation:
 ---------------------------------------------------------------------
 Center     Atomic      Atomic             Coordinates (Angstroms)
 Number     Number       Type             X           Y           Z
 ---------------------------------------------------------------------
      1          6           0       -1.911123   -0.105628   -0.063757
      2          6           0       -0.548972    0.516637    0.068538
      3          1           0       -2.570814    0.552565   -0.234518
      4          1           0       -2.058818   -0.785557    0.898953
      5          1           0       -1.920022   -0.729074   -0.942762
      6          6           0        0.569876   -0.542962    0.159031
      7          1           0       -0.308800    1.070294    0.867583
      8          1           0       -0.333154    1.287875   -0.925407
      9          6           0        1.886365    0.133962   -0.035930
     10          1           0        0.372427   -1.086631   -0.684370
     11          1           0        0.469890   -0.981231    1.032560
     12          1           0        1.477837    0.447507   -0.779052
     13          1           0        2.645333   -0.704628   -0.816655
     14          1           0        2.249247    0.916828    0.816382
 ---------------------------------------------------------------------

 SCF Done:  E(RB2PLYPD3) =  -157.947478887     A.U. after   11 cycles
 E2(B2PLYPD3) =    -0.2498295636D+00 E(B2PLYPD3) =    -0.15819730845096D+03

 The electronic state is 1-A.
 Alpha  occ. eigenvalues --  -10.60965 -10.60854 -10.59573 -10.58585  -0.94278
 Alpha  occ. eigenvalues --   -0.85340  -0.73312  -0.67318  -0.57545  -0.51212
 Alpha  occ. eigenvalues --   -0.48578  -0.47137  -0.42883  -0.41773  -0.39653
 Alpha  occ. eigenvalues --   -0.37342  -0.33936
 Alpha virt. eigenvalues --    0.04997   0.06441   0.07875   0.08178   0.10520
 Alpha virt. eigenvalues --    0.11558   0.12519   0.13072   0.14528   0.15265
 Alpha virt. eigenvalues --    0.16190   0.17063   0.19042   0.19229   0.21030

 Mulliken charges:
               1
     1  C   -0.137512
     2  C   -0.065696
     3  H    0.068011
     4  H    0.038317
     5  H    0.039075
     6  C   -0.046747
     7  H    0.053821
     8  H   -0.013400
     9  C   -0.275405
    10  H    0.063115
    11  H    0.044246
    12  H    0.157636
    13  H    0.012007
    14  H    0.062534
 Sum of Mulliken charges =   0.00000

 Dipole moment (field-independent basis, Debye):
    X=             -0.6727    Y=              0.1210    Z=              0.0477  Tot=              0.6851
 Quadrupole moment (field-independent basis, Debye-Ang):
   XX=            -31.7323   YY=            -29.5821   ZZ=            -27.4027
   XY=              0.3223   XZ=              0.7277   YZ=              0.8352

 Normal termination of Gaussian 09 at Wed Aug 26 21:47:50 2020.
