 Gaussian 09, Revision D.01,
 Gaussian 09:  ES64L-G09RevD.01 24-Apr-2013

 --------------------
 #p B2PLYPD3/Def2QZVP
 --------------------

 ----------
 butane_opt
 ----------
 Symbolic Z-matrix:
 Charge =  0 Multiplicity = 1

                         Standard orientation:
 ---------------------------------------------------------------------
 Center     Atomic      Atomic             Coordinates (Angstroms)
 Number     Number       Type             X           Y           Z
 ---------------------------------------------------------------------
      1          6           0       -1.934763    0.074525    0.047553
      2          6           0       -0.475579   -0.561277   -0.027282
      3          1           0       -2.552777   -0.466200   -0.463723
      4          1           0       -1.871830    0.432782   -0.501939
      5          1           0       -2.413010    1.496422    1.262272
      6          6           0        0.543377    0.438829   -0.185283
      7          1           0       -0.579060   -1.209850   -0.822634
      8          1           0       -0.321373   -1.286558    1.015224
      9          6           0        1.879959   -0.083270    0.108081
     10          1           0        0.554332    1.203449    0.757342
     11          1           0        0.463161    1.062107   -1.211099
     12          1           0        2.182844   -0.730866    1.158090
     13          1           0        2.734927    0.823849   -0.282920
     14          1           0        1.724824   -0.537974   -0.569028
 ---------------------------------------------------------------------

 SCF Done:  E(RB2PLYPD3) =  -157.441755371     A.U. after   13 cycles
 E2(B2PLYPD3) =    -0.2579972570D+00 E(B2PLYPD3) =    -0.15769975262784D+03

 The electronic state is 1-A.
 Alpha  occ. eigenvalues --  -10.63608 -10.63024 -10.60801 -10.60344  -0.96854
 Alpha  occ. eigenvalues --   -0.91267  -0.77345  -0.65843  -0.55281  -0.52114
 Alpha  occ. eigenvalues --   -0.49758  -0.47113  -0.43923  -0.38878  -0.38513
 Alpha  occ. eigenvalues --   -0.33882  -0.33062
 Alpha virt. eigenvalues --   -0.01850   0.05221   0.06211   0.06614   0.09337
 Alpha virt. eigenvalues --    0.10493   0.11397   0.12143   0.14294   0.15590
 Alpha virt. eigenvalues --    0.15838   0.16521   0.17865   0.18823   0.20858

 Mulliken charges:
               1
     1  C   -0.666504
     2  C   -0.003650
     3  H    0.056110
     4  H    0.552099
     5  H   -0.011631
     6  C   -0.047813
     7  H    0.055449
     8  H    0.020465
     9  C   -0.346172
    10  H    0.023984
    11  H    0.043504
    12  H    0.064069
    13  H    0.029822
    14  H    0.230269
 Sum of Mulliken charges =   0.00000

 Dipole moment (field-independent basis, Debye):
    X=              0.2524    Y=             -0.5168    Z=             -1.2962  Tot=              1.4180
 Quadrupole moment (field-independent basis, Debye-Ang):
   XX=            -32.7449   YY=            -29.6803   ZZ=            -28.0306
   XY=              0.8646   XZ=              2.8334   YZ=             -0.2907

 Normal termination of Gaussian 09 at Wed Aug 26 11:00:26 2020.
