 Gaussian 09, Revision D.01,
 Gaussian 09:  ES64L-G09RevD.01 24-Apr-2013

 --------------------
 #p B2PLYPD3/Def2QZVP
 --------------------

 ----------
 butane_opt
 ----------
 Symbolic Z-matrix:
 Charge =  0 Multiplicity = 1

                         Standard orientation:
 ---------------------------------------------------------------------
 Center     Atomic      Atomic             Coordinates (Angstroms)
 Number     Number       Type             X           Y           Z
 ---------------------------------------------------------------------
      1          6           0        2.062415   -0.186787   -0.157275
      2          6           0        0.579296    0.610115    0.079827
      3          1           0        2.697090    0.344938   -0.183396
      4          1           0        2.436014   -1.014279   -0.907665
      5          1           0        2.162483   -0.650278    0.746975
      6          6           0       -0.664844   -0.396829    0.335690
      7          1           0        0.200702    0.899877   -0.724051
      8          1           0        0.463862    1.499225    0.829529
      9          6           0       -1.969024   -0.005167   -0.221159
     10          1           0       -0.784884   -0.967264    1.571382
     11          1           0       -0.503979   -0.844582   -0.293674
     12          1           0       -2.333495    1.132731    0.498490
     13          1           0       -2.840827   -0.971609   -0.599088
     14          1           0       -1.544025    0.443250   -1.161004
 ---------------------------------------------------------------------

 SCF Done:  E(RB2PLYPD3) =  -157.736290453     A.U. after   11 cycles
 E2(B2PLYPD3) =    -0.2531380539D+00 E(B2PLYPD3) =    -0.15798942850723D+03

 The electronic state is 1-A.
 Alpha  occ. eigenvalues --  -10.65848 -10.62533 -10.60038 -10.58917  -0.94158
 Alpha  occ. eigenvalues --   -0.85109  -0.75469  -0.66763  -0.54110  -0.51147
 Alpha  occ. eigenvalues --   -0.48013  -0.45552  -0.42764  -0.41852  -0.39106
 Alpha  occ. eigenvalues --   -0.36704  -0.34056
 Alpha virt. eigenvalues --    0.03907   0.06231   0.07674   0.08265   0.10107
 Alpha virt. eigenvalues --    0.10783   0.11653   0.13552   0.14169   0.14720
 Alpha virt. eigenvalues --    0.15366   0.16331   0.18431   0.18732   0.19512

 Mulliken charges:
               1
     1  C   -0.270478
     2  C   -0.114077
     3  H    0.165839
     4  H    0.035217
     5  H    0.057906
     6  C   -0.398125
     7  H    0.117397
     8  H    0.043682
     9  C   -0.156628
    10  H    0.012512
    11  H    0.392294
    12  H    0.010939
    13  H    0.064572
    14  H    0.038950
 Sum of Mulliken charges =   0.00000

 Dipole moment (field-independent basis, Debye):
    X=              0.6734    Y=             -0.1273    Z=             -0.5155  Tot=              0.8576
 Quadrupole moment (field-independent basis, Debye-Ang):
   XX=            -29.4429   YY=            -29.2070   ZZ=            -29.0263
   XY=              0.8281   XZ=              0.4805   YZ=              1.0710

 Normal termination of Gaussian 09 at Wed Aug 26 15:47:05 2020.
