 Gaussian 09, Revision D.01,
 Gaussian 09:  ES64L-G09RevD.01 24-Apr-2013

 --------------------
 #p B2PLYPD3/Def2QZVP
 --------------------

 ----------
 butane_opt
 ----------
 Symbolic Z-matrix:
 Charge =  0 Multiplicity = 1

                         Standard orientation:
 ---------------------------------------------------------------------
 Center     Atomic      Atomic             Coordinates (Angstroms)
 Number     Number       Type             X           Y           Z
 ---------------------------------------------------------------------
      1          6           0        1.982564   -0.146603   -0.010927
      2          6           0        0.542276    0.535103    0.034910
      3          1           0        2.778628    0.610742   -0.157145
      4          1           0        1.985110   -0.587810   -0.781980
      5          1           0        2.266256   -0.917813    0.964749
      6          6           0       -0.591059   -0.497587   -0.018558
      7          1           0        0.430402    1.293065   -0.935651
      8          1           0        0.491658    1.104946    0.837355
      9          6           0       -1.937157    0.110949    0.015178
     10          1           0       -0.508045   -1.137556    0.799901
     11          1           0       -0.508645   -1.212358   -0.947866
     12          1           0       -2.068223    0.863889    0.981398
     13          1           0       -2.797899   -0.683700   -0.083491
     14          1           0       -2.048985    0.655424   -0.800890
 ---------------------------------------------------------------------

 SCF Done:  E(RB2PLYPD3) =  -158.025528374     A.U. after   11 cycles
 E2(B2PLYPD3) =    -0.2472474868D+00 E(B2PLYPD3) =    -0.15827277586038D+03

 The electronic state is 1-A.
 Alpha  occ. eigenvalues --  -10.61480 -10.60649 -10.60596 -10.59893  -0.91315
 Alpha  occ. eigenvalues --   -0.83786  -0.73450  -0.67143  -0.53980  -0.49209
 Alpha  occ. eigenvalues --   -0.48066  -0.47114  -0.43068  -0.41414  -0.38490
 Alpha  occ. eigenvalues --   -0.37995  -0.37122
 Alpha virt. eigenvalues --    0.05668   0.06537   0.07907   0.08341   0.10713
 Alpha virt. eigenvalues --    0.11831   0.12757   0.13204   0.14909   0.14978
 Alpha virt. eigenvalues --    0.15903   0.16328   0.19361   0.20001   0.21615

 Mulliken charges:
               1
     1  C   -0.206426
     2  C   -0.053912
     3  H    0.040551
     4  H    0.118238
     5  H    0.026949
     6  C   -0.019466
     7  H   -0.002388
     8  H    0.066649
     9  C   -0.152547
    10  H    0.048096
    11  H    0.007693
    12  H    0.026950
    13  H    0.035759
    14  H    0.063856
 Sum of Mulliken charges =   0.00000

 Dipole moment (field-independent basis, Debye):
    X=              0.0228    Y=             -0.0148    Z=             -0.1774  Tot=              0.1795
 Quadrupole moment (field-independent basis, Debye-Ang):
   XX=            -30.0849   YY=            -28.9982   ZZ=            -28.2353
   XY=              0.4598   XZ=              0.1390   YZ=              0.0951

 Normal termination of Gaussian 09 at Wed Aug 26 23:06:56 2020.
