 Gaussian 09, Revision D.01,
 Gaussian 09:  ES64L-G09RevD.01 24-Apr-2013

 --------------------
 #p B2PLYPD3/Def2QZVP
 --------------------

 ----------
 butane_opt
 ----------
 Symbolic Z-matrix:
 Charge =  0 Multiplicity = 1

                         Standard orientation:
 ---------------------------------------------------------------------
 Center     Atomic      Atomic             Coordinates (Angstroms)
 Number     Number       Type             X           Y           Z
 ---------------------------------------------------------------------
      1          6           0        2.028493   -0.150484    0.039134
      2          6           0        0.536096    0.622456   -0.138960
      3          1           0        2.710756    0.422772    0.468984
      4          1           0        2.496943   -1.052956   -1.025030
      5          1           0        2.111887   -0.515436    0.726278
      6          6           0       -0.616819   -0.515756    0.009700
      7          1           0        0.222254    1.196256   -0.851399
      8          1           0        0.418713    1.239080    0.675155
      9          6           0       -1.934264    0.054071    0.001023
     10          1           0       -0.701195   -1.267711    0.991977
     11          1           0       -0.770873   -1.043652   -0.693454
     12          1           0       -1.797705    0.966058    1.080443
     13          1           0       -2.632658   -0.740081    0.021693
     14          1           0       -2.139157    0.733949   -0.860026
 ---------------------------------------------------------------------

 SCF Done:  E(RB2PLYPD3) =  -157.772830854     A.U. after   11 cycles
 E2(B2PLYPD3) =    -0.2506671532D+00 E(B2PLYPD3) =    -0.15802349800713D+03

 The electronic state is 1-A.
 Alpha  occ. eigenvalues --  -10.62354 -10.61569 -10.60252 -10.59489  -0.92702
 Alpha  occ. eigenvalues --   -0.87525  -0.77898  -0.67509  -0.53793  -0.51538
 Alpha  occ. eigenvalues --   -0.48913  -0.46363  -0.44770  -0.39924  -0.38729
 Alpha  occ. eigenvalues --   -0.36139  -0.34395
 Alpha virt. eigenvalues --    0.04694   0.05377   0.07839   0.08454   0.10568
 Alpha virt. eigenvalues --    0.10897   0.12150   0.12589   0.14466   0.14720
 Alpha virt. eigenvalues --    0.15910   0.17058   0.18397   0.19633   0.20136

 Mulliken charges:
               1
     1  C   -0.366123
     2  C   -0.083744
     3  H    0.042630
     4  H    0.029381
     5  H    0.273695
     6  C   -0.069405
     7  H    0.076945
     8  H    0.049581
     9  C   -0.164689
    10  H    0.010730
    11  H    0.102721
    12  H   -0.015554
    13  H    0.072900
    14  H    0.040932
 Sum of Mulliken charges =   0.00000

 Dipole moment (field-independent basis, Debye):
    X=             -0.0124    Y=             -0.1464    Z=             -0.0134  Tot=              0.1475
 Quadrupole moment (field-independent basis, Debye-Ang):
   XX=            -30.5164   YY=            -28.6966   ZZ=            -28.4572
   XY=              1.4257   XZ=              3.1960   YZ=              0.0535

 Normal termination of Gaussian 09 at Wed Aug 26 13:57:13 2020.
