 Gaussian 09, Revision D.01,
 Gaussian 09:  ES64L-G09RevD.01 24-Apr-2013

 --------------------
 #p B2PLYPD3/Def2QZVP
 --------------------

 ----------
 butane_opt
 ----------
 Symbolic Z-matrix:
 Charge =  0 Multiplicity = 1

                         Standard orientation:
 ---------------------------------------------------------------------
 Center     Atomic      Atomic             Coordinates (Angstroms)
 Number     Number       Type             X           Y           Z
 ---------------------------------------------------------------------
      1          6           0        1.941372   -0.167576   -0.104017
      2          6           0        0.583594    0.562031    0.098251
      3          1           0        2.683511    0.521845   -0.113734
      4          1           0        2.057105   -0.850857   -0.976939
      5          1           0        2.438174   -0.680261    0.731028
      6          6           0       -0.595578   -0.479767    0.113447
      7          1           0        0.318870    1.093623   -0.750007
      8          1           0        0.484987    1.488368    1.062771
      9          6           0       -1.934197    0.071099   -0.104711
     10          1           0       -0.708946   -1.228674    1.051241
     11          1           0       -0.349616   -1.025117   -0.637097
     12          1           0       -2.039069    0.649755    0.598579
     13          1           0       -2.720980   -0.643544    0.073746
     14          1           0       -2.135185    0.760130   -1.057407
 ---------------------------------------------------------------------

 SCF Done:  E(RB2PLYPD3) =  -158.015857424     A.U. after   11 cycles
 E2(B2PLYPD3) =    -0.2477023828D+00 E(B2PLYPD3) =    -0.15826355980706D+03

 The electronic state is 1-A.
 Alpha  occ. eigenvalues --  -10.63354 -10.59873 -10.59793 -10.57887  -0.91816
 Alpha  occ. eigenvalues --   -0.84436  -0.74551  -0.67167  -0.52903  -0.49976
 Alpha  occ. eigenvalues --   -0.49469  -0.47076  -0.43569  -0.40968  -0.39659
 Alpha  occ. eigenvalues --   -0.36922  -0.36531
 Alpha virt. eigenvalues --    0.05793   0.06674   0.07800   0.08399   0.10683
 Alpha virt. eigenvalues --    0.12440   0.12904   0.14040   0.14882   0.15388
 Alpha virt. eigenvalues --    0.15689   0.16306   0.19249   0.20347   0.21518

 Mulliken charges:
               1
     1  C   -0.118829
     2  C   -0.071190
     3  H    0.043622
     4  H    0.041145
     5  H    0.026310
     6  C   -0.041340
     7  H    0.071203
     8  H   -0.001868
     9  C   -0.175456
    10  H    0.008255
    11  H    0.069931
    12  H    0.092125
    13  H    0.040530
    14  H    0.015561
 Sum of Mulliken charges =   0.00000

 Dipole moment (field-independent basis, Debye):
    X=              0.1616    Y=             -0.0342    Z=             -0.1481  Tot=              0.2218
 Quadrupole moment (field-independent basis, Debye-Ang):
   XX=            -28.2529   YY=            -28.9854   ZZ=            -28.7131
   XY=             -0.1255   XZ=             -0.4748   YZ=              0.0669

 Normal termination of Gaussian 09 at Wed Aug 26 13:25:17 2020.
