 Gaussian 09, Revision D.01,
 Gaussian 09:  ES64L-G09RevD.01 24-Apr-2013

 --------------------
 #p B2PLYPD3/Def2QZVP
 --------------------

 ----------
 butane_opt
 ----------
 Symbolic Z-matrix:
 Charge =  0 Multiplicity = 1

                         Standard orientation:
 ---------------------------------------------------------------------
 Center     Atomic      Atomic             Coordinates (Angstroms)
 Number     Number       Type             X           Y           Z
 ---------------------------------------------------------------------
      1          6           0       -1.837120   -0.105398    0.030100
      2          6           0       -0.586327    0.501718   -0.135585
      3          1           0       -2.730110    0.783127   -0.193357
      4          1           0       -2.178541   -0.647029    1.051036
      5          1           0       -1.877328   -0.507954   -0.560965
      6          6           0        0.498510   -0.592119    0.054018
      7          1           0       -0.673861    1.203649    0.735884
      8          1           0       -0.345512    1.099074   -1.246639
      9          6           0        1.966943    0.124712   -0.023512
     10          1           0        0.108894   -1.247035   -0.645246
     11          1           0        0.257864   -1.293510    1.141204
     12          1           0        2.026480    0.112373   -0.592961
     13          1           0        2.706746   -0.618127   -0.570564
     14          1           0        2.453327    1.541957    1.331485
 ---------------------------------------------------------------------

 SCF Done:  E(RB2PLYPD3) =  -157.006054326     A.U. after   14 cycles
 E2(B2PLYPD3) =    -0.2627089235D+00 E(B2PLYPD3) =    -0.15726876324913D+03

 The electronic state is 1-A.
 Alpha  occ. eigenvalues --  -10.65314 -10.64287 -10.62023 -10.58183  -0.96445
 Alpha  occ. eigenvalues --   -0.93069  -0.78054  -0.67378  -0.55166  -0.51559
 Alpha  occ. eigenvalues --   -0.46729  -0.45951  -0.39684  -0.38533  -0.36291
 Alpha  occ. eigenvalues --   -0.35373  -0.33881
 Alpha virt. eigenvalues --   -0.05381   0.05086   0.05742   0.06641   0.09405
 Alpha virt. eigenvalues --    0.09998   0.11670   0.12828   0.14562   0.15335
 Alpha virt. eigenvalues --    0.16315   0.17286   0.17929   0.18864   0.20269

 Mulliken charges:
               1
     1  C   -0.549806
     2  C    0.005902
     3  H    0.031800
     4  H    0.068788
     5  H    0.399175
     6  C   -0.096197
     7  H    0.033883
     8  H    0.028751
     9  C   -0.903495
    10  H    0.074418
    11  H    0.018750
    12  H    0.791540
    13  H    0.032123
    14  H    0.064368
 Sum of Mulliken charges =   0.00000

 Dipole moment (field-independent basis, Debye):
    X=             -0.1955    Y=             -0.1623    Z=             -0.7423  Tot=              0.7846
 Quadrupole moment (field-independent basis, Debye-Ang):
   XX=            -31.2601   YY=            -29.5852   ZZ=            -27.4476
   XY=              1.2384   XZ=             -1.7950   YZ=              1.5618

 Normal termination of Gaussian 09 at Wed Aug 26 20:22:34 2020.
