 Gaussian 09, Revision D.01,
 Gaussian 09:  ES64L-G09RevD.01 24-Apr-2013

 --------------------
 #p B2PLYPD3/Def2QZVP
 --------------------

 ----------
 butane_opt
 ----------
 Symbolic Z-matrix:
 Charge =  0 Multiplicity = 1

                         Standard orientation:
 ---------------------------------------------------------------------
 Center     Atomic      Atomic             Coordinates (Angstroms)
 Number     Number       Type             X           Y           Z
 ---------------------------------------------------------------------
      1          6           0        2.005735   -0.159999   -0.099950
      2          6           0        0.549282    0.582305    0.122169
      3          1           0        2.693963    0.455302   -0.368304
      4          1           0        1.867215   -0.621233   -0.848652
      5          1           0        2.343753   -0.917917    0.818073
      6          6           0       -0.589563   -0.454199    0.073195
      7          1           0        0.405471    1.053266   -0.579211
      8          1           0        0.578497    1.307007    0.980805
      9          6           0       -1.986781    0.100147   -0.067848
     10          1           0       -0.411576   -1.128168    1.025676
     11          1           0       -0.531139   -1.145028   -0.747888
     12          1           0       -2.244775    0.583214    0.723380
     13          1           0       -2.780066   -0.749040   -0.130774
     14          1           0       -1.793379    0.753068   -1.038503
 ---------------------------------------------------------------------

 SCF Done:  E(RB2PLYPD3) =  -157.967064386     A.U. after   11 cycles
 E2(B2PLYPD3) =    -0.2464421216D+00 E(B2PLYPD3) =    -0.15821350650797D+03

 The electronic state is 1-A.
 Alpha  occ. eigenvalues --  -10.60814 -10.60197 -10.58920 -10.58034  -0.91604
 Alpha  occ. eigenvalues --   -0.84308  -0.75773  -0.67694  -0.54843  -0.50802
 Alpha  occ. eigenvalues --   -0.48635  -0.47772  -0.43365  -0.41700  -0.39522
 Alpha  occ. eigenvalues --   -0.37302  -0.36578
 Alpha virt. eigenvalues --    0.05650   0.06866   0.08371   0.08953   0.10843
 Alpha virt. eigenvalues --    0.11977   0.13072   0.13525   0.14977   0.15410
 Alpha virt. eigenvalues --    0.16071   0.16597   0.18999   0.19331   0.21950

 Mulliken charges:
               1
     1  C   -0.197665
     2  C   -0.169771
     3  H    0.045474
     4  H    0.104794
     5  H    0.035015
     6  C   -0.031075
     7  H    0.150272
     8  H    0.029156
     9  C   -0.158759
    10  H    0.006520
    11  H    0.041586
    12  H    0.066715
    13  H    0.037871
    14  H    0.039868
 Sum of Mulliken charges =   0.00000

 Dipole moment (field-independent basis, Debye):
    X=              0.0164    Y=              0.1791    Z=             -0.3268  Tot=              0.3730
 Quadrupole moment (field-independent basis, Debye-Ang):
   XX=            -29.4257   YY=            -28.7222   ZZ=            -27.9356
   XY=              0.7147   XZ=             -1.0397   YZ=              0.0260

 Normal termination of Gaussian 09 at Wed Aug 26 14:57:44 2020.
