 Gaussian 09, Revision D.01,
 Gaussian 09:  ES64L-G09RevD.01 24-Apr-2013

 --------------------
 #p B2PLYPD3/Def2QZVP
 --------------------

 ----------
 butane_opt
 ----------
 Symbolic Z-matrix:
 Charge =  0 Multiplicity = 1

                         Standard orientation:
 ---------------------------------------------------------------------
 Center     Atomic      Atomic             Coordinates (Angstroms)
 Number     Number       Type             X           Y           Z
 ---------------------------------------------------------------------
      1          6           0       -1.988454   -0.105403    0.234168
      2          6           0       -0.544671    0.513761   -0.324509
      3          1           0       -2.751118    0.708111    0.642767
      4          1           0       -1.656294   -0.559464    1.031736
      5          1           0       -2.464124   -0.832390   -0.706374
      6          6           0        0.562544   -0.566560   -0.182453
      7          1           0       -0.348820    0.899127    0.269371
      8          1           0       -0.843172    1.157095   -1.274127
      9          6           0        2.038620    0.135587    0.168042
     10          1           0        0.463313   -1.168826   -0.776174
     11          1           0        0.404735   -1.262683    0.882635
     12          1           0        2.013278    0.511051   -0.526612
     13          1           0        2.743943   -0.601332   -0.126947
     14          1           0        2.030027    1.285008    1.212229
 ---------------------------------------------------------------------

 SCF Done:  E(RB2PLYPD3) =  -157.600286720     A.U. after   11 cycles
 E2(B2PLYPD3) =    -0.2528008505D+00 E(B2PLYPD3) =    -0.15785308757059D+03

 The electronic state is 1-A.
 Alpha  occ. eigenvalues --  -10.61805 -10.61388 -10.61345 -10.58536  -0.92791
 Alpha  occ. eigenvalues --   -0.84901  -0.75255  -0.71863  -0.54656  -0.49998
 Alpha  occ. eigenvalues --   -0.46942  -0.46426  -0.42073  -0.40854  -0.39273
 Alpha  occ. eigenvalues --   -0.37977  -0.33260
 Alpha virt. eigenvalues --    0.02639   0.05963   0.07236   0.08381   0.10693
 Alpha virt. eigenvalues --    0.10926   0.11822   0.13322   0.14024   0.15151
 Alpha virt. eigenvalues --    0.15783   0.16280   0.17086   0.19846   0.21008

 Mulliken charges:
               1
     1  C   -0.173818
     2  C   -0.518114
     3  H    0.035598
     4  H    0.091215
     5  H    0.033401
     6  C   -0.132247
     7  H    0.451949
     8  H    0.060659
     9  C   -0.443081
    10  H    0.150129
    11  H   -0.004051
    12  H    0.331908
    13  H    0.066075
    14  H    0.050376
 Sum of Mulliken charges =   0.00000

 Dipole moment (field-independent basis, Debye):
    X=              0.3444    Y=              0.2131    Z=             -0.4362  Tot=              0.5952
 Quadrupole moment (field-independent basis, Debye-Ang):
   XX=            -30.7159   YY=            -28.5406   ZZ=            -28.1138
   XY=             -0.8916   XZ=             -0.9890   YZ=              1.1972

 Normal termination of Gaussian 09 at Wed Aug 26 12:51:26 2020.
