 Gaussian 09, Revision D.01,
 Gaussian 09:  ES64L-G09RevD.01 24-Apr-2013

 --------------------
 #p B2PLYPD3/Def2QZVP
 --------------------

 ----------
 butane_opt
 ----------
 Symbolic Z-matrix:
 Charge =  0 Multiplicity = 1

                         Standard orientation:
 ---------------------------------------------------------------------
 Center     Atomic      Atomic             Coordinates (Angstroms)
 Number     Number       Type             X           Y           Z
 ---------------------------------------------------------------------
      1          6           0        1.999520   -0.138869   -0.143610
      2          6           0        0.519957    0.646531    0.177405
      3          1           0        2.768636    0.655061   -0.530104
      4          1           0        2.022693   -0.654680   -0.874861
      5          1           0        2.456511   -1.214176    0.986648
      6          6           0       -0.561083   -0.504185    0.062200
      7          1           0        0.026012    0.908733   -0.466624
      8          1           0        0.502961    1.523330    1.241249
      9          6           0       -1.970741    0.047153   -0.136524
     10          1           0       -0.691885   -1.290856    0.938840
     11          1           0       -0.359579   -0.945494   -0.703710
     12          1           0       -2.213084    0.505956    0.748126
     13          1           0       -2.602361   -0.628491   -0.006922
     14          1           0       -1.835825    0.836838   -1.089466
 ---------------------------------------------------------------------

 SCF Done:  E(RB2PLYPD3) =  -157.770508671     A.U. after   11 cycles
 E2(B2PLYPD3) =    -0.2534547017D+00 E(B2PLYPD3) =    -0.15802396337245D+03

 The electronic state is 1-A.
 Alpha  occ. eigenvalues --  -10.64757 -10.62948 -10.60206 -10.59241  -0.93767
 Alpha  occ. eigenvalues --   -0.83407  -0.76821  -0.69305  -0.54764  -0.50860
 Alpha  occ. eigenvalues --   -0.48331  -0.46185  -0.42834  -0.39424  -0.37794
 Alpha  occ. eigenvalues --   -0.36474  -0.35071
 Alpha virt. eigenvalues --    0.02672   0.05715   0.07594   0.08201   0.09611
 Alpha virt. eigenvalues --    0.10693   0.12222   0.12995   0.13993   0.15163
 Alpha virt. eigenvalues --    0.15700   0.16606   0.18266   0.19032   0.20328

 Mulliken charges:
               1
     1  C   -0.210366
     2  C   -0.251108
     3  H    0.045928
     4  H    0.127579
     5  H    0.012024
     6  C   -0.096286
     7  H    0.227698
     8  H    0.035110
     9  C   -0.156379
    10  H    0.003425
    11  H    0.117947
    12  H    0.045327
    13  H    0.057456
    14  H    0.041646
 Sum of Mulliken charges =   0.00000

 Dipole moment (field-independent basis, Debye):
    X=             -0.5886    Y=             -0.1360    Z=             -0.6667  Tot=              0.8997
 Quadrupole moment (field-independent basis, Debye-Ang):
   XX=            -30.6456   YY=            -29.3838   ZZ=            -28.4547
   XY=              0.6661   XZ=             -2.3696   YZ=              0.0588

 Normal termination of Gaussian 09 at Wed Aug 26 16:15:11 2020.
