 Gaussian 09, Revision D.01,
 Gaussian 09:  ES64L-G09RevD.01 24-Apr-2013

 --------------------
 #p B2PLYPD3/Def2QZVP
 --------------------

 ----------
 butane_opt
 ----------
 Symbolic Z-matrix:
 Charge =  0 Multiplicity = 1

                         Standard orientation:
 ---------------------------------------------------------------------
 Center     Atomic      Atomic             Coordinates (Angstroms)
 Number     Number       Type             X           Y           Z
 ---------------------------------------------------------------------
      1          6           0       -1.881170    0.129826   -0.114075
      2          6           0       -0.544720   -0.520062    0.122294
      3          1           0       -2.710740   -0.781690   -0.197226
      4          1           0       -1.874820    0.925981   -1.237023
      5          1           0       -2.227093    0.276360    0.441428
      6          6           0        0.489156    0.568034    0.218424
      7          1           0       -0.609527   -0.889460   -0.526206
      8          1           0       -0.629463   -1.111657    1.043045
      9          6           0        2.009970   -0.171909   -0.166569
     10          1           0        0.465509    1.676470    1.332547
     11          1           0        0.125343    0.791870   -0.469471
     12          1           0        2.462363   -0.828655    0.893765
     13          1           0        2.772272    0.499300   -0.897677
     14          1           0        1.786748   -0.593854   -0.743626
 ---------------------------------------------------------------------

 SCF Done:  E(RB2PLYPD3) =  -157.218390192     A.U. after   12 cycles
 E2(B2PLYPD3) =    -0.2541905048D+00 E(B2PLYPD3) =    -0.15747258069677D+03

 The electronic state is 1-A.
 Alpha  occ. eigenvalues --  -10.62577 -10.61800 -10.60540 -10.57954  -0.97766
 Alpha  occ. eigenvalues --   -0.86911  -0.80606  -0.73907  -0.58021  -0.49735
 Alpha  occ. eigenvalues --   -0.48823  -0.45261  -0.43246  -0.40127  -0.39302
 Alpha  occ. eigenvalues --   -0.36513  -0.34760
 Alpha virt. eigenvalues --    0.03910   0.05675   0.06036   0.07585   0.10095
 Alpha virt. eigenvalues --    0.10598   0.11898   0.12982   0.14091   0.15456
 Alpha virt. eigenvalues --    0.16303   0.16826   0.17553   0.18903   0.20272

 Mulliken charges:
               1
     1  C   -0.600270
     2  C   -0.393118
     3  H    0.020582
     4  H    0.051472
     5  H    0.437685
     6  C   -0.298278
     7  H    0.415071
     8  H    0.045572
     9  C   -0.521623
    10  H    0.016312
    11  H    0.328117
    12  H    0.064136
    13  H    0.041706
    14  H    0.392637
 Sum of Mulliken charges =   0.00000

 Dipole moment (field-independent basis, Debye):
    X=             -0.5157    Y=             -0.5285    Z=             -0.3860  Tot=              0.8332
 Quadrupole moment (field-independent basis, Debye-Ang):
   XX=            -30.4781   YY=            -29.6948   ZZ=            -27.3084
   XY=             -0.4262   XZ=             -1.2221   YZ=             -0.5707

 Normal termination of Gaussian 09 at Wed Aug 26 15:37:54 2020.
