 Gaussian 09, Revision D.01,
 Gaussian 09:  ES64L-G09RevD.01 24-Apr-2013

 --------------------
 #p B2PLYPD3/Def2QZVP
 --------------------

 ----------
 butane_opt
 ----------
 Symbolic Z-matrix:
 Charge =  0 Multiplicity = 1

                         Standard orientation:
 ---------------------------------------------------------------------
 Center     Atomic      Atomic             Coordinates (Angstroms)
 Number     Number       Type             X           Y           Z
 ---------------------------------------------------------------------
      1          6           0       -2.046109    0.167991    0.013669
      2          6           0       -0.558060   -0.690522   -0.007548
      3          1           0       -2.827742   -0.443028   -0.589310
      4          1           0       -1.873761    0.340250   -0.528190
      5          1           0       -2.471600    1.351884    1.361255
      6          6           0        0.664470    0.491571   -0.108314
      7          1           0       -0.406607   -0.981209   -0.587189
      8          1           0       -0.394556   -1.331310    0.916514
      9          6           0        1.927412   -0.044284    0.023116
     10          1           0        0.697627    1.012722    0.705430
     11          1           0        0.372228    1.179644   -1.211367
     12          1           0        2.228152   -0.786190    1.068444
     13          1           0        2.705481    0.738802    0.102963
     14          1           0        2.044501   -0.630099   -0.764087
 ---------------------------------------------------------------------

 SCF Done:  E(RB2PLYPD3) =  -157.061589531     A.U. after   12 cycles
 E2(B2PLYPD3) =    -0.2567811113D+00 E(B2PLYPD3) =    -0.15731837064257D+03

 The electronic state is 1-A.
 Alpha  occ. eigenvalues --  -10.63653 -10.61406 -10.60444 -10.60332  -0.94786
 Alpha  occ. eigenvalues --   -0.89874  -0.80860  -0.68151  -0.55004  -0.52536
 Alpha  occ. eigenvalues --   -0.47909  -0.46560  -0.42703  -0.39234  -0.38432
 Alpha  occ. eigenvalues --   -0.35792  -0.33463
 Alpha virt. eigenvalues --   -0.01474   0.05740   0.05961   0.07821   0.09678
 Alpha virt. eigenvalues --    0.10263   0.11283   0.12864   0.14300   0.15135
 Alpha virt. eigenvalues --    0.15563   0.17154   0.18389   0.18689   0.20100

 Mulliken charges:
               1
     1  C   -0.890713
     2  C   -0.625181
     3  H    0.073910
     4  H    0.743766
     5  H    0.046289
     6  C   -0.080235
     7  H    0.575203
     8  H    0.072732
     9  C   -0.131396
    10  H    0.084441
    11  H    0.007438
    12  H    0.013973
    13  H    0.054198
    14  H    0.055574
 Sum of Mulliken charges =   0.00000

 Dipole moment (field-independent basis, Debye):
    X=              0.5322    Y=              0.0119    Z=             -0.5431  Tot=              0.7605
 Quadrupole moment (field-independent basis, Debye-Ang):
   XX=            -30.7667   YY=            -29.1510   ZZ=            -27.2676
   XY=              0.1058   XZ=              1.4827   YZ=              1.0822

 Normal termination of Gaussian 09 at Wed Aug 26 21:45:09 2020.
