 Gaussian 09, Revision D.01,
 Gaussian 09:  ES64L-G09RevD.01 24-Apr-2013

 --------------------
 #p B2PLYPD3/Def2QZVP
 --------------------

 ----------
 butane_opt
 ----------
 Symbolic Z-matrix:
 Charge =  0 Multiplicity = 1

                         Standard orientation:
 ---------------------------------------------------------------------
 Center     Atomic      Atomic             Coordinates (Angstroms)
 Number     Number       Type             X           Y           Z
 ---------------------------------------------------------------------
      1          6           0        1.948985    0.073754    0.138237
      2          6           0        0.634067   -0.498542   -0.224600
      3          1           0        2.675058   -0.550139   -0.185996
      4          1           0        2.105757    0.961184    1.378985
      5          1           0        2.112212    0.347816   -0.324634
      6          6           0       -0.542300    0.611955   -0.189617
      7          1           0        0.571117   -1.186213    0.534349
      8          1           0        0.687682   -0.964605   -0.954671
      9          6           0       -2.012329   -0.270894    0.193543
     10          1           0       -0.714709    1.699893   -1.151891
     11          1           0       -0.349036    0.969295    0.590763
     12          1           0       -2.558365   -0.634241   -0.738898
     13          1           0       -2.832409    0.542909    0.418433
     14          1           0       -1.867845   -0.683538    0.928182
 ---------------------------------------------------------------------

 SCF Done:  E(RB2PLYPD3) =  -157.180992504     A.U. after   12 cycles
 E2(B2PLYPD3) =    -0.2516910099D+00 E(B2PLYPD3) =    -0.15743268351420D+03

 The electronic state is 1-A.
 Alpha  occ. eigenvalues --  -10.63165 -10.60056 -10.59599 -10.58130  -0.96458
 Alpha  occ. eigenvalues --   -0.86036  -0.78863  -0.71911  -0.55964  -0.52714
 Alpha  occ. eigenvalues --   -0.49222  -0.45595  -0.42259  -0.39759  -0.39275
 Alpha  occ. eigenvalues --   -0.37180  -0.34924
 Alpha virt. eigenvalues --    0.04332   0.05654   0.06985   0.07609   0.10483
 Alpha virt. eigenvalues --    0.11358   0.12354   0.13379   0.14399   0.14955
 Alpha virt. eigenvalues --    0.15855   0.16665   0.17968   0.19659   0.21587

 Mulliken charges:
               1
     1  C   -0.767454
     2  C   -0.019281
     3  H    0.031414
     4  H    0.036009
     5  H    0.609270
     6  C   -0.228987
     7  H    0.045974
     8  H    0.092367
     9  C   -0.235805
    10  H    0.020257
    11  H    0.183100
    12  H    0.066865
    13  H    0.015275
    14  H    0.150996
 Sum of Mulliken charges =   0.00000

 Dipole moment (field-independent basis, Debye):
    X=              0.2570    Y=             -0.2976    Z=             -0.2251  Tot=              0.4531
 Quadrupole moment (field-independent basis, Debye-Ang):
   XX=            -28.8029   YY=            -28.7439   ZZ=            -27.6550
   XY=             -0.4154   XZ=             -1.2721   YZ=              0.4284

 Normal termination of Gaussian 09 at Wed Aug 26 13:34:24 2020.
