 Gaussian 09, Revision D.01,
 Gaussian 09:  ES64L-G09RevD.01 24-Apr-2013

 --------------------
 #p B2PLYPD3/Def2QZVP
 --------------------

 ----------
 butane_opt
 ----------
 Symbolic Z-matrix:
 Charge =  0 Multiplicity = 1

                         Standard orientation:
 ---------------------------------------------------------------------
 Center     Atomic      Atomic             Coordinates (Angstroms)
 Number     Number       Type             X           Y           Z
 ---------------------------------------------------------------------
      1          6           0        1.938461   -0.152421    0.046501
      2          6           0        0.559930    0.532096   -0.085816
      3          1           0        2.716276    0.543442   -0.067441
      4          1           0        2.140930   -0.538383   -0.708498
      5          1           0        2.305666   -0.924228    1.052121
      6          6           0       -0.586879   -0.491310    0.008960
      7          1           0        0.460192    1.415966   -1.097781
      8          1           0        0.610504    1.142272    0.727763
      9          6           0       -1.968268    0.096105    0.042830
     10          1           0       -0.429197   -0.982450    0.790602
     11          1           0       -0.567498   -1.318252   -0.985004
     12          1           0       -2.284325    1.054231    1.121876
     13          1           0       -2.696626   -0.657286   -0.285267
     14          1           0       -1.915391    0.357871   -0.623223
 ---------------------------------------------------------------------

 SCF Done:  E(RB2PLYPD3) =  -157.705386906     A.U. after   11 cycles
 E2(B2PLYPD3) =    -0.2502764639D+00 E(B2PLYPD3) =    -0.15795566337019D+03

 The electronic state is 1-A.
 Alpha  occ. eigenvalues --  -10.62877 -10.61286 -10.59220 -10.59068  -0.93582
 Alpha  occ. eigenvalues --   -0.87165  -0.76785  -0.68144  -0.53844  -0.49254
 Alpha  occ. eigenvalues --   -0.47719  -0.47070  -0.42214  -0.40829  -0.39563
 Alpha  occ. eigenvalues --   -0.37275  -0.36248
 Alpha virt. eigenvalues --    0.05171   0.05814   0.06366   0.07315   0.10503
 Alpha virt. eigenvalues --    0.11495   0.12282   0.12630   0.14050   0.15676
 Alpha virt. eigenvalues --    0.16114   0.16436   0.18624   0.19414   0.21468

 Mulliken charges:
               1
     1  C   -0.188716
     2  C   -0.037325
     3  H    0.028890
     4  H    0.104233
     5  H    0.028851
     6  C   -0.028295
     7  H   -0.007836
     8  H    0.063912
     9  C   -0.589677
    10  H    0.089432
    11  H   -0.008800
    12  H    0.037937
    13  H    0.063062
    14  H    0.444334
 Sum of Mulliken charges =   0.00000

 Dipole moment (field-independent basis, Debye):
    X=              0.3167    Y=             -0.0443    Z=             -0.2364  Tot=              0.3977
 Quadrupole moment (field-independent basis, Debye-Ang):
   XX=            -29.4584   YY=            -29.2775   ZZ=            -28.1118
   XY=              0.4054   XZ=              0.6177   YZ=              0.3072

 Normal termination of Gaussian 09 at Wed Aug 26 23:30:21 2020.
