 Gaussian 09, Revision D.01,
 Gaussian 09:  ES64L-G09RevD.01 24-Apr-2013

 --------------------
 #p B2PLYPD3/Def2QZVP
 --------------------

 ----------
 butane_opt
 ----------
 Symbolic Z-matrix:
 Charge =  0 Multiplicity = 1

                         Standard orientation:
 ---------------------------------------------------------------------
 Center     Atomic      Atomic             Coordinates (Angstroms)
 Number     Number       Type             X           Y           Z
 ---------------------------------------------------------------------
      1          6           0        2.002393    0.136464    0.011197
      2          6           0        0.516857   -0.602192    0.090151
      3          1           0        2.698211   -0.580873   -0.820958
      4          1           0        2.810821    1.351183    1.149089
      5          1           0        1.772476    0.307659   -0.586161
      6          6           0       -0.596360    0.448043   -0.065360
      7          1           0        0.228315   -1.183135    0.966137
      8          1           0        0.218371   -1.438938   -0.796586
      9          6           0       -1.922623   -0.009459    0.063934
     10          1           0       -0.391070    1.363888   -1.151149
     11          1           0       -0.865698    0.942411    0.600636
     12          1           0       -2.067580   -0.490888   -0.718733
     13          1           0       -2.503412    0.567969   -0.154624
     14          1           0       -1.902036   -0.676410    0.912820
 ---------------------------------------------------------------------

 SCF Done:  E(RB2PLYPD3) =  -157.360391102     A.U. after   13 cycles
 E2(B2PLYPD3) =    -0.2588404857D+00 E(B2PLYPD3) =    -0.15761923158762D+03

 The electronic state is 1-A.
 Alpha  occ. eigenvalues --  -10.65152 -10.64171 -10.60061 -10.55469  -0.97145
 Alpha  occ. eigenvalues --   -0.90442  -0.77557  -0.70041  -0.56062  -0.54544
 Alpha  occ. eigenvalues --   -0.47478  -0.45127  -0.41173  -0.39178  -0.37315
 Alpha  occ. eigenvalues --   -0.35761  -0.34370
 Alpha virt. eigenvalues --   -0.02683   0.05175   0.06431   0.06949   0.10164
 Alpha virt. eigenvalues --    0.10349   0.12449   0.13108   0.13979   0.15560
 Alpha virt. eigenvalues --    0.15881   0.17175   0.17813   0.18824   0.19859

 Mulliken charges:
               1
     1  C   -0.819120
     2  C   -0.047102
     3  H    0.038141
     4  H    0.065998
     5  H    0.687291
     6  C   -0.104694
     7  H    0.046171
     8  H    0.030305
     9  C   -0.218098
    10  H   -0.035958
    11  H    0.152879
    12  H    0.036961
    13  H    0.101715
    14  H    0.065511
 Sum of Mulliken charges =   0.00000

 Dipole moment (field-independent basis, Debye):
    X=             -0.9822    Y=             -0.0194    Z=             -0.0485  Tot=              0.9836
 Quadrupole moment (field-independent basis, Debye-Ang):
   XX=            -30.1104   YY=            -29.4581   ZZ=            -28.1099
   XY=              0.9947   XZ=             -0.5240   YZ=              0.8966

 Normal termination of Gaussian 09 at Wed Aug 26 10:21:28 2020.
