 Gaussian 09, Revision D.01,
 Gaussian 09:  ES64L-G09RevD.01 24-Apr-2013

 --------------------
 #p B2PLYPD3/Def2QZVP
 --------------------

 ----------
 butane_opt
 ----------
 Symbolic Z-matrix:
 Charge =  0 Multiplicity = 1

                         Standard orientation:
 ---------------------------------------------------------------------
 Center     Atomic      Atomic             Coordinates (Angstroms)
 Number     Number       Type             X           Y           Z
 ---------------------------------------------------------------------
      1          6           0        1.893256    0.046711   -0.160412
      2          6           0        0.634389   -0.493183    0.075332
      3          1           0        2.609445   -0.563234   -0.303670
      4          1           0        1.967230    0.875532    0.860322
      5          1           0        1.871047    0.495666   -0.944287
      6          6           0       -0.488413    0.602308    0.201264
      7          1           0        0.740891   -1.435095    1.190506
      8          1           0        0.531181   -0.944506   -0.616122
      9          6           0       -2.015775   -0.174619   -0.127491
     10          1           0       -0.189658    1.242829   -0.546461
     11          1           0       -0.517256    1.472473    1.166226
     12          1           0       -1.937702   -0.427965   -0.823654
     13          1           0       -2.620564    0.489353   -0.771604
     14          1           0       -2.595354   -1.092357    0.856582
 ---------------------------------------------------------------------

 SCF Done:  E(RB2PLYPD3) =  -157.620332402     A.U. after   11 cycles
 E2(B2PLYPD3) =    -0.2526831720D+00 E(B2PLYPD3) =    -0.15787301557393D+03

 The electronic state is 1-A.
 Alpha  occ. eigenvalues --  -10.64619 -10.61299 -10.60666 -10.57769  -0.95197
 Alpha  occ. eigenvalues --   -0.87682  -0.77190  -0.69727  -0.55146  -0.53198
 Alpha  occ. eigenvalues --   -0.49010  -0.45614  -0.41062  -0.39241  -0.37785
 Alpha  occ. eigenvalues --   -0.37519  -0.34582
 Alpha virt. eigenvalues --    0.04269   0.05427   0.06968   0.08017   0.09357
 Alpha virt. eigenvalues --    0.11468   0.11561   0.12225   0.13322   0.15840
 Alpha virt. eigenvalues --    0.16531   0.17451   0.17899   0.19224   0.19969

 Mulliken charges:
               1
     1  C   -0.157978
     2  C   -0.169880
     3  H    0.048105
     4  H    0.029253
     5  H    0.062803
     6  C   -0.059656
     7  H   -0.027647
     8  H    0.204497
     9  C   -0.532176
    10  H    0.064401
    11  H    0.036619
    12  H    0.394500
    13  H    0.035866
    14  H    0.071292
 Sum of Mulliken charges =   0.00000

 Dipole moment (field-independent basis, Debye):
    X=              0.2016    Y=              0.0033    Z=             -1.4775  Tot=              1.4912
 Quadrupole moment (field-independent basis, Debye-Ang):
   XX=            -30.3948   YY=            -29.4981   ZZ=            -27.7106
   XY=             -0.0545   XZ=             -0.3654   YZ=              0.0830

 Normal termination of Gaussian 09 at Wed Aug 26 14:56:01 2020.
