 Gaussian 09, Revision D.01,
 Gaussian 09:  ES64L-G09RevD.01 24-Apr-2013

 --------------------
 #p B2PLYPD3/Def2QZVP
 --------------------

 ----------
 butane_opt
 ----------
 Symbolic Z-matrix:
 Charge =  0 Multiplicity = 1

                         Standard orientation:
 ---------------------------------------------------------------------
 Center     Atomic      Atomic             Coordinates (Angstroms)
 Number     Number       Type             X           Y           Z
 ---------------------------------------------------------------------
      1          6           0       -1.842715    0.133326   -0.145103
      2          6           0       -0.584910   -0.559717    0.068953
      3          1           0       -2.708862   -0.555645    0.101256
      4          1           0       -1.791759    0.814011   -1.112368
      5          1           0       -2.166532    0.470833    0.509728
      6          6           0        0.549444    0.540660    0.136836
      7          1           0       -0.405906   -0.991751   -0.707246
      8          1           0       -0.702023   -1.158006    1.029999
      9          6           0        1.918590   -0.161895   -0.118202
     10          1           0        0.255014    1.636135    1.451311
     11          1           0        0.247642    0.775333   -0.416722
     12          1           0        2.545261   -0.919226    0.930415
     13          1           0        2.750616    0.696684   -0.754470
     14          1           0        1.734099   -0.482611   -0.686806
 ---------------------------------------------------------------------

 SCF Done:  E(RB2PLYPD3) =  -157.225256379     A.U. after   12 cycles
 E2(B2PLYPD3) =    -0.2544703775D+00 E(B2PLYPD3) =    -0.15747972675651D+03

 The electronic state is 1-A.
 Alpha  occ. eigenvalues --  -10.63306 -10.62685 -10.59768 -10.57942  -0.98032
 Alpha  occ. eigenvalues --   -0.89163  -0.80583  -0.72664  -0.57089  -0.51432
 Alpha  occ. eigenvalues --   -0.50536  -0.47535  -0.43337  -0.40499  -0.40018
 Alpha  occ. eigenvalues --   -0.34641  -0.33691
 Alpha virt. eigenvalues --    0.02127   0.05109   0.06295   0.08064   0.09281
 Alpha virt. eigenvalues --    0.09998   0.11653   0.13463   0.14583   0.14980
 Alpha virt. eigenvalues --    0.15487   0.16453   0.17852   0.18919   0.20877

 Mulliken charges:
               1
     1  C   -0.298898
     2  C   -0.064778
     3  H    0.018045
     4  H    0.049132
     5  H    0.195115
     6  C   -0.620852
     7  H    0.117432
     8  H    0.026752
     9  C   -0.691534
    10  H   -0.039457
    11  H    0.626552
    12  H    0.072237
    13  H    0.039206
    14  H    0.571048
 Sum of Mulliken charges =   0.00000

 Dipole moment (field-independent basis, Debye):
    X=             -0.5329    Y=             -0.7702    Z=             -0.5527  Tot=              1.0875
 Quadrupole moment (field-independent basis, Debye-Ang):
   XX=            -29.7227   YY=            -30.4148   ZZ=            -27.8893
   XY=             -1.1131   XZ=             -1.6760   YZ=             -1.3954

 Normal termination of Gaussian 09 at Wed Aug 26 19:50:22 2020.
