 Gaussian 09, Revision D.01,
 Gaussian 09:  ES64L-G09RevD.01 24-Apr-2013

 --------------------
 #p B2PLYPD3/Def2QZVP
 --------------------

 ----------
 butane_opt
 ----------
 Symbolic Z-matrix:
 Charge =  0 Multiplicity = 1

                         Standard orientation:
 ---------------------------------------------------------------------
 Center     Atomic      Atomic             Coordinates (Angstroms)
 Number     Number       Type             X           Y           Z
 ---------------------------------------------------------------------
      1          6           0       -1.907014    0.071274   -0.171106
      2          6           0       -0.668367   -0.446890    0.281214
      3          1           0       -2.696183   -0.817642   -0.808672
      4          1           0       -1.421463    0.624599   -1.159565
      5          1           0       -2.552329    0.744499    0.607049
      6          6           0        0.530364    0.602713    0.118775
      7          1           0       -0.367430   -1.075435   -0.313388
      8          1           0       -0.665571   -1.220709    1.429467
      9          6           0        1.934026   -0.196651   -0.101476
     10          1           0        0.501921    1.410357    0.999729
     11          1           0        0.393394    1.207920   -0.847756
     12          1           0        2.410280   -0.247647    0.583940
     13          1           0        2.693919    0.286951   -0.231141
     14          1           0        2.369405   -1.095567   -1.024107
 ---------------------------------------------------------------------

 SCF Done:  E(RB2PLYPD3) =  -157.787595074     A.U. after   11 cycles
 E2(B2PLYPD3) =    -0.2543205265D+00 E(B2PLYPD3) =    -0.15804191560007D+03

 The electronic state is 1-A.
 Alpha  occ. eigenvalues --  -10.65030 -10.64692 -10.61410 -10.58470  -0.92558
 Alpha  occ. eigenvalues --   -0.88679  -0.74671  -0.66248  -0.52694  -0.49720
 Alpha  occ. eigenvalues --   -0.46911  -0.45903  -0.42169  -0.41187  -0.36925
 Alpha  occ. eigenvalues --   -0.36053  -0.34433
 Alpha virt. eigenvalues --    0.05088   0.05291   0.06643   0.07784   0.09771
 Alpha virt. eigenvalues --    0.10401   0.11764   0.13317   0.14352   0.15181
 Alpha virt. eigenvalues --    0.15996   0.16993   0.18425   0.18512   0.20936

 Mulliken charges:
               1
     1  C   -0.174771
     2  C   -0.086188
     3  H    0.026986
     4  H    0.042432
     5  H    0.067287
     6  C   -0.044458
     7  H    0.139593
     8  H   -0.008544
     9  C   -0.312117
    10  H    0.030175
    11  H    0.036192
    12  H    0.153647
    13  H    0.096429
    14  H    0.033338
 Sum of Mulliken charges =   0.00000

 Dipole moment (field-independent basis, Debye):
    X=              0.7856    Y=              0.4922    Z=             -0.1525  Tot=              0.9395
 Quadrupole moment (field-independent basis, Debye-Ang):
   XX=            -28.0341   YY=            -30.1376   ZZ=            -29.2605
   XY=              0.3237   XZ=             -0.2582   YZ=              1.3420

 Normal termination of Gaussian 09 at Wed Aug 26 20:41:12 2020.
