 Gaussian 09, Revision D.01,
 Gaussian 09:  ES64L-G09RevD.01 24-Apr-2013

 --------------------
 #p B2PLYPD3/Def2QZVP
 --------------------

 ----------
 butane_opt
 ----------
 Symbolic Z-matrix:
 Charge =  0 Multiplicity = 1

                         Standard orientation:
 ---------------------------------------------------------------------
 Center     Atomic      Atomic             Coordinates (Angstroms)
 Number     Number       Type             X           Y           Z
 ---------------------------------------------------------------------
      1          6           0       -1.911891    0.097101   -0.110380
      2          6           0       -0.579124   -0.425034    0.180135
      3          1           0       -2.807074   -0.832564   -0.481129
      4          1           0       -1.806984    0.520483   -0.916650
      5          1           0       -2.227620    0.867118    0.801862
      6          6           0        0.501292    0.522255    0.017577
      7          1           0       -0.376764   -1.055439   -0.561601
      8          1           0       -0.521183   -1.177108    1.240970
      9          6           0        1.963940   -0.141232   -0.095487
     10          1           0        0.495186    1.338234    0.920271
     11          1           0        0.432212    1.059895   -0.786035
     12          1           0        2.082628   -0.770292    0.848420
     13          1           0        2.696453    0.640990   -0.021560
     14          1           0        2.187849   -0.909854   -0.995614
 ---------------------------------------------------------------------

 SCF Done:  E(RB2PLYPD3) =  -157.990386930     A.U. after   11 cycles
 E2(B2PLYPD3) =    -0.2493446707D+00 E(B2PLYPD3) =    -0.15823973160076D+03

 The electronic state is 1-A.
 Alpha  occ. eigenvalues --  -10.62064 -10.61656 -10.61069 -10.60625  -0.93713
 Alpha  occ. eigenvalues --   -0.83114  -0.72972  -0.66989  -0.54912  -0.50715
 Alpha  occ. eigenvalues --   -0.47839  -0.46827  -0.42522  -0.40695  -0.37910
 Alpha  occ. eigenvalues --   -0.37840  -0.36180
 Alpha virt. eigenvalues --    0.04946   0.06348   0.07877   0.08000   0.10747
 Alpha virt. eigenvalues --    0.11142   0.12497   0.13384   0.14441   0.14573
 Alpha virt. eigenvalues --    0.15365   0.16282   0.19298   0.19961   0.20878

 Mulliken charges:
               1
     1  C   -0.201332
     2  C   -0.033597
     3  H    0.022984
     4  H    0.104805
     5  H    0.042327
     6  C   -0.047223
     7  H    0.066361
     8  H    0.005029
     9  C   -0.157928
    10  H   -0.002264
    11  H    0.061362
    12  H    0.044458
    13  H    0.061143
    14  H    0.033876
 Sum of Mulliken charges =   0.00000

 Dipole moment (field-independent basis, Debye):
    X=              0.2891    Y=              0.2070    Z=             -0.5550  Tot=              0.6591
 Quadrupole moment (field-independent basis, Debye-Ang):
   XX=            -31.0555   YY=            -29.2336   ZZ=            -28.5027
   XY=              0.1961   XZ=              0.3882   YZ=              0.4090

 Normal termination of Gaussian 09 at Wed Aug 26 22:13:53 2020.
