 Gaussian 09, Revision D.01,
 Gaussian 09:  ES64L-G09RevD.01 24-Apr-2013

 --------------------
 #p B2PLYPD3/Def2QZVP
 --------------------

 ----------
 butane_opt
 ----------
 Symbolic Z-matrix:
 Charge =  0 Multiplicity = 1

                         Standard orientation:
 ---------------------------------------------------------------------
 Center     Atomic      Atomic             Coordinates (Angstroms)
 Number     Number       Type             X           Y           Z
 ---------------------------------------------------------------------
      1          6           0        1.993021    0.134066   -0.181986
      2          6           0        0.508512   -0.637196    0.224495
      3          1           0        2.653993   -0.512643   -0.543536
      4          1           0        2.803542    1.028489    0.883792
      5          1           0        1.803803    0.688163   -0.949654
      6          6           0       -0.644337    0.509758    0.055396
      7          1           0        0.361628   -1.374859    1.225317
      8          1           0        0.569435   -1.036877   -0.329013
      9          6           0       -1.942013   -0.070168   -0.118912
     10          1           0       -0.434684    1.008975   -0.702270
     11          1           0       -0.598187    1.536035    1.132806
     12          1           0       -1.813573   -0.989245   -1.155357
     13          1           0       -2.836925    0.660486   -0.175537
     14          1           0       -2.000129   -0.627283    0.739490
 ---------------------------------------------------------------------

 SCF Done:  E(RB2PLYPD3) =  -157.621498599     A.U. after   11 cycles
 E2(B2PLYPD3) =    -0.2531816014D+00 E(B2PLYPD3) =    -0.15787468020078D+03

 The electronic state is 1-A.
 Alpha  occ. eigenvalues --  -10.63352 -10.63085 -10.62796 -10.61727  -0.93249
 Alpha  occ. eigenvalues --   -0.85760  -0.75758  -0.69335  -0.54842  -0.50058
 Alpha  occ. eigenvalues --   -0.49192  -0.45431  -0.43946  -0.40569  -0.38471
 Alpha  occ. eigenvalues --   -0.35325  -0.34497
 Alpha virt. eigenvalues --    0.03634   0.05085   0.05349   0.07964   0.09436
 Alpha virt. eigenvalues --    0.10768   0.11774   0.12246   0.14562   0.14909
 Alpha virt. eigenvalues --    0.15408   0.16334   0.18126   0.19283   0.20287

 Mulliken charges:
               1
     1  C   -0.174785
     2  C   -0.601028
     3  H    0.061649
     4  H   -0.003215
     5  H    0.087462
     6  C   -0.047583
     7  H    0.062285
     8  H    0.534152
     9  C   -0.151246
    10  H    0.103876
    11  H   -0.015976
    12  H    0.005324
    13  H    0.064329
    14  H    0.074757
 Sum of Mulliken charges =   0.00000

 Dipole moment (field-independent basis, Debye):
    X=             -0.3913    Y=             -0.5383    Z=             -0.8682  Tot=              1.0939
 Quadrupole moment (field-independent basis, Debye-Ang):
   XX=            -30.9961   YY=            -29.4014   ZZ=            -28.9631
   XY=             -1.5947   XZ=             -2.0032   YZ=             -0.5842

 Normal termination of Gaussian 09 at Wed Aug 26 10:51:24 2020.
