 Gaussian 09, Revision D.01,
 Gaussian 09:  ES64L-G09RevD.01 24-Apr-2013

 --------------------
 #p B2PLYPD3/Def2QZVP
 --------------------

 ----------
 butane_opt
 ----------
 Symbolic Z-matrix:
 Charge =  0 Multiplicity = 1

                         Standard orientation:
 ---------------------------------------------------------------------
 Center     Atomic      Atomic             Coordinates (Angstroms)
 Number     Number       Type             X           Y           Z
 ---------------------------------------------------------------------
      1          6           0       -2.070228    0.148598   -0.005773
      2          6           0       -0.574370   -0.582756    0.019321
      3          1           0       -2.904005   -0.517083   -0.664855
      4          1           0       -1.889263    0.243830   -0.542706
      5          1           0       -2.610455    1.449898    1.332072
      6          6           0        0.666974    0.523641   -0.134888
      7          1           0       -0.293281   -1.368666   -0.735520
      8          1           0       -0.361055   -1.116868    0.955065
      9          6           0        1.927828   -0.093129    0.156173
     10          1           0        0.439707    0.804346    0.417953
     11          1           0        0.935469    1.155345   -1.083599
     12          1           0        2.200605   -0.717734    1.094906
     13          1           0        2.845258    0.804377   -0.329204
     14          1           0        1.935794   -0.715575   -0.653106
 ---------------------------------------------------------------------

 SCF Done:  E(RB2PLYPD3) =  -156.950814141     A.U. after   13 cycles
 E2(B2PLYPD3) =    -0.2605744332D+00 E(B2PLYPD3) =    -0.15721138857447D+03

 The electronic state is 1-A.
 Alpha  occ. eigenvalues --  -10.65384 -10.64169 -10.62084 -10.58166  -0.95671
 Alpha  occ. eigenvalues --   -0.90973  -0.75768  -0.70998  -0.56787  -0.48190
 Alpha  occ. eigenvalues --   -0.46570  -0.45379  -0.42647  -0.40932  -0.39101
 Alpha  occ. eigenvalues --   -0.35086  -0.33119
 Alpha virt. eigenvalues --   -0.03834   0.04699   0.06040   0.07486   0.10076
 Alpha virt. eigenvalues --    0.10791   0.11208   0.12486   0.14413   0.15139
 Alpha virt. eigenvalues --    0.15290   0.16735   0.17620   0.18607   0.19222

 Mulliken charges:
               1
     1  C   -0.976267
     2  C   -0.054191
     3  H    0.070938
     4  H    0.817430
     5  H    0.047292
     6  C   -0.689997
     7  H    0.046190
     8  H    0.051683
     9  C   -0.132732
    10  H    0.595497
    11  H    0.077608
    12  H    0.059720
    13  H    0.009617
    14  H    0.077212
 Sum of Mulliken charges =   0.00000

 Dipole moment (field-independent basis, Debye):
    X=              0.2665    Y=             -0.1229    Z=             -0.5263  Tot=              0.6026
 Quadrupole moment (field-independent basis, Debye-Ang):
   XX=            -32.2929   YY=            -29.1297   ZZ=            -27.4297
   XY=             -0.7588   XZ=              0.5206   YZ=              0.4077

 Normal termination of Gaussian 09 at Wed Aug 26 21:46:32 2020.
