 Gaussian 09, Revision D.01,
 Gaussian 09:  ES64L-G09RevD.01 24-Apr-2013

 --------------------
 #p B2PLYPD3/Def2QZVP
 --------------------

 ----------
 butane_opt
 ----------
 Symbolic Z-matrix:
 Charge =  0 Multiplicity = 1

                         Standard orientation:
 ---------------------------------------------------------------------
 Center     Atomic      Atomic             Coordinates (Angstroms)
 Number     Number       Type             X           Y           Z
 ---------------------------------------------------------------------
      1          6           0        2.001347    0.164223    0.021609
      2          6           0        0.602056   -0.556396    0.038166
      3          1           0        2.666054   -0.620335   -0.532843
      4          1           0        2.519216    1.597903    1.159085
      5          1           0        1.967334    0.122010   -0.485880
      6          6           0       -0.657944    0.375125   -0.208855
      7          1           0        0.169286   -1.167947    1.050957
      8          1           0        0.557899   -1.161450   -0.639376
      9          6           0       -1.984347   -0.033861    0.100956
     10          1           0       -0.729388    1.081677   -1.185710
     11          1           0       -0.406628    1.045348    0.493068
     12          1           0       -1.778541   -0.616560   -0.595689
     13          1           0       -2.704823    0.712121    0.044768
     14          1           0       -2.027088   -0.687320    0.980368
 ---------------------------------------------------------------------

 SCF Done:  E(RB2PLYPD3) =  -156.887222974     A.U. after   13 cycles
 E2(B2PLYPD3) =    -0.2596888226D+00 E(B2PLYPD3) =    -0.15714691179619D+03

 The electronic state is 1-A.
 Alpha  occ. eigenvalues --  -10.66866 -10.62823 -10.59986 -10.56502  -0.98860
 Alpha  occ. eigenvalues --   -0.92812  -0.78386  -0.67455  -0.56519  -0.53488
 Alpha  occ. eigenvalues --   -0.48887  -0.46036  -0.41265  -0.40134  -0.37499
 Alpha  occ. eigenvalues --   -0.35251  -0.32891
 Alpha virt. eigenvalues --   -0.03562   0.05212   0.06724   0.07667   0.10526
 Alpha virt. eigenvalues --    0.10778   0.12271   0.13141   0.14385   0.15164
 Alpha virt. eigenvalues --    0.15919   0.17196   0.18558   0.18942   0.19767

 Mulliken charges:
               1
     1  C   -1.082207
     2  C   -0.058507
     3  H    0.036714
     4  H    0.078527
     5  H    0.928936
     6  C   -0.045259
     7  H    0.019974
     8  H    0.093152
     9  C   -0.193979
    10  H   -0.000425
    11  H    0.037759
    12  H    0.086993
    13  H    0.066700
    14  H    0.031623
 Sum of Mulliken charges =   0.00000

 Dipole moment (field-independent basis, Debye):
    X=              0.0549    Y=              0.1345    Z=             -0.6228  Tot=              0.6395
 Quadrupole moment (field-independent basis, Debye-Ang):
   XX=            -30.4099   YY=            -28.4898   ZZ=            -27.9298
   XY=             -0.1986   XZ=             -1.5873   YZ=              1.7568

 Normal termination of Gaussian 09 at Wed Aug 26 23:30:49 2020.
