 Gaussian 09, Revision D.01,
 Gaussian 09:  ES64L-G09RevD.01 24-Apr-2013

 --------------------
 #p B2PLYPD3/Def2QZVP
 --------------------

 ----------
 butane_opt
 ----------
 Symbolic Z-matrix:
 Charge =  0 Multiplicity = 1

                         Standard orientation:
 ---------------------------------------------------------------------
 Center     Atomic      Atomic             Coordinates (Angstroms)
 Number     Number       Type             X           Y           Z
 ---------------------------------------------------------------------
      1          6           0        1.925847   -0.160176   -0.096468
      2          6           0        0.512807    0.542836    0.127809
      3          1           0        2.774758    0.546657   -0.245580
      4          1           0        2.010125   -0.761821   -0.939951
      5          1           0        2.298974   -0.773807    0.810792
      6          6           0       -0.566477   -0.419334    0.067876
      7          1           0        0.385499    1.097196   -0.662597
      8          1           0        0.543290    1.172344    0.996561
      9          6           0       -1.913001    0.084720   -0.113061
     10          1           0       -0.507502   -1.232943    1.094769
     11          1           0       -0.427370   -0.927260   -0.807575
     12          1           0       -2.052013    0.725342    0.805007
     13          1           0       -2.788091   -0.830778   -0.010021
     14          1           0       -1.992724    0.696790   -0.958338
 ---------------------------------------------------------------------

 SCF Done:  E(RB2PLYPD3) =  -158.052882155     A.U. after   11 cycles
 E2(B2PLYPD3) =    -0.2476087250D+00 E(B2PLYPD3) =    -0.15830049087989D+03

 The electronic state is 1-A.
 Alpha  occ. eigenvalues --  -10.61160 -10.60621 -10.60435 -10.59391  -0.93559
 Alpha  occ. eigenvalues --   -0.83229  -0.73535  -0.66320  -0.55898  -0.49521
 Alpha  occ. eigenvalues --   -0.49343  -0.47496  -0.42662  -0.41358  -0.38822
 Alpha  occ. eigenvalues --   -0.37161  -0.36556
 Alpha virt. eigenvalues --    0.05404   0.06693   0.07916   0.08604   0.10636
 Alpha virt. eigenvalues --    0.11726   0.12729   0.13510   0.14631   0.15172
 Alpha virt. eigenvalues --    0.15660   0.16243   0.19801   0.20092   0.22201

 Mulliken charges:
               1
     1  C   -0.126739
     2  C   -0.063013
     3  H    0.027352
     4  H    0.047548
     5  H    0.031479
     6  C   -0.045704
     7  H    0.058511
     8  H    0.037214
     9  C   -0.158597
    10  H   -0.002859
    11  H    0.060606
    12  H    0.033317
    13  H    0.042255
    14  H    0.058630
 Sum of Mulliken charges =   0.00000

 Dipole moment (field-independent basis, Debye):
    X=              0.1225    Y=              0.3216    Z=             -0.4008  Tot=              0.5283
 Quadrupole moment (field-independent basis, Debye-Ang):
   XX=            -30.1351   YY=            -29.4388   ZZ=            -28.0584
   XY=              0.2367   XZ=              0.0367   YZ=              0.0193

 Normal termination of Gaussian 09 at Wed Aug 26 22:51:10 2020.
