 Gaussian 09, Revision D.01,
 Gaussian 09:  ES64L-G09RevD.01 24-Apr-2013

 --------------------
 #p B2PLYPD3/Def2QZVP
 --------------------

 ----------
 butane_opt
 ----------
 Symbolic Z-matrix:
 Charge =  0 Multiplicity = 1

                         Standard orientation:
 ---------------------------------------------------------------------
 Center     Atomic      Atomic             Coordinates (Angstroms)
 Number     Number       Type             X           Y           Z
 ---------------------------------------------------------------------
      1          6           0        1.921056   -0.130395    0.009656
      2          6           0        0.492849    0.539626   -0.003012
      3          1           0        2.625126    0.489234   -0.327608
      4          1           0        1.927236   -0.495222   -0.756489
      5          1           0        2.454009   -0.984602    1.080818
      6          6           0       -0.578339   -0.472082   -0.041745
      7          1           0        0.321820    1.311532   -0.975670
      8          1           0        0.496084    1.205377    0.919167
      9          6           0       -1.874346    0.075490    0.026704
     10          1           0       -0.414090   -0.982400    0.789611
     11          1           0       -0.313400   -1.195132   -0.939698
     12          1           0       -2.005306    0.825153    1.011949
     13          1           0       -2.768662   -0.789398   -0.099123
     14          1           0       -2.090145    0.539619   -0.652573
 ---------------------------------------------------------------------

 SCF Done:  E(RB2PLYPD3) =  -157.867011561     A.U. after   11 cycles
 E2(B2PLYPD3) =    -0.2497633348D+00 E(B2PLYPD3) =    -0.15811677489574D+03

 The electronic state is 1-A.
 Alpha  occ. eigenvalues --  -10.63033 -10.59594 -10.59547 -10.59258  -0.93991
 Alpha  occ. eigenvalues --   -0.86390  -0.75943  -0.66897  -0.55152  -0.51046
 Alpha  occ. eigenvalues --   -0.48791  -0.45942  -0.42587  -0.40549  -0.38524
 Alpha  occ. eigenvalues --   -0.37513  -0.36308
 Alpha virt. eigenvalues --    0.05079   0.05563   0.07437   0.07663   0.10341
 Alpha virt. eigenvalues --    0.11464   0.12258   0.13016   0.14491   0.15726
 Alpha virt. eigenvalues --    0.16018   0.16786   0.19200   0.19418   0.20992

 Mulliken charges:
               1
     1  C   -0.269422
     2  C   -0.035235
     3  H    0.050151
     4  H    0.155289
     5  H    0.034383
     6  C   -0.011161
     7  H    0.002302
     8  H    0.031550
     9  C   -0.244832
    10  H    0.074552
    11  H    0.014315
    12  H    0.037739
    13  H    0.022748
    14  H    0.137621
 Sum of Mulliken charges =   0.00000

 Dipole moment (field-independent basis, Debye):
    X=              0.1234    Y=              0.0941    Z=             -0.4707  Tot=              0.4957
 Quadrupole moment (field-independent basis, Debye-Ang):
   XX=            -29.9257   YY=            -29.5502   ZZ=            -28.0423
   XY=             -0.3199   XZ=             -0.0452   YZ=             -0.1116

 Normal termination of Gaussian 09 at Wed Aug 26 09:27:07 2020.
