 Gaussian 09, Revision D.01,
 Gaussian 09:  ES64L-G09RevD.01 24-Apr-2013

 --------------------
 #p B2PLYPD3/Def2QZVP
 --------------------

 ----------
 butane_opt
 ----------
 Symbolic Z-matrix:
 Charge =  0 Multiplicity = 1

                         Standard orientation:
 ---------------------------------------------------------------------
 Center     Atomic      Atomic             Coordinates (Angstroms)
 Number     Number       Type             X           Y           Z
 ---------------------------------------------------------------------
      1          6           0       -1.917067   -0.084275    0.137023
      2          6           0       -0.587710    0.407626   -0.193641
      3          1           0       -2.871142    0.800253    0.135202
      4          1           0       -1.742565   -0.609209    1.183522
      5          1           0       -2.019765   -0.666552   -0.611325
      6          6           0        0.486784   -0.527247   -0.097101
      7          1           0       -0.538258    0.953809    0.472808
      8          1           0       -0.571929    1.236406   -1.351723
      9          6           0        2.026659    0.137829    0.130046
     10          1           0        0.592707   -1.201755   -1.017600
     11          1           0        0.223787   -1.262127    1.043907
     12          1           0        2.004621    0.301559   -0.503826
     13          1           0        2.574280   -0.379828   -0.518956
     14          1           0        2.296271    1.223846    1.310024
 ---------------------------------------------------------------------

 SCF Done:  E(RB2PLYPD3) =  -157.413671654     A.U. after   12 cycles
 E2(B2PLYPD3) =    -0.2575672208D+00 E(B2PLYPD3) =    -0.15767123887450D+03

 The electronic state is 1-A.
 Alpha  occ. eigenvalues --  -10.65659 -10.61183 -10.60742 -10.59995  -0.97825
 Alpha  occ. eigenvalues --   -0.92888  -0.76517  -0.67441  -0.54138  -0.49450
 Alpha  occ. eigenvalues --   -0.48631  -0.45332  -0.40858  -0.39360  -0.38097
 Alpha  occ. eigenvalues --   -0.35918  -0.33714
 Alpha virt. eigenvalues --    0.01598   0.04948   0.05613   0.06483   0.09871
 Alpha virt. eigenvalues --    0.10394   0.11966   0.12394   0.14131   0.15415
 Alpha virt. eigenvalues --    0.15607   0.16407   0.17289   0.19571   0.20222

 Mulliken charges:
               1
     1  C   -0.155491
     2  C   -0.169088
     3  H    0.032803
     4  H    0.050995
     5  H    0.086220
     6  C   -0.054866
     7  H    0.183386
     8  H   -0.023294
     9  C   -0.785626
    10  H    0.039585
    11  H    0.004124
    12  H    0.672529
    13  H    0.041047
    14  H    0.077675
 Sum of Mulliken charges =   0.00000

 Dipole moment (field-independent basis, Debye):
    X=              0.0783    Y=              0.3590    Z=             -0.5260  Tot=              0.6417
 Quadrupole moment (field-independent basis, Debye-Ang):
   XX=            -30.9640   YY=            -30.3545   ZZ=            -27.5522
   XY=              0.4798   XZ=             -1.8987   YZ=              1.9447

 Normal termination of Gaussian 09 at Wed Aug 26 14:49:52 2020.
