 Gaussian 09, Revision D.01,
 Gaussian 09:  ES64L-G09RevD.01 24-Apr-2013

 --------------------
 #p B2PLYPD3/Def2QZVP
 --------------------

 ----------
 butane_opt
 ----------
 Symbolic Z-matrix:
 Charge =  0 Multiplicity = 1

                         Standard orientation:
 ---------------------------------------------------------------------
 Center     Atomic      Atomic             Coordinates (Angstroms)
 Number     Number       Type             X           Y           Z
 ---------------------------------------------------------------------
      1          6           0       -1.949102   -0.148687   -0.125519
      2          6           0       -0.531744    0.557363    0.116314
      3          1           0       -2.536313    0.513684   -0.012669
      4          1           0       -1.813244   -0.755790    0.716712
      5          1           0       -2.167183   -0.651497   -1.050416
      6          6           0        0.576919   -0.498966    0.170604
      7          1           0       -0.344523    1.388159    1.158884
      8          1           0       -0.241255    1.113456   -0.695497
      9          6           0        1.832771    0.087136   -0.174359
     10          1           0        0.328877   -1.041241   -0.592027
     11          1           0        0.594873   -1.420288    1.227066
     12          1           0        1.693879    0.671042   -1.134423
     13          1           0        2.690789   -0.683040   -0.389878
     14          1           0        2.221032    0.884440    0.850010
 ---------------------------------------------------------------------

 SCF Done:  E(RB2PLYPD3) =  -157.949458191     A.U. after   11 cycles
 E2(B2PLYPD3) =    -0.2511871431D+00 E(B2PLYPD3) =    -0.15820064533380D+03

 The electronic state is 1-A.
 Alpha  occ. eigenvalues --  -10.63413 -10.62954 -10.61523 -10.57846  -0.93095
 Alpha  occ. eigenvalues --   -0.84691  -0.72604  -0.65582  -0.53921  -0.52405
 Alpha  occ. eigenvalues --   -0.49749  -0.47240  -0.42707  -0.40046  -0.37737
 Alpha  occ. eigenvalues --   -0.36590  -0.35435
 Alpha virt. eigenvalues --    0.04806   0.06705   0.06848   0.07827   0.10802
 Alpha virt. eigenvalues --    0.11100   0.12452   0.13955   0.14379   0.14891
 Alpha virt. eigenvalues --    0.15487   0.16320   0.18868   0.19776   0.20556

 Mulliken charges:
               1
     1  C   -0.196654
     2  C   -0.079095
     3  H    0.097824
     4  H    0.074014
     5  H    0.040017
     6  C   -0.065319
     7  H    0.008012
     8  H    0.062862
     9  C   -0.163182
    10  H    0.105581
    11  H   -0.006826
    12  H    0.054592
    13  H    0.048556
    14  H    0.019617
 Sum of Mulliken charges =   0.00000

 Dipole moment (field-independent basis, Debye):
    X=             -0.3055    Y=             -0.1386    Z=             -0.8156  Tot=              0.8819
 Quadrupole moment (field-independent basis, Debye-Ang):
   XX=            -30.3420   YY=            -29.8022   ZZ=            -28.4351
   XY=             -0.6752   XZ=              0.1826   YZ=              0.1829

 Normal termination of Gaussian 09 at Wed Aug 26 09:45:27 2020.
