 Gaussian 09, Revision D.01,
 Gaussian 09:  ES64L-G09RevD.01 24-Apr-2013

 --------------------
 #p B2PLYPD3/Def2QZVP
 --------------------

 ----------
 butane_opt
 ----------
 Symbolic Z-matrix:
 Charge =  0 Multiplicity = 1

                         Standard orientation:
 ---------------------------------------------------------------------
 Center     Atomic      Atomic             Coordinates (Angstroms)
 Number     Number       Type             X           Y           Z
 ---------------------------------------------------------------------
      1          6           0        1.885270   -0.108749   -0.128875
      2          6           0        0.596801    0.479212    0.147143
      3          1           0        2.676406    0.678784   -0.346165
      4          1           0        1.753666   -0.637295   -1.023404
      5          1           0        2.204349   -0.695430    0.761453
      6          6           0       -0.507825   -0.565404    0.150278
      7          1           0        0.281924    1.086182   -0.634081
      8          1           0        0.566915    1.237400    1.046527
      9          6           0       -1.968959    0.141293   -0.092181
     10          1           0       -0.354084   -1.060585    0.944922
     11          1           0       -0.332801   -1.203901   -0.696191
     12          1           0       -2.158801    0.622791    0.718737
     13          1           0       -2.724090   -0.547991   -0.243759
     14          1           0       -1.945205    0.841933   -0.986225
 ---------------------------------------------------------------------

 SCF Done:  E(RB2PLYPD3) =  -158.069455277     A.U. after   11 cycles
 E2(B2PLYPD3) =    -0.2459581641D+00 E(B2PLYPD3) =    -0.15831541344071D+03

 The electronic state is 1-A.
 Alpha  occ. eigenvalues --  -10.59414 -10.59283 -10.58899 -10.58795  -0.92326
 Alpha  occ. eigenvalues --   -0.83356  -0.74343  -0.67165  -0.55581  -0.49980
 Alpha  occ. eigenvalues --   -0.48871  -0.48085  -0.43674  -0.42863  -0.38373
 Alpha  occ. eigenvalues --   -0.38055  -0.36381
 Alpha virt. eigenvalues --    0.05954   0.07055   0.08201   0.09101   0.11095
 Alpha virt. eigenvalues --    0.12202   0.12964   0.13847   0.15129   0.15703
 Alpha virt. eigenvalues --    0.16482   0.16649   0.19351   0.19823   0.22262

 Mulliken charges:
               1
     1  C   -0.146788
     2  C   -0.035018
     3  H    0.033304
     4  H    0.054300
     5  H    0.044209
     6  C   -0.082989
     7  H    0.036015
     8  H    0.008415
     9  C   -0.151610
    10  H    0.064031
    11  H    0.028915
    12  H    0.068261
    13  H    0.043543
    14  H    0.035413
 Sum of Mulliken charges =   0.00000

 Dipole moment (field-independent basis, Debye):
    X=             -0.1308    Y=             -0.0432    Z=             -0.0394  Tot=              0.1433
 Quadrupole moment (field-independent basis, Debye-Ang):
   XX=            -29.4503   YY=            -28.9315   ZZ=            -27.7094
   XY=              0.2191   XZ=              0.0603   YZ=             -0.1562

 Normal termination of Gaussian 09 at Wed Aug 26 12:12:16 2020.
