 Gaussian 09, Revision D.01,
 Gaussian 09:  ES64L-G09RevD.01 24-Apr-2013

 --------------------
 #p B2PLYPD3/Def2QZVP
 --------------------

 ----------
 butane_opt
 ----------
 Symbolic Z-matrix:
 Charge =  0 Multiplicity = 1

                         Standard orientation:
 ---------------------------------------------------------------------
 Center     Atomic      Atomic             Coordinates (Angstroms)
 Number     Number       Type             X           Y           Z
 ---------------------------------------------------------------------
      1          6           0       -1.952330    0.062813   -0.220155
      2          6           0       -0.635407   -0.428540    0.329088
      3          1           0       -2.813589   -1.004214   -0.792421
      4          1           0       -1.593658    0.279540   -1.072213
      5          1           0       -2.641577    1.170639    0.710777
      6          6           0        0.493677    0.585816    0.017459
      7          1           0       -0.463888   -0.723131   -0.175609
      8          1           0       -0.691962   -1.205981    1.605689
      9          6           0        2.067870   -0.203643   -0.071766
     10          1           0        0.531417    1.583733    0.748881
     11          1           0        0.442077    0.764222   -0.662299
     12          1           0        2.404997   -0.314298    0.698328
     13          1           0        2.870173    0.507376   -0.483977
     14          1           0        2.113149   -1.156556   -0.904912
 ---------------------------------------------------------------------

 SCF Done:  E(RB2PLYPD3) =  -157.133190517     A.U. after   12 cycles
 E2(B2PLYPD3) =    -0.2561880912D+00 E(B2PLYPD3) =    -0.15738937860817D+03

 The electronic state is 1-A.
 Alpha  occ. eigenvalues --  -10.66855 -10.61797 -10.61546 -10.61497  -0.98973
 Alpha  occ. eigenvalues --   -0.84992  -0.77496  -0.72332  -0.55872  -0.50091
 Alpha  occ. eigenvalues --   -0.47758  -0.45155  -0.44120  -0.39705  -0.38332
 Alpha  occ. eigenvalues --   -0.36754  -0.34366
 Alpha virt. eigenvalues --    0.01592   0.05737   0.06337   0.06953   0.08317
 Alpha virt. eigenvalues --    0.10254   0.11492   0.12754   0.13696   0.14838
 Alpha virt. eigenvalues --    0.15422   0.17147   0.17703   0.18365   0.19492

 Mulliken charges:
               1
     1  C   -0.172345
     2  C   -0.888645
     3  H    0.018261
     4  H    0.124454
     5  H    0.035152
     6  C   -0.513997
     7  H    0.830094
     8  H    0.031050
     9  C   -0.235040
    10  H    0.055113
    11  H    0.492633
    12  H    0.158434
    13  H    0.026652
    14  H    0.038183
 Sum of Mulliken charges =   0.00000

 Dipole moment (field-independent basis, Debye):
    X=              0.8241    Y=              0.1250    Z=             -0.6180  Tot=              1.0376
 Quadrupole moment (field-independent basis, Debye-Ang):
   XX=            -31.3390   YY=            -29.6768   ZZ=            -28.0203
   XY=              0.1897   XZ=              0.3753   YZ=              0.9639

 Normal termination of Gaussian 09 at Wed Aug 26 21:57:39 2020.
