 Gaussian 09, Revision D.01,
 Gaussian 09:  ES64L-G09RevD.01 24-Apr-2013

 --------------------
 #p B2PLYPD3/Def2QZVP
 --------------------

 ----------
 butane_opt
 ----------
 Symbolic Z-matrix:
 Charge =  0 Multiplicity = 1

                         Standard orientation:
 ---------------------------------------------------------------------
 Center     Atomic      Atomic             Coordinates (Angstroms)
 Number     Number       Type             X           Y           Z
 ---------------------------------------------------------------------
      1          6           0        1.952107   -0.215988   -0.122560
      2          6           0        0.557624    0.645472    0.085408
      3          1           0        2.706622    0.435337   -0.386177
      4          1           0        1.913475   -0.910799   -0.917397
      5          1           0        2.682053   -0.722303    0.789501
      6          6           0       -0.599686   -0.461257    0.231169
      7          1           0        0.444413    0.935997   -0.590769
      8          1           0        0.618743    1.727392    1.042539
      9          6           0       -1.999985    0.098066   -0.113700
     10          1           0       -0.772772   -0.950198    1.231344
     11          1           0       -0.352324   -1.306629   -0.693100
     12          1           0       -2.218112    0.318754    0.340319
     13          1           0       -2.650384   -0.676409   -0.002049
     14          1           0       -1.832073    0.751091   -1.296112
 ---------------------------------------------------------------------

 SCF Done:  E(RB2PLYPD3) =  -157.161201481     A.U. after   12 cycles
 E2(B2PLYPD3) =    -0.2519935389D+00 E(B2PLYPD3) =    -0.15741319501965D+03

 The electronic state is 1-A.
 Alpha  occ. eigenvalues --  -10.63795 -10.62498 -10.61314 -10.59733  -0.93977
 Alpha  occ. eigenvalues --   -0.88000  -0.75924  -0.70141  -0.53967  -0.49511
 Alpha  occ. eigenvalues --   -0.48912  -0.47496  -0.42250  -0.40305  -0.38071
 Alpha  occ. eigenvalues --   -0.36631  -0.36505
 Alpha virt. eigenvalues --    0.04955   0.05933   0.06501   0.08089   0.10024
 Alpha virt. eigenvalues --    0.11433   0.12103   0.13778   0.14437   0.15028
 Alpha virt. eigenvalues --    0.15523   0.16595   0.18421   0.19013   0.21202

 Mulliken charges:
               1
     1  C   -0.124435
     2  C   -0.468861
     3  H    0.040651
     4  H    0.053711
     5  H    0.024863
     6  C    0.048969
     7  H    0.428986
     8  H    0.019303
     9  C   -0.786775
    10  H    0.041684
    11  H    0.018181
    12  H    0.590200
    13  H    0.066057
    14  H    0.047467
 Sum of Mulliken charges =   0.00000

 Dipole moment (field-independent basis, Debye):
    X=             -0.1731    Y=              0.0147    Z=             -0.1626  Tot=              0.2380
 Quadrupole moment (field-independent basis, Debye-Ang):
   XX=            -28.5489   YY=            -29.3815   ZZ=            -28.0617
   XY=              0.6810   XZ=             -1.8291   YZ=             -0.1456

 Normal termination of Gaussian 09 at Wed Aug 26 15:15:01 2020.
