 Gaussian 09, Revision D.01,
 Gaussian 09:  ES64L-G09RevD.01 24-Apr-2013

 --------------------
 #p B2PLYPD3/Def2QZVP
 --------------------

 ----------
 butane_opt
 ----------
 Symbolic Z-matrix:
 Charge =  0 Multiplicity = 1

                         Standard orientation:
 ---------------------------------------------------------------------
 Center     Atomic      Atomic             Coordinates (Angstroms)
 Number     Number       Type             X           Y           Z
 ---------------------------------------------------------------------
      1          6           0        1.987683    0.058108   -0.108254
      2          6           0        0.641840   -0.516343    0.244395
      3          1           0        2.788549   -0.800810   -0.678160
      4          1           0        2.195194    1.164234    0.895777
      5          1           0        1.749312    0.442813   -0.884457
      6          6           0       -0.557668    0.585494    0.044604
      7          1           0        0.559820   -1.201999    1.288307
      8          1           0        0.221695   -0.967338   -0.488504
      9          6           0       -1.997837   -0.166151   -0.096691
     10          1           0       -0.183236    1.398737   -1.086562
     11          1           0       -0.756990    1.391698    0.774846
     12          1           0       -2.129578   -1.228768   -1.029223
     13          1           0       -2.597810    0.568181   -0.022155
     14          1           0       -2.291063   -0.533399    0.725806
 ---------------------------------------------------------------------

 SCF Done:  E(RB2PLYPD3) =  -157.806168564     A.U. after   11 cycles
 E2(B2PLYPD3) =    -0.2557494601D+00 E(B2PLYPD3) =    -0.15806191802455D+03

 The electronic state is 1-A.
 Alpha  occ. eigenvalues --  -10.66303 -10.63594 -10.62127 -10.61251  -0.91139
 Alpha  occ. eigenvalues --   -0.85065  -0.73774  -0.66211  -0.53757  -0.48682
 Alpha  occ. eigenvalues --   -0.46964  -0.45470  -0.41940  -0.39434  -0.37968
 Alpha  occ. eigenvalues --   -0.36261  -0.34975
 Alpha virt. eigenvalues --    0.03137   0.04886   0.06274   0.07697   0.09664
 Alpha virt. eigenvalues --    0.09989   0.11490   0.12818   0.13457   0.14266
 Alpha virt. eigenvalues --    0.15518   0.16280   0.18364   0.18488   0.18982

 Mulliken charges:
               1
     1  C   -0.236369
     2  C   -0.091604
     3  H    0.035831
     4  H    0.027323
     5  H    0.156684
     6  C   -0.046849
     7  H    0.028513
     8  H    0.106004
     9  C   -0.163477
    10  H   -0.012071
    11  H    0.035120
    12  H    0.027877
    13  H    0.066319
    14  H    0.066699
 Sum of Mulliken charges =   0.00000

 Dipole moment (field-independent basis, Debye):
    X=             -0.7530    Y=             -0.0788    Z=              0.0910  Tot=              0.7626
 Quadrupole moment (field-independent basis, Debye-Ang):
   XX=            -31.3408   YY=            -29.3261   ZZ=            -29.1549
   XY=             -0.6785   XZ=             -2.5856   YZ=              1.1663

 Normal termination of Gaussian 09 at Wed Aug 26 18:52:30 2020.
