 Gaussian 09, Revision D.01,
 Gaussian 09:  ES64L-G09RevD.01 24-Apr-2013

 --------------------
 #p B2PLYPD3/Def2QZVP
 --------------------

 ----------
 butane_opt
 ----------
 Symbolic Z-matrix:
 Charge =  0 Multiplicity = 1

                         Standard orientation:
 ---------------------------------------------------------------------
 Center     Atomic      Atomic             Coordinates (Angstroms)
 Number     Number       Type             X           Y           Z
 ---------------------------------------------------------------------
      1          6           0       -1.957342    0.166120   -0.118086
      2          6           0       -0.517754   -0.544709    0.076219
      3          1           0       -2.908831   -0.791351   -0.625802
      4          1           0       -1.541483    0.325060   -0.711769
      5          1           0       -2.556447    1.310543    1.245597
      6          6           0        0.620904    0.458236    0.005597
      7          1           0       -0.268574   -0.810888   -0.553476
      8          1           0       -0.344073   -1.356176    1.192802
      9          6           0        1.885419   -0.077399   -0.009877
     10          1           0        0.297666    1.014746    0.772229
     11          1           0        0.715595    1.128274   -0.982671
     12          1           0        1.887806   -0.766803    0.876813
     13          1           0        2.788662    0.713928   -0.076708
     14          1           0        1.742324   -0.780825   -0.860130
 ---------------------------------------------------------------------

 SCF Done:  E(RB2PLYPD3) =  -157.446712676     A.U. after   13 cycles
 E2(B2PLYPD3) =    -0.2602788374D+00 E(B2PLYPD3) =    -0.15770699151296D+03

 The electronic state is 1-A.
 Alpha  occ. eigenvalues --  -10.66105 -10.61758 -10.61460 -10.60143  -0.98922
 Alpha  occ. eigenvalues --   -0.88862  -0.76627  -0.68411  -0.57049  -0.50357
 Alpha  occ. eigenvalues --   -0.48690  -0.47152  -0.42595  -0.38126  -0.37333
 Alpha  occ. eigenvalues --   -0.35688  -0.33733
 Alpha virt. eigenvalues --   -0.02554   0.05568   0.06170   0.06520   0.09516
 Alpha virt. eigenvalues --    0.09850   0.11905   0.12530   0.13632   0.14933
 Alpha virt. eigenvalues --    0.15220   0.16207   0.18108   0.19196   0.19421

 Mulliken charges:
               1
     1  C   -0.540286
     2  C   -0.538084
     3  H    0.048237
     4  H    0.446561
     5  H    0.034969
     6  C   -0.048472
     7  H    0.498042
     8  H    0.023245
     9  C   -0.148564
    10  H    0.061447
    11  H    0.007928
    12  H    0.041708
    13  H    0.063619
    14  H    0.049649
 Sum of Mulliken charges =   0.00000

 Dipole moment (field-independent basis, Debye):
    X=              0.6576    Y=              0.0088    Z=             -0.4374  Tot=              0.7898
 Quadrupole moment (field-independent basis, Debye-Ang):
   XX=            -31.5647   YY=            -30.2826   ZZ=            -28.5199
   XY=              1.3132   XZ=             -0.2224   YZ=              0.9204

 Normal termination of Gaussian 09 at Wed Aug 26 09:16:02 2020.
