 Gaussian 09, Revision D.01,
 Gaussian 09:  ES64L-G09RevD.01 24-Apr-2013

 --------------------
 #p B2PLYPD3/Def2QZVP
 --------------------

 ----------
 butane_opt
 ----------
 Symbolic Z-matrix:
 Charge =  0 Multiplicity = 1

                         Standard orientation:
 ---------------------------------------------------------------------
 Center     Atomic      Atomic             Coordinates (Angstroms)
 Number     Number       Type             X           Y           Z
 ---------------------------------------------------------------------
      1          6           0        2.000191    0.095184    0.041486
      2          6           0        0.548895   -0.608654   -0.148872
      3          1           0        2.579969   -0.180139    0.796986
      4          1           0        1.918658    0.384056    0.616803
      5          1           0        2.841585    1.167688   -1.080434
      6          6           0       -0.625847    0.450490    0.008827
      7          1           0        0.178491   -1.178426    0.690333
      8          1           0        0.518413   -1.265237   -0.892023
      9          6           0       -1.927344   -0.093908   -0.007451
     10          1           0       -0.613342    0.978748   -0.749660
     11          1           0       -0.398262    1.313302    1.064200
     12          1           0       -2.299039   -0.441928   -0.689468
     13          1           0       -2.871842    0.815828   -0.093306
     14          1           0       -1.829998   -0.652563    0.972633
 ---------------------------------------------------------------------

 SCF Done:  E(RB2PLYPD3) =  -157.401711685     A.U. after   12 cycles
 E2(B2PLYPD3) =    -0.2548518648D+00 E(B2PLYPD3) =    -0.15765656354937D+03

 The electronic state is 1-A.
 Alpha  occ. eigenvalues --  -10.62219 -10.61274 -10.61088 -10.59824  -0.97026
 Alpha  occ. eigenvalues --   -0.92134  -0.79523  -0.69953  -0.59057  -0.51324
 Alpha  occ. eigenvalues --   -0.49394  -0.45165  -0.41394  -0.39285  -0.37663
 Alpha  occ. eigenvalues --   -0.35867  -0.34161
 Alpha virt. eigenvalues --    0.00591   0.04158   0.06987   0.07906   0.10011
 Alpha virt. eigenvalues --    0.10429   0.11727   0.12775   0.14873   0.15576
 Alpha virt. eigenvalues --    0.16529   0.16742   0.18334   0.18675   0.20125

 Mulliken charges:
               1
     1  C   -0.751357
     2  C   -0.036593
     3  H    0.040645
     4  H    0.627962
     5  H    0.020926
     6  C   -0.038249
     7  H    0.026425
     8  H    0.068212
     9  C   -0.227761
    10  H    0.080222
    11  H    0.003261
    12  H    0.129272
    13  H    0.004083
    14  H    0.052952
 Sum of Mulliken charges =   0.00000

 Dipole moment (field-independent basis, Debye):
    X=             -0.4600    Y=             -0.1474    Z=              0.3012  Tot=              0.5693
 Quadrupole moment (field-independent basis, Debye-Ang):
   XX=            -31.2264   YY=            -29.9414   ZZ=            -27.3414
   XY=              1.2178   XZ=              3.2543   YZ=             -0.1794

 Normal termination of Gaussian 09 at Wed Aug 26 13:54:40 2020.
