 Gaussian 09, Revision D.01,
 Gaussian 09:  ES64L-G09RevD.01 24-Apr-2013

 --------------------
 #p B2PLYPD3/Def2QZVP
 --------------------

 ----------
 butane_opt
 ----------
 Symbolic Z-matrix:
 Charge =  0 Multiplicity = 1

                         Standard orientation:
 ---------------------------------------------------------------------
 Center     Atomic      Atomic             Coordinates (Angstroms)
 Number     Number       Type             X           Y           Z
 ---------------------------------------------------------------------
      1          6           0       -1.913610    0.109166   -0.061627
      2          6           0       -0.562893   -0.479875    0.105719
      3          1           0       -2.812796   -0.702605   -0.330594
      4          1           0       -1.866787    0.684194   -0.883002
      5          1           0       -2.210917    0.860245    0.877861
      6          6           0        0.559265    0.475613    0.085112
      7          1           0       -0.464581   -1.071978   -0.752860
      8          1           0       -0.461665   -1.263446    1.032350
      9          6           0        1.966294   -0.098832   -0.062308
     10          1           0        0.440679    1.150734    0.895720
     11          1           0        0.323425    1.234567   -0.880063
     12          1           0        2.228909   -0.673921    0.698273
     13          1           0        2.637764    0.537349   -0.100148
     14          1           0        1.891639   -0.791573   -0.958908
 ---------------------------------------------------------------------

 SCF Done:  E(RB2PLYPD3) =  -158.042621984     A.U. after   11 cycles
 E2(B2PLYPD3) =    -0.2474278512D+00 E(B2PLYPD3) =    -0.15829004983516D+03

 The electronic state is 1-A.
 Alpha  occ. eigenvalues --  -10.61741 -10.61498 -10.60784 -10.57664  -0.92466
 Alpha  occ. eigenvalues --   -0.84765  -0.73925  -0.65838  -0.54231  -0.51826
 Alpha  occ. eigenvalues --   -0.48859  -0.47419  -0.43624  -0.40326  -0.39699
 Alpha  occ. eigenvalues --   -0.37847  -0.35908
 Alpha virt. eigenvalues --    0.05616   0.06777   0.07588   0.08524   0.10629
 Alpha virt. eigenvalues --    0.11956   0.12943   0.13942   0.14854   0.15103
 Alpha virt. eigenvalues --    0.15628   0.16546   0.19619   0.20066   0.21443

 Mulliken charges:
               1
     1  C   -0.157011
     2  C   -0.024284
     3  H    0.035760
     4  H    0.071302
     5  H    0.024137
     6  C   -0.026552
     7  H    0.043018
     8  H    0.009399
     9  C   -0.134759
    10  H    0.035662
    11  H   -0.013157
    12  H    0.040179
    13  H    0.060787
    14  H    0.035519
 Sum of Mulliken charges =   0.00000

 Dipole moment (field-independent basis, Debye):
    X=              0.3656    Y=             -0.0096    Z=             -0.0944  Tot=              0.3777
 Quadrupole moment (field-independent basis, Debye-Ang):
   XX=            -29.3010   YY=            -29.2322   ZZ=            -28.5649
   XY=              0.3123   XZ=              1.1492   YZ=              0.4261

 Normal termination of Gaussian 09 at Wed Aug 26 22:28:57 2020.
