 Gaussian 09, Revision D.01,
 Gaussian 09:  ES64L-G09RevD.01 24-Apr-2013

 --------------------
 #p B2PLYPD3/Def2QZVP
 --------------------

 ----------
 butane_opt
 ----------
 Symbolic Z-matrix:
 Charge =  0 Multiplicity = 1

                         Standard orientation:
 ---------------------------------------------------------------------
 Center     Atomic      Atomic             Coordinates (Angstroms)
 Number     Number       Type             X           Y           Z
 ---------------------------------------------------------------------
      1          6           0       -1.914640   -0.140273    0.030372
      2          6           0       -0.494031    0.514257   -0.005519
      3          1           0       -2.754856    0.724744   -0.285154
      4          1           0       -2.301947   -1.220747    1.104783
      5          1           0       -2.033107   -0.325468   -0.613743
      6          6           0        0.567270   -0.497430   -0.167240
      7          1           0       -0.397528    1.045669    0.885880
      8          1           0       -0.463183    1.295029   -0.818706
      9          6           0        1.880760    0.090935    0.095213
     10          1           0        0.574491   -1.062200   -1.098754
     11          1           0        0.411814   -1.035753    0.610522
     12          1           0        2.243377    0.629470   -0.692439
     13          1           0        2.636219   -0.662816    0.053685
     14          1           0        1.848564    0.807137    1.136968
 ---------------------------------------------------------------------

 SCF Done:  E(RB2PLYPD3) =  -157.714206570     A.U. after   11 cycles
 E2(B2PLYPD3) =    -0.2500551358D+00 E(B2PLYPD3) =    -0.15796426170581D+03

 The electronic state is 1-A.
 Alpha  occ. eigenvalues --  -10.61372 -10.60631 -10.59875 -10.58159  -0.94162
 Alpha  occ. eigenvalues --   -0.87029  -0.76132  -0.68317  -0.55883  -0.51356
 Alpha  occ. eigenvalues --   -0.48476  -0.45862  -0.41334  -0.40187  -0.39544
 Alpha  occ. eigenvalues --   -0.37749  -0.36363
 Alpha virt. eigenvalues --    0.03730   0.05882   0.07175   0.08068   0.10581
 Alpha virt. eigenvalues --    0.10855   0.12366   0.13197   0.14337   0.15428
 Alpha virt. eigenvalues --    0.15753   0.16272   0.19108   0.19568   0.21571

 Mulliken charges:
               1
     1  C   -0.675249
     2  C    0.013069
     3  H    0.031327
     4  H    0.038013
     5  H    0.503906
     6  C   -0.064984
     7  H    0.055336
     8  H    0.017192
     9  C   -0.133835
    10  H    0.029165
    11  H    0.083831
    12  H    0.036697
    13  H    0.035657
    14  H    0.029875
 Sum of Mulliken charges =   0.00000

 Dipole moment (field-independent basis, Debye):
    X=              0.3748    Y=             -0.1141    Z=             -0.6252  Tot=              0.7378
 Quadrupole moment (field-independent basis, Debye-Ang):
   XX=            -30.8586   YY=            -28.9967   ZZ=            -27.8122
   XY=             -0.3162   XZ=              0.3386   YZ=             -0.2934

 Normal termination of Gaussian 09 at Wed Aug 26 12:59:19 2020.
