 Gaussian 09, Revision D.01,
 Gaussian 09:  ES64L-G09RevD.01 24-Apr-2013

 --------------------
 #p B2PLYPD3/Def2QZVP
 --------------------

 ----------
 butane_opt
 ----------
 Symbolic Z-matrix:
 Charge =  0 Multiplicity = 1

                         Standard orientation:
 ---------------------------------------------------------------------
 Center     Atomic      Atomic             Coordinates (Angstroms)
 Number     Number       Type             X           Y           Z
 ---------------------------------------------------------------------
      1          6           0       -2.022108   -0.191674   -0.071713
      2          6           0       -0.553092    0.681238    0.046739
      3          1           0       -2.510376    0.248080   -0.286960
      4          1           0       -2.284853   -0.465702    0.686868
      5          1           0       -2.062734   -1.136587   -1.093654
      6          6           0        0.593540   -0.470095    0.208056
      7          1           0       -0.581294    1.443210    0.900502
      8          1           0       -0.347893    0.936471   -0.724095
      9          6           0        1.942233    0.055620   -0.206084
     10          1           0        0.599943   -0.808676   -0.254560
     11          1           0        0.765924   -1.294634    1.552603
     12          1           0        1.710197    0.422483   -0.831994
     13          1           0        2.705298   -0.788258   -0.491944
     14          1           0        2.242348    0.993077    0.681249
 ---------------------------------------------------------------------

 SCF Done:  E(RB2PLYPD3) =  -156.902099067     A.U. after   12 cycles
 E2(B2PLYPD3) =    -0.2507232097D+00 E(B2PLYPD3) =    -0.15715282227701D+03

 The electronic state is 1-A.
 Alpha  occ. eigenvalues --  -10.62047 -10.61651 -10.59633 -10.57408  -0.97378
 Alpha  occ. eigenvalues --   -0.89188  -0.79251  -0.75056  -0.56755  -0.53272
 Alpha  occ. eigenvalues --   -0.50158  -0.48937  -0.45755  -0.39436  -0.39017
 Alpha  occ. eigenvalues --   -0.36784  -0.34750
 Alpha virt. eigenvalues --    0.04155   0.05645   0.06937   0.08464   0.11031
 Alpha virt. eigenvalues --    0.11317   0.11663   0.13366   0.13863   0.15246
 Alpha virt. eigenvalues --    0.16426   0.17376   0.18192   0.18742   0.20431

 Mulliken charges:
               1
     1  C   -0.562480
     2  C   -0.174627
     3  H    0.404966
     4  H    0.112782
     5  H    0.012879
     6  C   -0.875098
     7  H    0.061500
     8  H    0.227475
     9  C   -0.417379
    10  H    0.795511
    11  H   -0.020217
    12  H    0.334579
    13  H    0.063444
    14  H    0.036665
 Sum of Mulliken charges =   0.00000

 Dipole moment (field-independent basis, Debye):
    X=             -0.5074    Y=              0.6415    Z=             -0.7295  Tot=              1.0960
 Quadrupole moment (field-independent basis, Debye-Ang):
   XX=            -28.8249   YY=            -28.8157   ZZ=            -27.7187
   XY=             -1.4748   XZ=             -1.5187   YZ=              1.1150

 Normal termination of Gaussian 09 at Wed Aug 26 11:10:51 2020.
