 Gaussian 09, Revision D.01,
 Gaussian 09:  ES64L-G09RevD.01 24-Apr-2013

 --------------------
 #p B2PLYPD3/Def2QZVP
 --------------------

 ----------
 butane_opt
 ----------
 Symbolic Z-matrix:
 Charge =  0 Multiplicity = 1

                         Standard orientation:
 ---------------------------------------------------------------------
 Center     Atomic      Atomic             Coordinates (Angstroms)
 Number     Number       Type             X           Y           Z
 ---------------------------------------------------------------------
      1          6           0       -1.880625   -0.150088   -0.153369
      2          6           0       -0.550205    0.534074    0.050147
      3          1           0       -2.431446    0.418898   -0.115945
      4          1           0       -2.320874   -0.484910    0.651743
      5          1           0       -2.029455   -1.091027   -0.891298
      6          6           0        0.582086   -0.420835    0.410465
      7          1           0       -0.509676    1.513729    0.871140
      8          1           0       -0.245745    1.032832   -0.984045
      9          6           0        1.819381    0.097797   -0.226030
     10          1           0        0.354113   -1.236894   -0.449845
     11          1           0        0.616189   -0.864015    1.380534
     12          1           0        1.617831    0.496678   -1.062158
     13          1           0        2.704484   -1.028045   -0.538182
     14          1           0        2.420761    0.877069    0.650779
 ---------------------------------------------------------------------

 SCF Done:  E(RB2PLYPD3) =  -157.848909617     A.U. after   11 cycles
 E2(B2PLYPD3) =    -0.2520752547D+00 E(B2PLYPD3) =    -0.15810098487208D+03

 The electronic state is 1-A.
 Alpha  occ. eigenvalues --  -10.64067 -10.63863 -10.61551 -10.56760  -0.93067
 Alpha  occ. eigenvalues --   -0.87156  -0.73683  -0.66416  -0.54416  -0.49992
 Alpha  occ. eigenvalues --   -0.49038  -0.47585  -0.44314  -0.41246  -0.37579
 Alpha  occ. eigenvalues --   -0.36692  -0.32892
 Alpha virt. eigenvalues --    0.04561   0.06318   0.06931   0.08027   0.09746
 Alpha virt. eigenvalues --    0.10335   0.12194   0.13768   0.14393   0.15404
 Alpha virt. eigenvalues --    0.16053   0.16283   0.19075   0.19822   0.20652

 Mulliken charges:
               1
     1  C   -0.297453
     2  C   -0.013660
     3  H    0.205712
     4  H    0.028440
     5  H    0.048429
     6  C   -0.042712
     7  H    0.002068
     8  H    0.026176
     9  C   -0.180899
    10  H    0.021921
    11  H    0.074237
    12  H    0.107068
    13  H   -0.001193
    14  H    0.021865
 Sum of Mulliken charges =   0.00000

 Dipole moment (field-independent basis, Debye):
    X=             -0.9769    Y=              0.0323    Z=              0.1808  Tot=              0.9940
 Quadrupole moment (field-independent basis, Debye-Ang):
   XX=            -31.2180   YY=            -29.6978   ZZ=            -28.2342
   XY=              0.4483   XZ=             -0.3098   YZ=              0.1625

 Normal termination of Gaussian 09 at Wed Aug 26 11:43:05 2020.
