 Gaussian 09, Revision D.01,
 Gaussian 09:  ES64L-G09RevD.01 24-Apr-2013

 --------------------
 #p B2PLYPD3/Def2QZVP
 --------------------

 ----------
 butane_opt
 ----------
 Symbolic Z-matrix:
 Charge =  0 Multiplicity = 1

                         Standard orientation:
 ---------------------------------------------------------------------
 Center     Atomic      Atomic             Coordinates (Angstroms)
 Number     Number       Type             X           Y           Z
 ---------------------------------------------------------------------
      1          6           0        1.945630   -0.127313   -0.011404
      2          6           0        0.515961    0.479583   -0.122695
      3          1           0        2.790011    0.804683    0.393993
      4          1           0        2.164526   -1.025599   -0.924954
      5          1           0        1.783499   -0.598337    0.837675
      6          6           0       -0.514659   -0.492478    0.089911
      7          1           0        0.277866    0.881361   -0.881520
      8          1           0        0.416344    1.299552    0.733587
      9          6           0       -1.910789    0.164704   -0.030336
     10          1           0       -0.632587   -1.051080    1.089444
     11          1           0       -0.449553   -0.953835   -0.685138
     12          1           0       -2.060515    0.694284    0.761804
     13          1           0       -2.631409   -0.781024   -0.127239
     14          1           0       -1.875038    0.583017   -0.750510
 ---------------------------------------------------------------------

 SCF Done:  E(RB2PLYPD3) =  -157.881060067     A.U. after   11 cycles
 E2(B2PLYPD3) =    -0.2482017619D+00 E(B2PLYPD3) =    -0.15812926182933D+03

 The electronic state is 1-A.
 Alpha  occ. eigenvalues --  -10.63069 -10.58846 -10.57799 -10.56371  -0.95283
 Alpha  occ. eigenvalues --   -0.84543  -0.74624  -0.68886  -0.58508  -0.51583
 Alpha  occ. eigenvalues --   -0.48862  -0.46231  -0.43897  -0.42576  -0.39605
 Alpha  occ. eigenvalues --   -0.36774  -0.35659
 Alpha virt. eigenvalues --    0.05111   0.06465   0.08046   0.08643   0.10568
 Alpha virt. eigenvalues --    0.11555   0.12665   0.13829   0.14286   0.15415
 Alpha virt. eigenvalues --    0.15469   0.16442   0.19534   0.19965   0.20942

 Mulliken charges:
               1
     1  C   -0.191052
     2  C   -0.079478
     3  H    0.035935
     4  H    0.031408
     5  H    0.094307
     6  C   -0.082094
     7  H    0.096398
     8  H   -0.004498
     9  C   -0.263153
    10  H    0.024004
    11  H    0.092314
    12  H    0.060863
    13  H    0.030480
    14  H    0.154565
 Sum of Mulliken charges =   0.00000

 Dipole moment (field-independent basis, Debye):
    X=             -0.3655    Y=             -0.0088    Z=             -0.0566  Tot=              0.3699
 Quadrupole moment (field-independent basis, Debye-Ang):
   XX=            -31.7420   YY=            -28.8486   ZZ=            -27.4141
   XY=              0.1432   XZ=              0.4447   YZ=              0.5110

 Normal termination of Gaussian 09 at Wed Aug 26 15:16:18 2020.
