 Gaussian 09, Revision D.01,
 Gaussian 09:  ES64L-G09RevD.01 24-Apr-2013

 --------------------
 #p B2PLYPD3/Def2QZVP
 --------------------

 ----------
 butane_opt
 ----------
 Symbolic Z-matrix:
 Charge =  0 Multiplicity = 1

                         Standard orientation:
 ---------------------------------------------------------------------
 Center     Atomic      Atomic             Coordinates (Angstroms)
 Number     Number       Type             X           Y           Z
 ---------------------------------------------------------------------
      1          6           0       -1.962748   -0.140409    0.101761
      2          6           0       -0.447048    0.628286   -0.132894
      3          1           0       -2.650233    0.539181   -0.336391
      4          1           0       -2.137330   -0.952050    1.065800
      5          1           0       -1.997689   -0.788930   -0.728181
      6          6           0        0.510161   -0.442815   -0.011491
      7          1           0       -0.200822    1.173429    0.680281
      8          1           0       -0.448733    1.341685   -1.017402
      9          6           0        1.843989    0.051485    0.033863
     10          1           0        0.752858   -1.097514   -0.911843
     11          1           0        0.279492   -1.263166    1.106001
     12          1           0        1.806096    0.072048   -0.567615
     13          1           0        2.666573   -0.928200   -0.516022
     14          1           0        2.263667    1.324236    1.277942
 ---------------------------------------------------------------------

 SCF Done:  E(RB2PLYPD3) =  -157.329697480     A.U. after   13 cycles
 E2(B2PLYPD3) =    -0.2615230068D+00 E(B2PLYPD3) =    -0.15759122048629D+03

 The electronic state is 1-A.
 Alpha  occ. eigenvalues --  -10.64634 -10.63911 -10.62335 -10.62176  -1.00057
 Alpha  occ. eigenvalues --   -0.86494  -0.75706  -0.65806  -0.54657  -0.50783
 Alpha  occ. eigenvalues --   -0.47900  -0.44588  -0.44274  -0.40094  -0.36562
 Alpha  occ. eigenvalues --   -0.34924  -0.33000
 Alpha virt. eigenvalues --   -0.01208   0.03625   0.05708   0.06421   0.09394
 Alpha virt. eigenvalues --    0.10457   0.12103   0.12389   0.12942   0.14517
 Alpha virt. eigenvalues --    0.15993   0.16590   0.17376   0.18860   0.19816

 Mulliken charges:
               1
     1  C   -0.174208
     2  C   -0.054741
     3  H    0.044917
     4  H    0.066592
     5  H    0.050858
     6  C    0.017625
     7  H    0.062321
     8  H    0.035798
     9  C   -0.896044
    10  H    0.031460
    11  H    0.006198
    12  H    0.782856
    13  H    0.007186
    14  H    0.019183
 Sum of Mulliken charges =   0.00000

 Dipole moment (field-independent basis, Debye):
    X=             -0.6268    Y=              0.1786    Z=             -1.0350  Tot=              1.2231
 Quadrupole moment (field-independent basis, Debye-Ang):
   XX=            -33.1372   YY=            -29.5144   ZZ=            -28.2417
   XY=              0.1407   XZ=             -0.7034   YZ=              0.2679

 Normal termination of Gaussian 09 at Wed Aug 26 11:12:11 2020.
