 Gaussian 09, Revision D.01,
 Gaussian 09:  ES64L-G09RevD.01 24-Apr-2013

 --------------------
 #p B2PLYPD3/Def2QZVP
 --------------------

 ----------
 butane_opt
 ----------
 Symbolic Z-matrix:
 Charge =  0 Multiplicity = 1

                         Standard orientation:
 ---------------------------------------------------------------------
 Center     Atomic      Atomic             Coordinates (Angstroms)
 Number     Number       Type             X           Y           Z
 ---------------------------------------------------------------------
      1          6           0        1.941626    0.065784   -0.178657
      2          6           0        0.627113   -0.502395    0.297412
      3          1           0        2.684393   -0.677330   -0.451060
      4          1           0        2.513416    0.812003    0.653888
      5          1           0        1.716834    0.479302   -0.988039
      6          6           0       -0.597609    0.632533    0.095419
      7          1           0        0.588696   -1.058950    1.187678
      8          1           0        0.565294   -1.252787   -0.433783
      9          6           0       -1.986546   -0.188412   -0.157312
     10          1           0       -0.048609    1.316541   -0.871838
     11          1           0       -0.644449    1.558310    0.997193
     12          1           0       -2.145757   -0.902470   -0.967231
     13          1           0       -2.769468    0.480214   -0.058638
     14          1           0       -2.367857   -0.799889    0.590653
 ---------------------------------------------------------------------

 SCF Done:  E(RB2PLYPD3) =  -157.996780089     A.U. after   11 cycles
 E2(B2PLYPD3) =    -0.2503932358D+00 E(B2PLYPD3) =    -0.15824717332441D+03

 The electronic state is 1-A.
 Alpha  occ. eigenvalues --  -10.67054 -10.60453 -10.60023 -10.59439  -0.89576
 Alpha  occ. eigenvalues --   -0.83323  -0.72785  -0.66871  -0.52505  -0.49208
 Alpha  occ. eigenvalues --   -0.48258  -0.45557  -0.43517  -0.42364  -0.38049
 Alpha  occ. eigenvalues --   -0.36696  -0.34922
 Alpha virt. eigenvalues --    0.05535   0.06603   0.07450   0.08830   0.10270
 Alpha virt. eigenvalues --    0.11600   0.12600   0.13986   0.14830   0.15111
 Alpha virt. eigenvalues --    0.15707   0.16639   0.18388   0.19405   0.20460

 Mulliken charges:
               1
     1  C   -0.158565
     2  C   -0.025630
     3  H    0.032887
     4  H    0.020567
     5  H    0.090132
     6  C   -0.099708
     7  H    0.044570
     8  H    0.034689
     9  C   -0.104051
    10  H    0.017574
    11  H    0.031116
    12  H    0.045500
    13  H    0.041864
    14  H    0.029056
 Sum of Mulliken charges =   0.00000

 Dipole moment (field-independent basis, Debye):
    X=             -0.2917    Y=             -0.5108    Z=             -0.0605  Tot=              0.5913
 Quadrupole moment (field-independent basis, Debye-Ang):
   XX=            -28.9412   YY=            -28.6212   ZZ=            -29.0238
   XY=              0.1381   XZ=             -1.0369   YZ=              0.6017

 Normal termination of Gaussian 09 at Wed Aug 26 16:12:31 2020.
