 Gaussian 09, Revision D.01,
 Gaussian 09:  ES64L-G09RevD.01 24-Apr-2013

 --------------------
 #p B2PLYPD3/Def2QZVP
 --------------------

 ----------
 butane_opt
 ----------
 Symbolic Z-matrix:
 Charge =  0 Multiplicity = 1

                         Standard orientation:
 ---------------------------------------------------------------------
 Center     Atomic      Atomic             Coordinates (Angstroms)
 Number     Number       Type             X           Y           Z
 ---------------------------------------------------------------------
      1          6           0        1.917569    0.015136   -0.145934
      2          6           0        0.613531   -0.288607    0.319738
      3          1           0        2.860700   -1.003836   -0.438084
      4          1           0        2.419748    1.064325    0.586529
      5          1           0        1.483049    0.265641   -1.010992
      6          6           0       -0.536182    0.551559   -0.067381
      7          1           0        0.756619   -0.673335    1.382974
      8          1           0        0.247670   -1.206811   -0.502320
      9          6           0       -1.960146   -0.189272   -0.042270
     10          1           0       -0.354796    0.889760   -1.033303
     11          1           0       -0.761558    1.499404    0.659272
     12          1           0       -2.081322   -1.213438   -0.733493
     13          1           0       -2.724909    0.354946   -0.380276
     14          1           0       -2.053833   -0.509553    1.084771
 ---------------------------------------------------------------------

 SCF Done:  E(RB2PLYPD3) =  -157.940348358     A.U. after   11 cycles
 E2(B2PLYPD3) =    -0.2539458276D+00 E(B2PLYPD3) =    -0.15819429418531D+03

 The electronic state is 1-A.
 Alpha  occ. eigenvalues --  -10.64003 -10.63080 -10.62987 -10.62324  -0.94164
 Alpha  occ. eigenvalues --   -0.83770  -0.72385  -0.64339  -0.55017  -0.51136
 Alpha  occ. eigenvalues --   -0.47965  -0.45621  -0.43144  -0.39262  -0.39108
 Alpha  occ. eigenvalues --   -0.37171  -0.32698
 Alpha virt. eigenvalues --    0.04038   0.05990   0.07069   0.08091   0.09578
 Alpha virt. eigenvalues --    0.09771   0.12128   0.12853   0.13388   0.14531
 Alpha virt. eigenvalues --    0.15575   0.16403   0.18794   0.19492   0.20873

 Mulliken charges:
               1
     1  C   -0.167015
     2  C   -0.041429
     3  H    0.045249
     4  H    0.019222
     5  H    0.062409
     6  C   -0.047525
     7  H    0.044719
     8  H    0.020695
     9  C   -0.141880
    10  H    0.061020
    11  H    0.006857
    12  H    0.012197
    13  H    0.071051
    14  H    0.054428
 Sum of Mulliken charges =   0.00000

 Dipole moment (field-independent basis, Debye):
    X=             -0.5143    Y=              0.1235    Z=             -0.2274  Tot=              0.5757
 Quadrupole moment (field-independent basis, Debye-Ang):
   XX=            -30.9350   YY=            -30.5694   ZZ=            -28.8455
   XY=             -1.1507   XZ=              0.7430   YZ=              0.5258

 Normal termination of Gaussian 09 at Wed Aug 26 15:49:34 2020.
