 Gaussian 09, Revision D.01,
 Gaussian 09:  ES64L-G09RevD.01 24-Apr-2013

 --------------------
 #p B2PLYPD3/Def2QZVP
 --------------------

 ----------
 butane_opt
 ----------
 Symbolic Z-matrix:
 Charge =  0 Multiplicity = 1

                         Standard orientation:
 ---------------------------------------------------------------------
 Center     Atomic      Atomic             Coordinates (Angstroms)
 Number     Number       Type             X           Y           Z
 ---------------------------------------------------------------------
      1          6           0        1.997548   -0.154946   -0.099462
      2          6           0        0.603987    0.532679    0.134349
      3          1           0        2.803762    0.586225   -0.417742
      4          1           0        1.897446   -0.752140   -0.933425
      5          1           0        2.273613   -0.791157    0.824241
      6          6           0       -0.587659   -0.508849    0.099962
      7          1           0        0.423329    1.129328   -0.664316
      8          1           0        0.385794    1.409033    1.123896
      9          6           0       -1.983624    0.113736   -0.130270
     10          1           0       -0.659867   -1.191757    1.066046
     11          1           0       -0.418669   -1.053737   -0.652707
     12          1           0       -2.045195    0.708360    0.750542
     13          1           0       -2.738571   -0.620718   -0.038494
     14          1           0       -2.103154    0.680851   -1.085514
 ---------------------------------------------------------------------

 SCF Done:  E(RB2PLYPD3) =  -158.055307751     A.U. after   11 cycles
 E2(B2PLYPD3) =    -0.2476686933D+00 E(B2PLYPD3) =    -0.15830297644456D+03

 The electronic state is 1-A.
 Alpha  occ. eigenvalues --  -10.62659 -10.61322 -10.60123 -10.59394  -0.90430
 Alpha  occ. eigenvalues --   -0.83088  -0.72822  -0.66890  -0.53653  -0.49320
 Alpha  occ. eigenvalues --   -0.48693  -0.47136  -0.42282  -0.41868  -0.38380
 Alpha  occ. eigenvalues --   -0.37741  -0.36698
 Alpha virt. eigenvalues --    0.05581   0.06771   0.08022   0.08488   0.11038
 Alpha virt. eigenvalues --    0.11997   0.12659   0.13587   0.14604   0.15305
 Alpha virt. eigenvalues --    0.15595   0.16456   0.19246   0.19282   0.21284

 Mulliken charges:
               1
     1  C   -0.153002
     2  C   -0.067144
     3  H    0.044280
     4  H    0.062368
     5  H    0.052851
     6  C   -0.076338
     7  H    0.059951
     8  H   -0.005464
     9  C   -0.148062
    10  H    0.013606
    11  H    0.077210
    12  H    0.053221
    13  H    0.048041
    14  H    0.038480
 Sum of Mulliken charges =   0.00000

 Dipole moment (field-independent basis, Debye):
    X=             -0.0255    Y=             -0.2533    Z=             -0.5290  Tot=              0.5871
 Quadrupole moment (field-independent basis, Debye-Ang):
   XX=            -29.6268   YY=            -29.3274   ZZ=            -28.1469
   XY=              0.3448   XZ=             -0.6355   YZ=             -0.4477

 Normal termination of Gaussian 09 at Wed Aug 26 11:47:27 2020.
