 Gaussian 09, Revision D.01,
 Gaussian 09:  ES64L-G09RevD.01 24-Apr-2013

 --------------------
 #p B2PLYPD3/Def2QZVP
 --------------------

 ----------
 butane_opt
 ----------
 Symbolic Z-matrix:
 Charge =  0 Multiplicity = 1

                         Standard orientation:
 ---------------------------------------------------------------------
 Center     Atomic      Atomic             Coordinates (Angstroms)
 Number     Number       Type             X           Y           Z
 ---------------------------------------------------------------------
      1          6           0       -1.959513   -0.162787    0.072373
      2          6           0       -0.573653    0.589473   -0.044010
      3          1           0       -2.601817    0.451286   -0.218605
      4          1           0       -2.566258   -0.751973    1.034753
      5          1           0       -2.244628   -0.684358   -0.803950
      6          6           0        0.658003   -0.509890   -0.150240
      7          1           0       -0.302954    1.377107    0.887501
      8          1           0       -0.718430    1.102478   -0.709791
      9          6           0        1.965309    0.094853    0.042473
     10          1           0        0.413672   -0.998308   -0.889422
     11          1           0        0.504610   -1.148920    0.770981
     12          1           0        2.308167    0.662716   -0.811932
     13          1           0        2.723280   -0.582826    0.411306
     14          1           0        1.943484    0.502903    0.805579
 ---------------------------------------------------------------------

 SCF Done:  E(RB2PLYPD3) =  -157.894583765     A.U. after   11 cycles
 E2(B2PLYPD3) =    -0.2470921059D+00 E(B2PLYPD3) =    -0.15814167587122D+03

 The electronic state is 1-A.
 Alpha  occ. eigenvalues --  -10.60799 -10.59578 -10.58958 -10.56375  -0.91895
 Alpha  occ. eigenvalues --   -0.86365  -0.75846  -0.70697  -0.55364  -0.50408
 Alpha  occ. eigenvalues --   -0.49220  -0.46913  -0.43383  -0.41875  -0.39897
 Alpha  occ. eigenvalues --   -0.38341  -0.34449
 Alpha virt. eigenvalues --    0.05704   0.06533   0.08736   0.09237   0.10401
 Alpha virt. eigenvalues --    0.11856   0.12954   0.13996   0.15072   0.15709
 Alpha virt. eigenvalues --    0.16252   0.16639   0.19056   0.20194   0.21985

 Mulliken charges:
               1
     1  C   -0.160489
     2  C   -0.133690
     3  H    0.059411
     4  H    0.040598
     5  H    0.021545
     6  C   -0.078376
     7  H    0.003164
     8  H    0.141857
     9  C   -0.196763
    10  H    0.077591
    11  H    0.030810
    12  H    0.047881
    13  H    0.023221
    14  H    0.123239
 Sum of Mulliken charges =   0.00000

 Dipole moment (field-independent basis, Debye):
    X=             -0.1059    Y=              0.2477    Z=             -0.4084  Tot=              0.4893
 Quadrupole moment (field-independent basis, Debye-Ang):
   XX=            -28.0280   YY=            -29.2172   ZZ=            -27.3890
   XY=             -0.0320   XZ=              1.6427   YZ=             -0.5929

 Normal termination of Gaussian 09 at Wed Aug 26 21:16:47 2020.
