 Gaussian 09, Revision D.01,
 Gaussian 09:  ES64L-G09RevD.01 24-Apr-2013

 --------------------
 #p B2PLYPD3/Def2QZVP
 --------------------

 ----------
 butane_opt
 ----------
 Symbolic Z-matrix:
 Charge =  0 Multiplicity = 1

                         Standard orientation:
 ---------------------------------------------------------------------
 Center     Atomic      Atomic             Coordinates (Angstroms)
 Number     Number       Type             X           Y           Z
 ---------------------------------------------------------------------
      1          6           0        1.938656   -0.193070   -0.179927
      2          6           0        0.579090    0.479142    0.131897
      3          1           0        2.826015    0.630392   -0.360087
      4          1           0        1.741501   -0.607167   -0.877898
      5          1           0        2.134981   -0.777215    0.778611
      6          6           0       -0.582751   -0.423764    0.176462
      7          1           0        0.290219    0.812475   -0.528327
      8          1           0        0.689338    1.627136    1.230723
      9          6           0       -1.898534    0.103903   -0.136840
     10          1           0       -0.729200   -1.155912    1.259784
     11          1           0       -0.281069   -1.116783   -0.667728
     12          1           0       -2.172309    0.641855    0.640345
     13          1           0       -2.653527   -0.685524   -0.104896
     14          1           0       -2.064714    0.833473   -1.320078
 ---------------------------------------------------------------------

 SCF Done:  E(RB2PLYPD3) =  -157.785450375     A.U. after   11 cycles
 E2(B2PLYPD3) =    -0.2515823358D+00 E(B2PLYPD3) =    -0.15803703271084D+03

 The electronic state is 1-A.
 Alpha  occ. eigenvalues --  -10.63864 -10.61921 -10.61477 -10.60022  -0.96015
 Alpha  occ. eigenvalues --   -0.85994  -0.76678  -0.66072  -0.55819  -0.51251
 Alpha  occ. eigenvalues --   -0.50112  -0.47439  -0.42259  -0.41233  -0.40536
 Alpha  occ. eigenvalues --   -0.36174  -0.33715
 Alpha virt. eigenvalues --    0.04345   0.05598   0.06448   0.07080   0.10503
 Alpha virt. eigenvalues --    0.11493   0.12392   0.12951   0.13277   0.14706
 Alpha virt. eigenvalues --    0.15100   0.16510   0.18427   0.19454   0.21006

 Mulliken charges:
               1
     1  C   -0.268423
     2  C   -0.320913
     3  H    0.048812
     4  H    0.181870
     5  H    0.070987
     6  C   -0.023998
     7  H    0.323230
     8  H   -0.042386
     9  C   -0.146538
    10  H    0.001626
    11  H    0.034089
    12  H    0.080377
    13  H    0.053912
    14  H    0.007353
 Sum of Mulliken charges =   0.00000

 Dipole moment (field-independent basis, Debye):
    X=             -0.2619    Y=             -0.5668    Z=             -0.5362  Tot=              0.8230
 Quadrupole moment (field-independent basis, Debye-Ang):
   XX=            -29.1777   YY=            -30.7272   ZZ=            -28.9190
   XY=              0.4023   XZ=             -1.0555   YZ=             -0.5453

 Normal termination of Gaussian 09 at Wed Aug 26 21:15:40 2020.
