 Gaussian 09, Revision D.01,
 Gaussian 09:  ES64L-G09RevD.01 24-Apr-2013

 --------------------
 #p B2PLYPD3/Def2QZVP
 --------------------

 ----------
 butane_opt
 ----------
 Symbolic Z-matrix:
 Charge =  0 Multiplicity = 1

                         Standard orientation:
 ---------------------------------------------------------------------
 Center     Atomic      Atomic             Coordinates (Angstroms)
 Number     Number       Type             X           Y           Z
 ---------------------------------------------------------------------
      1          6           0        2.015993   -0.192992   -0.138313
      2          6           0        0.602087    0.607397    0.091235
      3          1           0        2.726967    0.392910   -0.349488
      4          1           0        1.843774   -0.880689   -1.004114
      5          1           0        2.616266   -0.662887    0.904577
      6          6           0       -0.630778   -0.470169    0.179595
      7          1           0        0.556874    0.852432   -0.647375
      8          1           0        0.206050    1.703286    1.121740
      9          6           0       -1.916957    0.078238   -0.182608
     10          1           0       -0.722755   -1.091412    1.308628
     11          1           0       -0.555256   -0.902150   -0.437023
     12          1           0       -2.222716    0.573832    0.471638
     13          1           0       -2.760427   -0.698392    0.020001
     14          1           0       -2.110847    0.578230   -1.088039
 ---------------------------------------------------------------------

 SCF Done:  E(RB2PLYPD3) =  -157.651809204     A.U. after   11 cycles
 E2(B2PLYPD3) =    -0.2504424354D+00 E(B2PLYPD3) =    -0.15790225163957D+03

 The electronic state is 1-A.
 Alpha  occ. eigenvalues --  -10.62822 -10.62177 -10.58870 -10.56847  -0.94118
 Alpha  occ. eigenvalues --   -0.86076  -0.75996  -0.71881  -0.55304  -0.50315
 Alpha  occ. eigenvalues --   -0.49390  -0.46822  -0.42563  -0.41161  -0.38643
 Alpha  occ. eigenvalues --   -0.37841  -0.34513
 Alpha virt. eigenvalues --    0.04046   0.05853   0.07204   0.08438   0.10278
 Alpha virt. eigenvalues --    0.11795   0.12172   0.13297   0.14304   0.15727
 Alpha virt. eigenvalues --    0.15993   0.16261   0.18351   0.19119   0.20870

 Mulliken charges:
               1
     1  C   -0.147745
     2  C   -0.412254
     3  H    0.078870
     4  H    0.055831
     5  H    0.027748
     6  C   -0.388911
     7  H    0.373010
     8  H    0.011749
     9  C   -0.177616
    10  H    0.036612
    11  H    0.388990
    12  H    0.099779
    13  H    0.016334
    14  H    0.037601
 Sum of Mulliken charges =   0.00000

 Dipole moment (field-independent basis, Debye):
    X=             -0.0372    Y=             -0.0024    Z=             -0.7370  Tot=              0.7379
 Quadrupole moment (field-independent basis, Debye-Ang):
   XX=            -28.0493   YY=            -30.0874   ZZ=            -27.7620
   XY=             -0.1615   XZ=             -1.1471   YZ=             -0.1511

 Normal termination of Gaussian 09 at Wed Aug 26 22:11:59 2020.
