 Gaussian 09, Revision D.01,
 Gaussian 09:  ES64L-G09RevD.01 24-Apr-2013

 --------------------
 #p B2PLYPD3/Def2QZVP
 --------------------

 ----------
 butane_opt
 ----------
 Symbolic Z-matrix:
 Charge =  0 Multiplicity = 1

                         Standard orientation:
 ---------------------------------------------------------------------
 Center     Atomic      Atomic             Coordinates (Angstroms)
 Number     Number       Type             X           Y           Z
 ---------------------------------------------------------------------
      1          6           0       -2.007314   -0.204654   -0.126445
      2          6           0       -0.498519    0.567972    0.006339
      3          1           0       -2.766039    0.599727    0.399782
      4          1           0       -1.876503   -0.235906    0.366091
      5          1           0       -2.149925   -1.128877   -0.993449
      6          6           0        0.616547   -0.432694    0.173106
      7          1           0       -0.406360    1.355348    0.996171
      8          1           0       -0.132639    0.937391   -0.677595
      9          6           0        1.861578    0.087960   -0.089691
     10          1           0        0.403481   -0.748695   -0.448729
     11          1           0        0.280103   -1.235821    1.336058
     12          1           0        1.842942    0.773650   -1.159257
     13          1           0        2.751653   -0.959100   -0.220933
     14          1           0        2.219536    0.530775    0.622006
 ---------------------------------------------------------------------

 SCF Done:  E(RB2PLYPD3) =  -156.772168404     A.U. after   12 cycles
 E2(B2PLYPD3) =    -0.2555038899D+00 E(B2PLYPD3) =    -0.15702767229343D+03

 The electronic state is 1-A.
 Alpha  occ. eigenvalues --  -10.64059 -10.62398 -10.61323 -10.58868  -0.98783
 Alpha  occ. eigenvalues --   -0.91376  -0.78673  -0.70945  -0.55444  -0.52038
 Alpha  occ. eigenvalues --   -0.50069  -0.45733  -0.44707  -0.41891  -0.37780
 Alpha  occ. eigenvalues --   -0.36269  -0.33717
 Alpha virt. eigenvalues --    0.04655   0.04996   0.06101   0.07729   0.09960
 Alpha virt. eigenvalues --    0.10793   0.11752   0.12633   0.14026   0.15164
 Alpha virt. eigenvalues --    0.15353   0.16435   0.17826   0.19222   0.21236

 Mulliken charges:
               1
     1  C   -1.050956
     2  C   -0.152408
     3  H    0.076116
     4  H    0.850919
     5  H    0.115750
     6  C   -0.525071
     7  H    0.001208
     8  H    0.172006
     9  C   -0.151644
    10  H    0.511183
    11  H    0.004624
    12  H    0.043284
    13  H    0.015098
    14  H    0.089892
 Sum of Mulliken charges =   0.00000

 Dipole moment (field-independent basis, Debye):
    X=              0.1092    Y=             -0.0151    Z=             -0.1392  Tot=              0.1776
 Quadrupole moment (field-independent basis, Debye-Ang):
   XX=            -30.7948   YY=            -29.4860   ZZ=            -27.6311
   XY=              1.6066   XZ=             -0.3946   YZ=              1.2735

 Normal termination of Gaussian 09 at Wed Aug 26 12:46:18 2020.
