 Gaussian 09, Revision D.01,
 Gaussian 09:  ES64L-G09RevD.01 24-Apr-2013

 --------------------
 #p B2PLYPD3/Def2QZVP
 --------------------

 ----------
 butane_opt
 ----------
 Symbolic Z-matrix:
 Charge =  0 Multiplicity = 1

                         Standard orientation:
 ---------------------------------------------------------------------
 Center     Atomic      Atomic             Coordinates (Angstroms)
 Number     Number       Type             X           Y           Z
 ---------------------------------------------------------------------
      1          6           0        1.819603   -0.108101    0.160393
      2          6           0        0.595986    0.448107   -0.122735
      3          1           0        2.703981    0.835751   -0.340151
      4          1           0        1.848924   -0.495414   -0.584476
      5          1           0        2.015550   -0.627077    1.010976
      6          6           0       -0.527611   -0.558665   -0.005036
      7          1           0        0.659729    1.281965   -1.313104
      8          1           0        0.410408    0.855122    0.579518
      9          6           0       -1.881297    0.149200    0.055954
     10          1           0       -0.130709   -1.208118    0.969259
     11          1           0       -0.547372   -1.372318   -0.999521
     12          1           0       -2.446681    1.422207    1.268824
     13          1           0       -2.550266   -0.431073   -0.601838
     14          1           0       -2.003647    0.155716   -0.520940
 ---------------------------------------------------------------------

 SCF Done:  E(RB2PLYPD3) =  -157.058571836     A.U. after   14 cycles
 E2(B2PLYPD3) =    -0.2614485781D+00 E(B2PLYPD3) =    -0.15732002041432D+03

 The electronic state is 1-A.
 Alpha  occ. eigenvalues --  -10.65811 -10.63504 -10.59587 -10.57742  -1.01537
 Alpha  occ. eigenvalues --   -0.95703  -0.78874  -0.68327  -0.58229  -0.51620
 Alpha  occ. eigenvalues --   -0.47705  -0.46487  -0.40695  -0.38891  -0.36315
 Alpha  occ. eigenvalues --   -0.35157  -0.31395
 Alpha virt. eigenvalues --   -0.02364   0.03727   0.05197   0.06354   0.09712
 Alpha virt. eigenvalues --    0.10614   0.11873   0.12219   0.14561   0.15551
 Alpha virt. eigenvalues --    0.16042   0.16674   0.17059   0.18801   0.19580

 Mulliken charges:
               1
     1  C   -0.307543
     2  C   -0.221310
     3  H    0.013665
     4  H    0.197667
     5  H    0.075193
     6  C   -0.008636
     7  H    0.004801
     8  H    0.244214
     9  C   -0.878502
    10  H    0.029277
    11  H   -0.006202
    12  H    0.064336
    13  H    0.042753
    14  H    0.750287
 Sum of Mulliken charges =   0.00000

 Dipole moment (field-independent basis, Debye):
    X=             -0.3834    Y=             -0.2560    Z=             -0.4961  Tot=              0.6773
 Quadrupole moment (field-independent basis, Debye-Ang):
   XX=            -31.4628   YY=            -30.3243   ZZ=            -27.1029
   XY=             -1.5942   XZ=              2.1313   YZ=              1.1654

 Normal termination of Gaussian 09 at Wed Aug 26 13:41:28 2020.
