 Gaussian 09, Revision D.01,
 Gaussian 09:  ES64L-G09RevD.01 24-Apr-2013

 --------------------
 #p B2PLYPD3/Def2QZVP
 --------------------

 ----------
 butane_opt
 ----------
 Symbolic Z-matrix:
 Charge =  0 Multiplicity = 1

                         Standard orientation:
 ---------------------------------------------------------------------
 Center     Atomic      Atomic             Coordinates (Angstroms)
 Number     Number       Type             X           Y           Z
 ---------------------------------------------------------------------
      1          6           0       -1.934824    0.105336    0.014289
      2          6           0       -0.539099   -0.469374   -0.041706
      3          1           0       -2.765685   -0.856621    0.140695
      4          1           0       -2.140175    0.845535   -0.909432
      5          1           0       -1.945719    0.646265    0.817278
      6          6           0        0.523281    0.524966   -0.010549
      7          1           0       -0.424548   -1.127196   -0.897588
      8          1           0       -0.331166   -0.989806    0.786399
      9          6           0        1.928312   -0.140756    0.009328
     10          1           0        0.399710    1.246738    1.017539
     11          1           0        0.535601    1.067260   -0.829691
     12          1           0        1.977552   -0.875220    0.986206
     13          1           0        2.727549    0.640108   -0.112000
     14          1           0        2.100861   -0.718095   -0.827576
 ---------------------------------------------------------------------

 SCF Done:  E(RB2PLYPD3) =  -158.044371066     A.U. after   11 cycles
 E2(B2PLYPD3) =    -0.2476272160D+00 E(B2PLYPD3) =    -0.15829199828179D+03

 The electronic state is 1-A.
 Alpha  occ. eigenvalues --  -10.61288 -10.61098 -10.60623 -10.58599  -0.92996
 Alpha  occ. eigenvalues --   -0.82997  -0.72863  -0.67059  -0.56038  -0.49113
 Alpha  occ. eigenvalues --   -0.48129  -0.47003  -0.42700  -0.41407  -0.38457
 Alpha  occ. eigenvalues --   -0.37783  -0.37284
 Alpha virt. eigenvalues --    0.05468   0.06532   0.07833   0.08622   0.10682
 Alpha virt. eigenvalues --    0.11570   0.12676   0.14063   0.14416   0.14950
 Alpha virt. eigenvalues --    0.15180   0.16318   0.19744   0.20019   0.21329

 Mulliken charges:
               1
     1  C   -0.173738
     2  C   -0.040755
     3  H    0.029609
     4  H    0.034796
     5  H    0.076580
     6  C   -0.050616
     7  H    0.030702
     8  H    0.055605
     9  C   -0.139509
    10  H    0.000046
    11  H    0.055637
    12  H    0.027464
    13  H    0.043690
    14  H    0.050490
 Sum of Mulliken charges =   0.00000

 Dipole moment (field-independent basis, Debye):
    X=              0.2107    Y=             -0.0054    Z=             -0.2022  Tot=              0.2921
 Quadrupole moment (field-independent basis, Debye-Ang):
   XX=            -30.9626   YY=            -29.0873   ZZ=            -28.1296
   XY=              0.2774   XZ=             -1.1004   YZ=             -0.3619

 Normal termination of Gaussian 09 at Wed Aug 26 19:36:59 2020.
