 Gaussian 09, Revision D.01,
 Gaussian 09:  ES64L-G09RevD.01 24-Apr-2013

 --------------------
 #p B2PLYPD3/Def2QZVP
 --------------------

 ----------
 butane_opt
 ----------
 Symbolic Z-matrix:
 Charge =  0 Multiplicity = 1

                         Standard orientation:
 ---------------------------------------------------------------------
 Center     Atomic      Atomic             Coordinates (Angstroms)
 Number     Number       Type             X           Y           Z
 ---------------------------------------------------------------------
      1          6           0       -1.946571   -0.029819   -0.258854
      2          6           0       -0.656363   -0.404859    0.380336
      3          1           0       -2.689392   -0.646879   -0.739008
      4          1           0       -1.626279    0.418244   -1.209872
      5          1           0       -2.546818    1.223056    0.694915
      6          6           0        0.554756    0.587927    0.097243
      7          1           0       -0.460966   -1.095238   -0.315679
      8          1           0       -0.758263   -1.133611    1.631670
      9          6           0        2.035141   -0.160457   -0.062978
     10          1           0        0.377907    1.326618    0.750470
     11          1           0        0.465107    1.152792   -0.842393
     12          1           0        2.344253   -0.377440    0.606841
     13          1           0        2.830518    0.528378   -0.363619
     14          1           0        2.142165   -1.352667   -1.147808
 ---------------------------------------------------------------------

 SCF Done:  E(RB2PLYPD3) =  -157.723399809     A.U. after   11 cycles
 E2(B2PLYPD3) =    -0.2559284119D+00 E(B2PLYPD3) =    -0.15797932822095D+03

 The electronic state is 1-A.
 Alpha  occ. eigenvalues --  -10.65598 -10.64296 -10.62978 -10.62931  -0.91807
 Alpha  occ. eigenvalues --   -0.85468  -0.76584  -0.67438  -0.54068  -0.50735
 Alpha  occ. eigenvalues --   -0.48981  -0.45051  -0.43827  -0.39591  -0.37659
 Alpha  occ. eigenvalues --   -0.36566  -0.32119
 Alpha virt. eigenvalues --    0.02714   0.02914   0.05875   0.07724   0.08479
 Alpha virt. eigenvalues --    0.10326   0.11293   0.12180   0.13178   0.14606
 Alpha virt. eigenvalues --    0.15451   0.16920   0.17967   0.18905   0.19649

 Mulliken charges:
               1
     1  C   -0.151460
     2  C   -0.089659
     3  H    0.083923
     4  H    0.061935
     5  H   -0.057129
     6  C   -0.030981
     7  H    0.100766
     8  H    0.018946
     9  C   -0.368055
    10  H    0.063982
    11  H    0.033451
    12  H    0.280876
    13  H    0.052233
    14  H    0.001171
 Sum of Mulliken charges =   0.00000

 Dipole moment (field-independent basis, Debye):
    X=              0.8579    Y=             -0.1987    Z=             -0.6146  Tot=              1.0738
 Quadrupole moment (field-independent basis, Debye-Ang):
   XX=            -31.4196   YY=            -30.2954   ZZ=            -28.9756
   XY=              2.9838   XZ=              2.6040   YZ=              0.3259

 Normal termination of Gaussian 09 at Wed Aug 26 08:47:08 2020.
