 Gaussian 09, Revision D.01,
 Gaussian 09:  ES64L-G09RevD.01 24-Apr-2013

 --------------------
 #p B2PLYPD3/Def2QZVP
 --------------------

 ----------
 butane_opt
 ----------
 Symbolic Z-matrix:
 Charge =  0 Multiplicity = 1

                         Standard orientation:
 ---------------------------------------------------------------------
 Center     Atomic      Atomic             Coordinates (Angstroms)
 Number     Number       Type             X           Y           Z
 ---------------------------------------------------------------------
      1          6           0       -1.933102    0.136315    0.016045
      2          6           0       -0.508970   -0.547506    0.012379
      3          1           0       -2.662369   -0.617774   -0.359982
      4          1           0       -1.959989    0.239355   -0.566360
      5          1           0       -2.294772    1.298984    1.198564
      6          6           0        0.545145    0.516058   -0.118430
      7          1           0       -0.470647   -1.371519   -0.915923
      8          1           0       -0.424528   -1.089326    0.904399
      9          6           0        1.939074   -0.082484    0.079068
     10          1           0        0.458791    0.922073    0.608463
     11          1           0        0.399034    1.263456   -1.123293
     12          1           0        1.970925   -0.803307    1.164452
     13          1           0        2.748711    0.635223   -0.163865
     14          1           0        1.981960   -0.611463   -0.680824
 ---------------------------------------------------------------------

 SCF Done:  E(RB2PLYPD3) =  -157.343734925     A.U. after   12 cycles
 E2(B2PLYPD3) =    -0.2531963337D+00 E(B2PLYPD3) =    -0.15759693125885D+03

 The electronic state is 1-A.
 Alpha  occ. eigenvalues --  -10.62413 -10.61666 -10.60100 -10.59096  -0.95163
 Alpha  occ. eigenvalues --   -0.89336  -0.76872  -0.68854  -0.54629  -0.49734
 Alpha  occ. eigenvalues --   -0.47482  -0.45834  -0.41594  -0.40237  -0.38701
 Alpha  occ. eigenvalues --   -0.37840  -0.35991
 Alpha virt. eigenvalues --    0.01602   0.05581   0.06540   0.07560   0.10321
 Alpha virt. eigenvalues --    0.10736   0.12482   0.12752   0.14013   0.15445
 Alpha virt. eigenvalues --    0.16068   0.16547   0.18598   0.19027   0.20805

 Mulliken charges:
               1
     1  C   -0.852273
     2  C    0.027669
     3  H    0.055675
     4  H    0.669696
     5  H    0.042191
     6  C   -0.230864
     7  H   -0.005408
     8  H    0.057518
     9  C   -0.183066
    10  H    0.221851
    11  H    0.023761
    12  H    0.035969
    13  H    0.043387
    14  H    0.093894
 Sum of Mulliken charges =   0.00000

 Dipole moment (field-independent basis, Debye):
    X=              0.1739    Y=             -0.0460    Z=             -0.4448  Tot=              0.4798
 Quadrupole moment (field-independent basis, Debye-Ang):
   XX=            -30.9166   YY=            -29.1896   ZZ=            -27.4461
   XY=              0.4249   XZ=              0.5874   YZ=              0.3950

 Normal termination of Gaussian 09 at Wed Aug 26 15:48:59 2020.
