 Gaussian 09, Revision D.01,
 Gaussian 09:  ES64L-G09RevD.01 24-Apr-2013

 --------------------
 #p B2PLYPD3/Def2QZVP
 --------------------

 ----------
 butane_opt
 ----------
 Symbolic Z-matrix:
 Charge =  0 Multiplicity = 1

                         Standard orientation:
 ---------------------------------------------------------------------
 Center     Atomic      Atomic             Coordinates (Angstroms)
 Number     Number       Type             X           Y           Z
 ---------------------------------------------------------------------
      1          6           0       -1.999414    0.101142   -0.087858
      2          6           0       -0.618121   -0.533227    0.162938
      3          1           0       -2.695674   -0.636885   -0.831138
      4          1           0       -1.559716    0.490485   -0.920041
      5          1           0       -2.355088    0.975590    0.833359
      6          6           0        0.568298    0.538318    0.060401
      7          1           0       -0.440402   -0.799510   -0.328852
      8          1           0       -0.637649   -1.363096    1.148706
      9          6           0        2.042540   -0.149079   -0.096708
     10          1           0        0.372580    1.456728    0.981212
     11          1           0        0.126305    0.921498   -0.780054
     12          1           0        2.211118   -0.638431    0.840548
     13          1           0        2.862401    0.603533   -0.261521
     14          1           0        2.156309   -0.752836   -0.914854
 ---------------------------------------------------------------------

 SCF Done:  E(RB2PLYPD3) =  -157.467503934     A.U. after   11 cycles
 E2(B2PLYPD3) =    -0.2526476678D+00 E(B2PLYPD3) =    -0.15772015160152D+03

 The electronic state is 1-A.
 Alpha  occ. eigenvalues --  -10.63658 -10.63281 -10.61196 -10.60066  -0.95681
 Alpha  occ. eigenvalues --   -0.83049  -0.74681  -0.69897  -0.54516  -0.50281
 Alpha  occ. eigenvalues --   -0.46682  -0.46574  -0.43311  -0.40348  -0.39674
 Alpha  occ. eigenvalues --   -0.37326  -0.34706
 Alpha virt. eigenvalues --    0.04574   0.06327   0.08328   0.08392   0.10720
 Alpha virt. eigenvalues --    0.11160   0.12050   0.12584   0.14399   0.14860
 Alpha virt. eigenvalues --    0.15752   0.17126   0.18465   0.18831   0.20008

 Mulliken charges:
               1
     1  C   -0.164374
     2  C   -0.869222
     3  H    0.046783
     4  H    0.076808
     5  H    0.067841
     6  C   -0.066147
     7  H    0.762677
     8  H    0.035835
     9  C   -0.140761
    10  H    0.015354
    11  H    0.071047
    12  H    0.074599
    13  H    0.040722
    14  H    0.048840
 Sum of Mulliken charges =   0.00000

 Dipole moment (field-independent basis, Debye):
    X=              0.4531    Y=             -0.0566    Z=             -0.7130  Tot=              0.8467
 Quadrupole moment (field-independent basis, Debye-Ang):
   XX=            -29.7807   YY=            -29.8852   ZZ=            -27.8339
   XY=             -0.6453   XZ=             -0.0407   YZ=              1.1664

 Normal termination of Gaussian 09 at Wed Aug 26 18:30:19 2020.
