 Gaussian 09, Revision D.01,
 Gaussian 09:  ES64L-G09RevD.01 24-Apr-2013

 --------------------
 #p B2PLYPD3/Def2QZVP
 --------------------

 ----------
 butane_opt
 ----------
 Symbolic Z-matrix:
 Charge =  0 Multiplicity = 1

                         Standard orientation:
 ---------------------------------------------------------------------
 Center     Atomic      Atomic             Coordinates (Angstroms)
 Number     Number       Type             X           Y           Z
 ---------------------------------------------------------------------
      1          6           0        1.968094   -0.181420   -0.086005
      2          6           0        0.473883    0.560575    0.148567
      3          1           0        2.685079    0.610780   -0.650952
      4          1           0        1.649190   -0.556201   -0.833260
      5          1           0        2.713067   -1.121239    1.014987
      6          6           0       -0.572125   -0.379793    0.046029
      7          1           0        0.367003    1.005507   -0.594431
      8          1           0        0.623612    1.262398    1.022560
      9          6           0       -1.909255    0.058779   -0.095531
     10          1           0       -0.731755   -1.046818    0.864742
     11          1           0       -0.109198   -0.823536   -0.826296
     12          1           0       -2.021842    0.744243    0.872441
     13          1           0       -2.926511   -0.958910   -0.004615
     14          1           0       -2.012230    0.534933   -0.943535
 ---------------------------------------------------------------------

 SCF Done:  E(RB2PLYPD3) =  -157.821911983     A.U. after   11 cycles
 E2(B2PLYPD3) =    -0.2535881399D+00 E(B2PLYPD3) =    -0.15807550012336D+03

 The electronic state is 1-A.
 Alpha  occ. eigenvalues --  -10.64067 -10.62706 -10.59839 -10.59073  -0.96564
 Alpha  occ. eigenvalues --   -0.84793  -0.74447  -0.67719  -0.58780  -0.50977
 Alpha  occ. eigenvalues --   -0.48780  -0.46497  -0.42345  -0.39411  -0.37870
 Alpha  occ. eigenvalues --   -0.36541  -0.35174
 Alpha virt. eigenvalues --    0.02589   0.04514   0.07882   0.08342   0.09594
 Alpha virt. eigenvalues --    0.09875   0.11414   0.12885   0.13749   0.15348
 Alpha virt. eigenvalues --    0.16079   0.16278   0.18495   0.19102   0.20990

 Mulliken charges:
               1
     1  C   -0.270324
     2  C   -0.179384
     3  H    0.034911
     4  H    0.159528
     5  H    0.041666
     6  C   -0.001480
     7  H    0.161266
     8  H    0.032682
     9  C   -0.173543
    10  H    0.043396
    11  H    0.021301
    12  H    0.053457
    13  H    0.013796
    14  H    0.062728
 Sum of Mulliken charges =   0.00000

 Dipole moment (field-independent basis, Debye):
    X=             -0.1282    Y=              0.3765    Z=             -0.5404  Tot=              0.6710
 Quadrupole moment (field-independent basis, Debye-Ang):
   XX=            -32.1312   YY=            -29.9709   ZZ=            -27.9853
   XY=              0.2565   XZ=             -0.5348   YZ=             -0.8656

 Normal termination of Gaussian 09 at Wed Aug 26 13:18:32 2020.
