 Gaussian 09, Revision D.01,
 Gaussian 09:  ES64L-G09RevD.01 24-Apr-2013

 --------------------
 #p B2PLYPD3/Def2QZVP
 --------------------

 ----------
 butane_opt
 ----------
 Symbolic Z-matrix:
 Charge =  0 Multiplicity = 1

                         Standard orientation:
 ---------------------------------------------------------------------
 Center     Atomic      Atomic             Coordinates (Angstroms)
 Number     Number       Type             X           Y           Z
 ---------------------------------------------------------------------
      1          6           0       -1.918619   -0.123424    0.124064
      2          6           0       -0.513999    0.502636   -0.216890
      3          1           0       -2.689444    0.596453    0.453661
      4          1           0       -1.508071   -0.799880    1.029444
      5          1           0       -2.386676   -0.850757   -0.869208
      6          6           0        0.519456   -0.408044   -0.069386
      7          1           0       -0.505104    1.079333    0.526286
      8          1           0       -0.571807    1.158842   -1.190453
      9          6           0        1.895418    0.081866    0.117723
     10          1           0        0.745699   -1.245637   -1.006870
     11          1           0        0.058732   -1.062144    1.073870
     12          1           0        1.891104    0.507948   -0.726587
     13          1           0        2.902333   -0.777847   -0.187824
     14          1           0        2.169695    1.075483    1.164617
 ---------------------------------------------------------------------

 SCF Done:  E(RB2PLYPD3) =  -157.874347846     A.U. after   11 cycles
 E2(B2PLYPD3) =    -0.2570532577D+00 E(B2PLYPD3) =    -0.15813140110381D+03

 The electronic state is 1-A.
 Alpha  occ. eigenvalues --  -10.65301 -10.64410 -10.63917 -10.60325  -0.95187
 Alpha  occ. eigenvalues --   -0.84303  -0.71720  -0.64328  -0.55165  -0.50973
 Alpha  occ. eigenvalues --   -0.48438  -0.45692  -0.41990  -0.39433  -0.37970
 Alpha  occ. eigenvalues --   -0.35475  -0.33947
 Alpha virt. eigenvalues --    0.03632   0.05686   0.06132   0.06741   0.09726
 Alpha virt. eigenvalues --    0.10643   0.12017   0.12800   0.13314   0.14288
 Alpha virt. eigenvalues --    0.15433   0.15882   0.17772   0.19883   0.20325

 Mulliken charges:
               1
     1  C   -0.159205
     2  C   -0.072317
     3  H    0.058784
     4  H    0.060006
     5  H    0.023103
     6  C   -0.021607
     7  H    0.104874
     8  H    0.019203
     9  C   -0.208095
    10  H    0.038083
    11  H   -0.023293
    12  H    0.120514
    13  H    0.042104
    14  H    0.017845
 Sum of Mulliken charges =   0.00000

 Dipole moment (field-independent basis, Debye):
    X=             -0.0676    Y=              0.6474    Z=             -0.4880  Tot=              0.8135
 Quadrupole moment (field-independent basis, Debye-Ang):
   XX=            -31.1653   YY=            -30.5094   ZZ=            -29.1871
   XY=             -1.3567   XZ=             -1.4806   YZ=              1.0004

 Normal termination of Gaussian 09 at Wed Aug 26 19:11:42 2020.
