 Gaussian 09, Revision D.01,
 Gaussian 09:  ES64L-G09RevD.01 24-Apr-2013

 --------------------
 #p B2PLYPD3/Def2QZVP
 --------------------

 ----------
 butane_opt
 ----------
 Symbolic Z-matrix:
 Charge =  0 Multiplicity = 1

                         Standard orientation:
 ---------------------------------------------------------------------
 Center     Atomic      Atomic             Coordinates (Angstroms)
 Number     Number       Type             X           Y           Z
 ---------------------------------------------------------------------
      1          6           0        1.983457   -0.119536    0.032648
      2          6           0        0.614523    0.420290    0.010718
      3          1           0        2.993825    0.858497   -0.147024
      4          1           0        2.051246   -0.173765   -0.612805
      5          1           0        2.094071   -1.116828    1.160965
      6          6           0       -0.581026   -0.547181   -0.023291
      7          1           0        0.469308    1.475947   -1.100621
      8          1           0        0.379061    1.049910    0.687198
      9          6           0       -2.041697    0.104031    0.016855
     10          1           0       -0.451542   -0.992894    0.670200
     11          1           0       -0.273582   -1.325966   -1.037548
     12          1           0       -2.572727    1.112260    1.277415
     13          1           0       -2.591394   -0.406152   -0.533010
     14          1           0       -1.949814    0.373368   -0.586350
 ---------------------------------------------------------------------

 SCF Done:  E(RB2PLYPD3) =  -157.048490971     A.U. after   12 cycles
 E2(B2PLYPD3) =    -0.2581867217D+00 E(B2PLYPD3) =    -0.15730667769318D+03

 The electronic state is 1-A.
 Alpha  occ. eigenvalues --  -10.63525 -10.63316 -10.62052 -10.60187  -0.96696
 Alpha  occ. eigenvalues --   -0.92692  -0.82585  -0.70057  -0.53648  -0.52125
 Alpha  occ. eigenvalues --   -0.47370  -0.44712  -0.43451  -0.41790  -0.37785
 Alpha  occ. eigenvalues --   -0.35419  -0.33327
 Alpha virt. eigenvalues --    0.00565   0.03028   0.03778   0.06679   0.08436
 Alpha virt. eigenvalues --    0.09778   0.11435   0.12173   0.13711   0.14784
 Alpha virt. eigenvalues --    0.15938   0.16642   0.17640   0.18506   0.19995

 Mulliken charges:
               1
     1  C   -0.734553
     2  C    0.013086
     3  H    0.029634
     4  H    0.594958
     5  H    0.063397
     6  C   -0.173121
     7  H   -0.073587
     8  H    0.083832
     9  C   -0.715282
    10  H    0.196069
    11  H    0.008836
    12  H    0.058361
    13  H    0.064493
    14  H    0.583877
 Sum of Mulliken charges =   0.00000

 Dipole moment (field-independent basis, Debye):
    X=             -0.3077    Y=             -0.3857    Z=              0.0482  Tot=              0.4957
 Quadrupole moment (field-independent basis, Debye-Ang):
   XX=            -30.4591   YY=            -30.3859   ZZ=            -27.9480
   XY=             -1.1348   XZ=              0.4152   YZ=              0.5854

 Normal termination of Gaussian 09 at Wed Aug 26 15:37:03 2020.
