 Gaussian 09, Revision D.01,
 Gaussian 09:  ES64L-G09RevD.01 24-Apr-2013

 --------------------
 #p B2PLYPD3/Def2QZVP
 --------------------

 ----------
 butane_opt
 ----------
 Symbolic Z-matrix:
 Charge =  0 Multiplicity = 1

                         Standard orientation:
 ---------------------------------------------------------------------
 Center     Atomic      Atomic             Coordinates (Angstroms)
 Number     Number       Type             X           Y           Z
 ---------------------------------------------------------------------
      1          6           0       -1.897501    0.031425    0.098185
      2          6           0       -0.619063   -0.385064   -0.142659
      3          1           0       -2.606892   -0.746226    0.444986
      4          1           0       -2.094936    0.638594   -0.643254
      5          1           0       -1.670164    0.937615    1.103923
      6          6           0        0.505526    0.551716   -0.219370
      7          1           0       -0.626607   -1.069217   -0.983036
      8          1           0       -0.526242   -1.107239    0.734632
      9          6           0        1.952039   -0.181194    0.105192
     10          1           0        0.516808    1.178142    0.659990
     11          1           0        0.301522    1.230125   -1.119484
     12          1           0        1.717829   -0.756025    1.015225
     13          1           0        2.947270    0.681510    0.590612
     14          1           0        2.395409   -1.088579   -0.851679
 ---------------------------------------------------------------------

 SCF Done:  E(RB2PLYPD3) =  -157.956738354     A.U. after   11 cycles
 E2(B2PLYPD3) =    -0.2530492936D+00 E(B2PLYPD3) =    -0.15820978764805D+03

 The electronic state is 1-A.
 Alpha  occ. eigenvalues --  -10.67115 -10.62621 -10.60857 -10.59612  -0.94480
 Alpha  occ. eigenvalues --   -0.82897  -0.70760  -0.65958  -0.56154  -0.52096
 Alpha  occ. eigenvalues --   -0.47974  -0.46288  -0.42303  -0.38835  -0.37561
 Alpha  occ. eigenvalues --   -0.36786  -0.34664
 Alpha virt. eigenvalues --    0.04444   0.05508   0.07457   0.07795   0.10030
 Alpha virt. eigenvalues --    0.10684   0.11615   0.12554   0.14010   0.14296
 Alpha virt. eigenvalues --    0.15283   0.16534   0.18628   0.19488   0.20415

 Mulliken charges:
               1
     1  C   -0.164724
     2  C    0.020203
     3  H    0.082652
     4  H    0.063859
     5  H   -0.019741
     6  C   -0.053717
     7  H    0.026248
     8  H   -0.005317
     9  C   -0.188284
    10  H    0.051538
    11  H    0.035763
    12  H    0.086900
    13  H    0.032602
    14  H    0.032018
 Sum of Mulliken charges =   0.00000

 Dipole moment (field-independent basis, Debye):
    X=             -0.4632    Y=             -0.2760    Z=             -0.0454  Tot=              0.5411
 Quadrupole moment (field-independent basis, Debye-Ang):
   XX=            -31.6289   YY=            -29.5417   ZZ=            -29.0716
   XY=              1.3389   XZ=              1.4426   YZ=             -0.3312

 Normal termination of Gaussian 09 at Wed Aug 26 23:35:30 2020.
