 Gaussian 09, Revision D.01,
 Gaussian 09:  ES64L-G09RevD.01 24-Apr-2013

 --------------------
 #p B2PLYPD3/Def2QZVP
 --------------------

 ----------
 butane_opt
 ----------
 Symbolic Z-matrix:
 Charge =  0 Multiplicity = 1

                         Standard orientation:
 ---------------------------------------------------------------------
 Center     Atomic      Atomic             Coordinates (Angstroms)
 Number     Number       Type             X           Y           Z
 ---------------------------------------------------------------------
      1          6           0        2.052265   -0.150875   -0.083386
      2          6           0        0.552698    0.579611    0.189362
      3          1           0        2.688852    0.547810   -0.936842
      4          1           0        1.901928   -0.305209   -0.812178
      5          1           0        2.724518   -1.392021    1.111461
      6          6           0       -0.593450   -0.466277   -0.010434
      7          1           0        0.404313    1.027803   -0.595318
      8          1           0        0.348216    1.371213    1.196269
      9          6           0       -2.003090    0.035916   -0.100340
     10          1           0       -0.895018   -1.059360    0.899693
     11          1           0       -0.436257   -0.820597   -0.754007
     12          1           0       -1.855331    0.812023    1.011436
     13          1           0       -2.850026   -0.724611   -0.124394
     14          1           0       -2.081735    0.552696   -0.967332
 ---------------------------------------------------------------------

 SCF Done:  E(RB2PLYPD3) =  -157.577017180     A.U. after   13 cycles
 E2(B2PLYPD3) =    -0.2588980968D+00 E(B2PLYPD3) =    -0.15783591527647D+03

 The electronic state is 1-A.
 Alpha  occ. eigenvalues --  -10.64901 -10.63495 -10.62302 -10.58445  -0.93989
 Alpha  occ. eigenvalues --   -0.87353  -0.76421  -0.68536  -0.58075  -0.49944
 Alpha  occ. eigenvalues --   -0.48554  -0.44070  -0.41087  -0.39238  -0.36754
 Alpha  occ. eigenvalues --   -0.35829  -0.33824
 Alpha virt. eigenvalues --   -0.02215   0.04744   0.05922   0.08181   0.09400
 Alpha virt. eigenvalues --    0.10810   0.10896   0.12309   0.12822   0.15508
 Alpha virt. eigenvalues --    0.16315   0.17003   0.17942   0.18536   0.19299

 Mulliken charges:
               1
     1  C   -0.555837
     2  C   -0.117248
     3  H    0.020313
     4  H    0.449889
     5  H    0.050993
     6  C   -0.171521
     7  H    0.130691
     8  H    0.024897
     9  C   -0.164405
    10  H    0.042769
    11  H    0.156146
    12  H    0.028167
    13  H    0.061836
    14  H    0.043311
 Sum of Mulliken charges =   0.00000

 Dipole moment (field-independent basis, Debye):
    X=             -0.5637    Y=             -0.3424    Z=             -1.2133  Tot=              1.3810
 Quadrupole moment (field-independent basis, Debye-Ang):
   XX=            -32.6417   YY=            -30.4522   ZZ=            -27.1425
   XY=              0.4529   XZ=             -0.6912   YZ=             -0.8687

 Normal termination of Gaussian 09 at Wed Aug 26 10:52:08 2020.
