 Gaussian 09, Revision D.01,
 Gaussian 09:  ES64L-G09RevD.01 24-Apr-2013

 --------------------
 #p B2PLYPD3/Def2QZVP
 --------------------

 ----------
 butane_opt
 ----------
 Symbolic Z-matrix:
 Charge =  0 Multiplicity = 1

                         Standard orientation:
 ---------------------------------------------------------------------
 Center     Atomic      Atomic             Coordinates (Angstroms)
 Number     Number       Type             X           Y           Z
 ---------------------------------------------------------------------
      1          6           0       -1.777128    0.044498   -0.166009
      2          6           0       -0.598219   -0.484127    0.092664
      3          1           0       -2.594462   -0.800207   -0.033336
      4          1           0       -2.154276    0.641597   -1.075311
      5          1           0       -2.047977    0.753163    0.711701
      6          6           0        0.461281    0.569782    0.155429
      7          1           0       -0.270038   -0.800665   -0.473808
      8          1           0       -0.592951   -1.090224    1.144959
      9          6           0        1.932370   -0.127335   -0.086278
     10          1           0        0.507626    1.524255    1.214025
     11          1           0        0.026377    0.885212   -0.615802
     12          1           0        2.392560   -0.956865    0.822841
     13          1           0        2.706441    0.565165   -0.796927
     14          1           0        1.916874   -0.738336   -0.873173
 ---------------------------------------------------------------------

 SCF Done:  E(RB2PLYPD3) =  -157.724528606     A.U. after   11 cycles
 E2(B2PLYPD3) =    -0.2535292463D+00 E(B2PLYPD3) =    -0.15797805785247D+03

 The electronic state is 1-A.
 Alpha  occ. eigenvalues --  -10.63763 -10.62875 -10.61013 -10.57378  -0.99348
 Alpha  occ. eigenvalues --   -0.82782  -0.74565  -0.69471  -0.57686  -0.52935
 Alpha  occ. eigenvalues --   -0.48281  -0.45271  -0.41698  -0.39859  -0.38773
 Alpha  occ. eigenvalues --   -0.36986  -0.33938
 Alpha virt. eigenvalues --    0.04652   0.05841   0.07446   0.07856   0.10544
 Alpha virt. eigenvalues --    0.11224   0.11875   0.12465   0.13569   0.15531
 Alpha virt. eigenvalues --    0.15801   0.16542   0.18323   0.19197   0.21252

 Mulliken charges:
               1
     1  C   -0.128598
     2  C   -0.500834
     3  H    0.039226
     4  H    0.042869
     5  H    0.044508
     6  C   -0.105920
     7  H    0.460664
     8  H    0.048675
     9  C   -0.184757
    10  H    0.011141
    11  H    0.131879
    12  H    0.046617
    13  H    0.033430
    14  H    0.061101
 Sum of Mulliken charges =   0.00000

 Dipole moment (field-independent basis, Debye):
    X=             -0.3366    Y=             -0.5048    Z=             -0.7052  Tot=              0.9303
 Quadrupole moment (field-independent basis, Debye-Ang):
   XX=            -30.6233   YY=            -29.9213   ZZ=            -28.0993
   XY=             -1.2518   XZ=             -0.6854   YZ=             -0.4429

 Normal termination of Gaussian 09 at Wed Aug 26 18:42:41 2020.
