 Gaussian 09, Revision D.01,
 Gaussian 09:  ES64L-G09RevD.01 24-Apr-2013

 --------------------
 #p B2PLYPD3/Def2QZVP
 --------------------

 ----------
 butane_opt
 ----------
 Symbolic Z-matrix:
 Charge =  0 Multiplicity = 1

                         Standard orientation:
 ---------------------------------------------------------------------
 Center     Atomic      Atomic             Coordinates (Angstroms)
 Number     Number       Type             X           Y           Z
 ---------------------------------------------------------------------
      1          6           0        1.988086   -0.143717    0.041163
      2          6           0        0.533862    0.589623   -0.146059
      3          1           0        2.703900    0.559851    0.605008
      4          1           0        2.396262   -1.190074   -1.019256
      5          1           0        1.806779   -0.741367    0.925489
      6          6           0       -0.570827   -0.391260   -0.053949
      7          1           0        0.295172    1.525421   -1.106809
      8          1           0        0.268860    0.953744    0.638062
      9          6           0       -1.922397    0.074750    0.055981
     10          1           0       -0.310113   -1.288899    0.946929
     11          1           0       -0.518904   -0.953519   -0.788483
     12          1           0       -1.779647    0.973970    1.094466
     13          1           0       -3.001798   -0.935202   -0.186627
     14          1           0       -2.032854    0.319700   -0.491597
 ---------------------------------------------------------------------

 SCF Done:  E(RB2PLYPD3) =  -157.367562011     A.U. after   12 cycles
 E2(B2PLYPD3) =    -0.2571355395D+00 E(B2PLYPD3) =    -0.15762469755094D+03

 The electronic state is 1-A.
 Alpha  occ. eigenvalues --  -10.66119 -10.62867 -10.62829 -10.60889  -0.96546
 Alpha  occ. eigenvalues --   -0.86617  -0.75348  -0.69165  -0.57280  -0.48908
 Alpha  occ. eigenvalues --   -0.46852  -0.46197  -0.40801  -0.39636  -0.38109
 Alpha  occ. eigenvalues --   -0.36475  -0.35320
 Alpha virt. eigenvalues --    0.02405   0.03256   0.05764   0.07224   0.09453
 Alpha virt. eigenvalues --    0.10056   0.11624   0.12657   0.13120   0.14125
 Alpha virt. eigenvalues --    0.15288   0.15931   0.17899   0.19199   0.19720

 Mulliken charges:
               1
     1  C   -0.171710
     2  C   -0.149694
     3  H    0.056337
     4  H    0.039422
     5  H    0.072743
     6  C    0.029160
     7  H    0.014042
     8  H    0.157589
     9  C   -0.765489
    10  H   -0.018622
    11  H    0.072172
    12  H    0.040517
    13  H    0.030155
    14  H    0.593376
 Sum of Mulliken charges =   0.00000

 Dipole moment (field-independent basis, Debye):
    X=              0.1338    Y=              0.1713    Z=             -0.0300  Tot=              0.2194
 Quadrupole moment (field-independent basis, Debye-Ang):
   XX=            -32.0213   YY=            -29.7758   ZZ=            -28.7424
   XY=             -0.1692   XZ=              2.7865   YZ=              1.0782

 Normal termination of Gaussian 09 at Wed Aug 26 11:42:30 2020.
