 Gaussian 09, Revision D.01,
 Gaussian 09:  ES64L-G09RevD.01 24-Apr-2013

 --------------------
 #p B2PLYPD3/Def2QZVP
 --------------------

 ----------
 butane_opt
 ----------
 Symbolic Z-matrix:
 Charge =  0 Multiplicity = 1

                         Standard orientation:
 ---------------------------------------------------------------------
 Center     Atomic      Atomic             Coordinates (Angstroms)
 Number     Number       Type             X           Y           Z
 ---------------------------------------------------------------------
      1          6           0        1.983083    0.114940   -0.143910
      2          6           0        0.567771   -0.596687    0.233928
      3          1           0        2.767079   -0.413918   -0.797953
      4          1           0        2.481549    0.993758    1.016396
      5          1           0        1.621625    0.395774   -0.754704
      6          6           0       -0.582755    0.521761    0.086869
      7          1           0        0.426780   -1.321855    1.232556
      8          1           0        0.520563   -1.113394   -0.479797
      9          6           0       -1.974949   -0.089190   -0.104421
     10          1           0       -0.244823    1.391840   -0.948856
     11          1           0       -0.397986    1.250720    0.862687
     12          1           0       -1.898019   -1.010749   -1.153735
     13          1           0       -2.754589    0.589603    0.011904
     14          1           0       -2.481082   -0.466725    0.576706
 ---------------------------------------------------------------------

 SCF Done:  E(RB2PLYPD3) =  -157.698804999     A.U. after   11 cycles
 E2(B2PLYPD3) =    -0.2541465861D+00 E(B2PLYPD3) =    -0.15795295158514D+03

 The electronic state is 1-A.
 Alpha  occ. eigenvalues --  -10.64962 -10.61738 -10.61634 -10.61506  -0.92230
 Alpha  occ. eigenvalues --   -0.86344  -0.76265  -0.69004  -0.53848  -0.49972
 Alpha  occ. eigenvalues --   -0.47996  -0.44845  -0.42345  -0.39791  -0.38322
 Alpha  occ. eigenvalues --   -0.35587  -0.34634
 Alpha virt. eigenvalues --    0.04018   0.04834   0.06677   0.07842   0.09897
 Alpha virt. eigenvalues --    0.09993   0.11908   0.13138   0.13912   0.15415
 Alpha virt. eigenvalues --    0.16060   0.16434   0.17602   0.19180   0.20079

 Mulliken charges:
               1
     1  C   -0.515982
     2  C   -0.148445
     3  H    0.056942
     4  H    0.023609
     5  H    0.408798
     6  C   -0.031219
     7  H    0.032299
     8  H    0.156836
     9  C   -0.157726
    10  H   -0.012264
    11  H    0.049327
    12  H    0.028889
    13  H    0.042773
    14  H    0.066162
 Sum of Mulliken charges =   0.00000

 Dipole moment (field-independent basis, Debye):
    X=             -0.7535    Y=             -0.2104    Z=              0.0703  Tot=              0.7855
 Quadrupole moment (field-independent basis, Debye-Ang):
   XX=            -29.5890   YY=            -29.8906   ZZ=            -28.6238
   XY=             -0.4123   XZ=             -2.8135   YZ=              1.2850

 Normal termination of Gaussian 09 at Wed Aug 26 16:04:28 2020.
