 Gaussian 09, Revision D.01,
 Gaussian 09:  ES64L-G09RevD.01 24-Apr-2013

 --------------------
 #p B2PLYPD3/Def2QZVP
 --------------------

 ----------
 butane_opt
 ----------
 Symbolic Z-matrix:
 Charge =  0 Multiplicity = 1

                         Standard orientation:
 ---------------------------------------------------------------------
 Center     Atomic      Atomic             Coordinates (Angstroms)
 Number     Number       Type             X           Y           Z
 ---------------------------------------------------------------------
      1          6           0       -1.894882    0.129177    0.056375
      2          6           0       -0.533005   -0.443130    0.049316
      3          1           0       -2.688308   -0.676605   -0.620176
      4          1           0       -1.666018    0.408742   -0.723112
      5          1           0       -2.588569    1.256895    1.135920
      6          6           0        0.563965    0.445478   -0.162145
      7          1           0       -0.507039   -1.411159   -0.747139
      8          1           0       -0.498401   -1.030096    1.119198
      9          6           0        1.879706   -0.137554    0.081592
     10          1           0        0.496151    0.819941    0.514844
     11          1           0        0.488253    1.109840   -1.311752
     12          1           0        1.953394   -0.626225    1.017819
     13          1           0        2.885502    1.030728    0.187700
     14          1           0        2.030336   -0.845891   -0.724129
 ---------------------------------------------------------------------

 SCF Done:  E(RB2PLYPD3) =  -157.644112493     A.U. after   12 cycles
 E2(B2PLYPD3) =    -0.2584311145D+00 E(B2PLYPD3) =    -0.15790254360772D+03

 The electronic state is 1-A.
 Alpha  occ. eigenvalues --  -10.64446 -10.63859 -10.63798 -10.59320  -0.97962
 Alpha  occ. eigenvalues --   -0.87804  -0.73697  -0.66288  -0.57449  -0.50736
 Alpha  occ. eigenvalues --   -0.47910  -0.45716  -0.41479  -0.40598  -0.36344
 Alpha  occ. eigenvalues --   -0.35235  -0.34342
 Alpha virt. eigenvalues --    0.00410   0.03756   0.05261   0.06366   0.08911
 Alpha virt. eigenvalues --    0.10335   0.11633   0.12008   0.13992   0.14646
 Alpha virt. eigenvalues --    0.15604   0.16196   0.18110   0.19297   0.19470

 Mulliken charges:
               1
     1  C   -0.342951
     2  C   -0.018374
     3  H    0.037686
     4  H    0.225718
     5  H    0.044987
     6  C   -0.393853
     7  H    0.018398
     8  H    0.009911
     9  C   -0.147660
    10  H    0.389166
    11  H    0.036171
    12  H    0.075576
    13  H   -0.002537
    14  H    0.067763
 Sum of Mulliken charges =   0.00000

 Dipole moment (field-independent basis, Debye):
    X=              0.0044    Y=             -0.2153    Z=             -0.2477  Tot=              0.3282
 Quadrupole moment (field-independent basis, Debye-Ang):
   XX=            -33.6560   YY=            -30.0696   ZZ=            -28.3004
   XY=             -0.6148   XZ=              0.9916   YZ=              0.9856

 Normal termination of Gaussian 09 at Wed Aug 26 15:44:13 2020.
