 Gaussian 09, Revision D.01,
 Gaussian 09:  ES64L-G09RevD.01 24-Apr-2013

 --------------------
 #p B2PLYPD3/Def2QZVP
 --------------------

 ----------
 butane_opt
 ----------
 Symbolic Z-matrix:
 Charge =  0 Multiplicity = 1

                         Standard orientation:
 ---------------------------------------------------------------------
 Center     Atomic      Atomic             Coordinates (Angstroms)
 Number     Number       Type             X           Y           Z
 ---------------------------------------------------------------------
      1          6           0       -2.020561    0.139918    0.097017
      2          6           0       -0.532040   -0.603420   -0.201203
      3          1           0       -2.694360   -0.545190    0.473294
      4          1           0       -2.405767    0.405355   -0.463948
      5          1           0       -1.792800    1.066741    1.134166
      6          6           0        0.619079    0.565346   -0.269993
      7          1           0       -0.621508   -1.077947   -1.062523
      8          1           0       -0.519215   -1.078295    0.650138
      9          6           0        1.967600   -0.121064    0.161062
     10          1           0        0.388961    1.032511    0.582823
     11          1           0        0.719953    1.449108   -1.172488
     12          1           0        1.627348   -0.671613    1.003380
     13          1           0        2.651472    0.344530    0.774801
     14          1           0        2.441451   -0.809878   -0.640946
 ---------------------------------------------------------------------

 SCF Done:  E(RB2PLYPD3) =  -157.814458039     A.U. after   11 cycles
 E2(B2PLYPD3) =    -0.2492200594D+00 E(B2PLYPD3) =    -0.15806367809798D+03

 The electronic state is 1-A.
 Alpha  occ. eigenvalues --  -10.62331 -10.60652 -10.59579 -10.59041  -0.90166
 Alpha  occ. eigenvalues --   -0.84784  -0.76467  -0.68662  -0.56219  -0.50137
 Alpha  occ. eigenvalues --   -0.48940  -0.46073  -0.44347  -0.39631  -0.38433
 Alpha  occ. eigenvalues --   -0.36682  -0.36127
 Alpha virt. eigenvalues --    0.05425   0.06699   0.07962   0.08757   0.10787
 Alpha virt. eigenvalues --    0.11188   0.12554   0.13339   0.14505   0.15335
 Alpha virt. eigenvalues --    0.16593   0.18110   0.18642   0.18818   0.20995

 Mulliken charges:
               1
     1  C   -0.433221
     2  C   -0.068015
     3  H    0.045937
     4  H    0.315895
     5  H    0.002648
     6  C   -0.116845
     7  H    0.052218
     8  H    0.101511
     9  C   -0.151509
    10  H    0.093285
    11  H    0.036696
    12  H    0.034572
    13  H    0.044922
    14  H    0.041905
 Sum of Mulliken charges =   0.00000

 Dipole moment (field-independent basis, Debye):
    X=             -0.2069    Y=             -0.3825    Z=              0.1127  Tot=              0.4493
 Quadrupole moment (field-independent basis, Debye-Ang):
   XX=            -29.2757   YY=            -29.2916   ZZ=            -27.5782
   XY=              0.9973   XZ=              1.3030   YZ=              0.0487

 Normal termination of Gaussian 09 at Wed Aug 26 16:08:57 2020.
