 Gaussian 09, Revision D.01,
 Gaussian 09:  ES64L-G09RevD.01 24-Apr-2013

 --------------------
 #p B2PLYPD3/Def2QZVP
 --------------------

 ----------
 butane_opt
 ----------
 Symbolic Z-matrix:
 Charge =  0 Multiplicity = 1

                         Standard orientation:
 ---------------------------------------------------------------------
 Center     Atomic      Atomic             Coordinates (Angstroms)
 Number     Number       Type             X           Y           Z
 ---------------------------------------------------------------------
      1          6           0       -1.989965   -0.156327    0.057753
      2          6           0       -0.509855    0.592806   -0.015585
      3          1           0       -2.731635    0.618238   -0.358448
      4          1           0       -2.441326   -1.306343    1.128126
      5          1           0       -1.881581   -0.360532   -0.538242
      6          6           0        0.587231   -0.486371   -0.112526
      7          1           0       -0.326865    1.113838    0.798382
      8          1           0       -0.529100    1.454634   -0.990629
      9          6           0        1.918469    0.079289    0.080448
     10          1           0        0.433421   -1.308547   -1.191400
     11          1           0        0.531281   -0.944569    0.656455
     12          1           0        2.158911    0.399693   -0.604342
     13          1           0        2.672770   -0.703546   -0.130263
     14          1           0        2.078852    0.860757    1.169820
 ---------------------------------------------------------------------

 SCF Done:  E(RB2PLYPD3) =  -157.403822174     A.U. after   12 cycles
 E2(B2PLYPD3) =    -0.2536055162D+00 E(B2PLYPD3) =    -0.15765742769005D+03

 The electronic state is 1-A.
 Alpha  occ. eigenvalues --  -10.63111 -10.61366 -10.60899 -10.58946  -0.94132
 Alpha  occ. eigenvalues --   -0.88864  -0.78207  -0.69226  -0.53810  -0.49131
 Alpha  occ. eigenvalues --   -0.47717  -0.45644  -0.42653  -0.40388  -0.38056
 Alpha  occ. eigenvalues --   -0.36783  -0.36486
 Alpha virt. eigenvalues --    0.02475   0.05363   0.05855   0.07237   0.10272
 Alpha virt. eigenvalues --    0.10914   0.11921   0.12686   0.13850   0.15504
 Alpha virt. eigenvalues --    0.16187   0.16230   0.17979   0.18901   0.20796

 Mulliken charges:
               1
     1  C   -0.819855
     2  C   -0.020439
     3  H    0.076203
     4  H    0.045044
     5  H    0.640615
     6  C   -0.117245
     7  H    0.070720
     8  H    0.000899
     9  C   -0.334600
    10  H   -0.000224
    11  H    0.159311
    12  H    0.220512
    13  H    0.035573
    14  H    0.043486
 Sum of Mulliken charges =   0.00000

 Dipole moment (field-independent basis, Debye):
    X=              0.5079    Y=              0.0921    Z=             -0.3573  Tot=              0.6278
 Quadrupole moment (field-independent basis, Debye-Ang):
   XX=            -30.5200   YY=            -29.0347   ZZ=            -27.9387
   XY=              0.1141   XZ=              0.2622   YZ=             -0.2373

 Normal termination of Gaussian 09 at Wed Aug 26 09:49:24 2020.
