 Gaussian 09, Revision D.01,
 Gaussian 09:  ES64L-G09RevD.01 24-Apr-2013

 --------------------
 #p B2PLYPD3/Def2QZVP
 --------------------

 ----------
 butane_opt
 ----------
 Symbolic Z-matrix:
 Charge =  0 Multiplicity = 1

                         Standard orientation:
 ---------------------------------------------------------------------
 Center     Atomic      Atomic             Coordinates (Angstroms)
 Number     Number       Type             X           Y           Z
 ---------------------------------------------------------------------
      1          6           0        1.920635    0.052718   -0.094565
      2          6           0        0.587601   -0.481228    0.111624
      3          1           0        2.678299   -0.580780   -0.221973
      4          1           0        2.236160    0.837290    0.804554
      5          1           0        1.817419    0.562914   -0.994494
      6          6           0       -0.545212    0.551770    0.060667
      7          1           0        0.558348   -1.294339    1.099800
      8          1           0        0.490378   -0.976967   -0.575385
      9          6           0       -1.978256   -0.126341   -0.049425
     10          1           0       -0.243178    1.056571   -0.813122
     11          1           0       -0.370610    1.468504    1.002064
     12          1           0       -1.947989   -0.859159   -0.934516
     13          1           0       -2.668754    0.461066   -0.338728
     14          1           0       -2.458685   -0.656615    0.801998
 ---------------------------------------------------------------------

 SCF Done:  E(RB2PLYPD3) =  -157.978883111     A.U. after   11 cycles
 E2(B2PLYPD3) =    -0.2476262839D+00 E(B2PLYPD3) =    -0.15822650939471D+03

 The electronic state is 1-A.
 Alpha  occ. eigenvalues --  -10.63476 -10.60142 -10.59195 -10.59030  -0.93243
 Alpha  occ. eigenvalues --   -0.84109  -0.74571  -0.67674  -0.53804  -0.51985
 Alpha  occ. eigenvalues --   -0.49042  -0.46550  -0.43278  -0.40956  -0.39565
 Alpha  occ. eigenvalues --   -0.37456  -0.36406
 Alpha virt. eigenvalues --    0.05696   0.06695   0.07986   0.08329   0.10632
 Alpha virt. eigenvalues --    0.12478   0.12882   0.13326   0.14843   0.15279
 Alpha virt. eigenvalues --    0.16115   0.16959   0.19332   0.19535   0.21479

 Mulliken charges:
               1
     1  C   -0.127215
     2  C   -0.162469
     3  H    0.051956
     4  H    0.022440
     5  H    0.038114
     6  C   -0.059095
     7  H   -0.003227
     8  H    0.172996
     9  C   -0.125501
    10  H    0.058448
    11  H    0.006821
    12  H    0.017917
    13  H    0.060642
    14  H    0.048172
 Sum of Mulliken charges =   0.00000

 Dipole moment (field-independent basis, Debye):
    X=             -0.1641    Y=             -0.1890    Z=             -0.7435  Tot=              0.7845
 Quadrupole moment (field-independent basis, Debye-Ang):
   XX=            -28.1519   YY=            -29.6154   ZZ=            -28.4951
   XY=             -0.4601   XZ=             -0.4247   YZ=              0.2037

 Normal termination of Gaussian 09 at Wed Aug 26 11:27:51 2020.
