 Gaussian 09, Revision D.01,
 Gaussian 09:  ES64L-G09RevD.01 24-Apr-2013

 --------------------
 #p B2PLYPD3/Def2QZVP
 --------------------

 ----------
 butane_opt
 ----------
 Symbolic Z-matrix:
 Charge =  0 Multiplicity = 1

                         Standard orientation:
 ---------------------------------------------------------------------
 Center     Atomic      Atomic             Coordinates (Angstroms)
 Number     Number       Type             X           Y           Z
 ---------------------------------------------------------------------
      1          6           0       -2.013681   -0.102365    0.138623
      2          6           0       -0.547541    0.592768   -0.223230
      3          1           0       -2.799354    0.725107    0.021266
      4          1           0       -1.945361   -0.947267    1.195019
      5          1           0       -2.462131   -0.781955   -0.665073
      6          6           0        0.517229   -0.563802   -0.029467
      7          1           0       -0.197717    1.112944    0.651858
      8          1           0       -0.586840    1.255862   -1.042652
      9          6           0        2.014092    0.079254    0.072451
     10          1           0        0.792502   -1.335722   -0.884229
     11          1           0        0.400082   -1.092861    0.673175
     12          1           0        1.814006    0.273038   -0.427320
     13          1           0        2.729787   -0.399191   -0.486630
     14          1           0        2.434438    1.154917    1.214316
 ---------------------------------------------------------------------

 SCF Done:  E(RB2PLYPD3) =  -157.307280748     A.U. after   12 cycles
 E2(B2PLYPD3) =    -0.2545876518D+00 E(B2PLYPD3) =    -0.15756186839930D+03

 The electronic state is 1-A.
 Alpha  occ. eigenvalues --  -10.65017 -10.62957 -10.61868 -10.60190  -0.95710
 Alpha  occ. eigenvalues --   -0.85531  -0.75372  -0.69825  -0.52944  -0.51020
 Alpha  occ. eigenvalues --   -0.47841  -0.44357  -0.42619  -0.41521  -0.39252
 Alpha  occ. eigenvalues --   -0.36257  -0.34183
 Alpha virt. eigenvalues --    0.03803   0.04903   0.06958   0.07993   0.10152
 Alpha virt. eigenvalues --    0.10852   0.12108   0.12691   0.13535   0.15072
 Alpha virt. eigenvalues --    0.15959   0.16880   0.18089   0.19682   0.19937

 Mulliken charges:
               1
     1  C   -0.160104
     2  C   -0.068489
     3  H    0.047581
     4  H    0.038842
     5  H    0.039867
     6  C   -0.082666
     7  H    0.066144
     8  H    0.055997
     9  C   -0.942740
    10  H    0.011839
    11  H    0.128502
    12  H    0.777607
    13  H    0.067486
    14  H    0.020133
 Sum of Mulliken charges =   0.00000

 Dipole moment (field-independent basis, Debye):
    X=             -0.5726    Y=              0.0264    Z=             -0.7873  Tot=              0.9738
 Quadrupole moment (field-independent basis, Debye-Ang):
   XX=            -31.0764   YY=            -28.6144   ZZ=            -28.4511
   XY=             -0.4603   XZ=             -0.5156   YZ=             -0.3597

 Normal termination of Gaussian 09 at Wed Aug 26 20:21:44 2020.
