 Gaussian 09, Revision D.01,
 Gaussian 09:  ES64L-G09RevD.01 24-Apr-2013

 --------------------
 #p B2PLYPD3/Def2QZVP
 --------------------

 ----------
 butane_opt
 ----------
 Symbolic Z-matrix:
 Charge =  0 Multiplicity = 1

                         Standard orientation:
 ---------------------------------------------------------------------
 Center     Atomic      Atomic             Coordinates (Angstroms)
 Number     Number       Type             X           Y           Z
 ---------------------------------------------------------------------
      1          6           0       -1.958787   -0.199944    0.135018
      2          6           0       -0.485733    0.579193   -0.155759
      3          1           0       -2.657347    0.321166    0.616437
      4          1           0       -1.415008   -0.725224    0.817101
      5          1           0       -2.599913   -0.778660   -0.635379
      6          6           0        0.578258   -0.337061   -0.194765
      7          1           0       -0.186670    0.819446    0.504434
      8          1           0       -0.705731    1.509267   -1.058871
      9          6           0        1.873690    0.041875    0.106481
     10          1           0        0.492876   -0.794209   -1.016384
     11          1           0        0.415494   -1.257668    0.546287
     12          1           0        2.048088    0.280592   -0.429754
     13          1           0        2.782460   -0.817291   -0.078808
     14          1           0        1.781185    0.938202    1.389087
 ---------------------------------------------------------------------

 SCF Done:  E(RB2PLYPD3) =  -157.317204677     A.U. after   12 cycles
 E2(B2PLYPD3) =    -0.2532753348D+00 E(B2PLYPD3) =    -0.15757048001182D+03

 The electronic state is 1-A.
 Alpha  occ. eigenvalues --  -10.61605 -10.59781 -10.59552 -10.58850  -0.99701
 Alpha  occ. eigenvalues --   -0.89012  -0.78106  -0.70935  -0.58722  -0.53030
 Alpha  occ. eigenvalues --   -0.48852  -0.46482  -0.44871  -0.41465  -0.37955
 Alpha  occ. eigenvalues --   -0.36065  -0.33884
 Alpha virt. eigenvalues --    0.03408   0.06393   0.06513   0.07336   0.10217
 Alpha virt. eigenvalues --    0.11305   0.12603   0.13430   0.14290   0.14870
 Alpha virt. eigenvalues --    0.15986   0.16857   0.17040   0.19622   0.22031

 Mulliken charges:
               1
     1  C   -0.155234
     2  C   -0.423407
     3  H    0.049504
     4  H    0.065800
     5  H    0.047057
     6  C    0.044974
     7  H    0.382271
     8  H    0.027421
     9  C   -0.778573
    10  H    0.050035
    11  H    0.003916
    12  H    0.605320
    13  H    0.065806
    14  H    0.015111
 Sum of Mulliken charges =   0.00000

 Dipole moment (field-independent basis, Debye):
    X=              0.0044    Y=             -0.1890    Z=             -0.4341  Tot=              0.4734
 Quadrupole moment (field-independent basis, Debye-Ang):
   XX=            -28.5419   YY=            -29.7632   ZZ=            -28.3379
   XY=             -0.8138   XZ=             -1.1635   YZ=              0.5212

 Normal termination of Gaussian 09 at Wed Aug 26 21:49:55 2020.
