 Gaussian 09, Revision D.01,
 Gaussian 09:  ES64L-G09RevD.01 24-Apr-2013

 --------------------
 #p B2PLYPD3/Def2QZVP
 --------------------

 ----------
 butane_opt
 ----------
 Symbolic Z-matrix:
 Charge =  0 Multiplicity = 1

                         Standard orientation:
 ---------------------------------------------------------------------
 Center     Atomic      Atomic             Coordinates (Angstroms)
 Number     Number       Type             X           Y           Z
 ---------------------------------------------------------------------
      1          6           0       -1.923281    0.104802   -0.117617
      2          6           0       -0.571491   -0.599319    0.072568
      3          1           0       -2.740553   -0.568775    0.066159
      4          1           0       -2.577750    0.966063   -0.974061
      5          1           0       -2.018696    0.651003    0.742728
      6          6           0        0.491216    0.525616    0.207589
      7          1           0       -0.368770   -1.304724   -0.819631
      8          1           0       -0.554280   -1.115923    0.928678
      9          6           0        2.008399   -0.112435   -0.122252
     10          1           0        0.573676    1.283524    1.287614
     11          1           0        0.435160    1.285605   -0.762833
     12          1           0        2.538008   -0.858333    0.866373
     13          1           0        2.875756    0.672971   -0.579922
     14          1           0        1.808392   -0.523402   -0.996835
 ---------------------------------------------------------------------

 SCF Done:  E(RB2PLYPD3) =  -157.946965796     A.U. after   11 cycles
 E2(B2PLYPD3) =    -0.2540507570D+00 E(B2PLYPD3) =    -0.15820101655325D+03

 The electronic state is 1-A.
 Alpha  occ. eigenvalues --  -10.65950 -10.63615 -10.62645 -10.61641  -0.90506
 Alpha  occ. eigenvalues --   -0.81215  -0.72354  -0.65105  -0.53162  -0.49012
 Alpha  occ. eigenvalues --   -0.46803  -0.45545  -0.41087  -0.39357  -0.38401
 Alpha  occ. eigenvalues --   -0.36451  -0.35248
 Alpha virt. eigenvalues --    0.04955   0.05441   0.07103   0.07938   0.08797
 Alpha virt. eigenvalues --    0.10865   0.12082   0.13323   0.13591   0.14415
 Alpha virt. eigenvalues --    0.15947   0.16411   0.18219   0.19406   0.20441

 Mulliken charges:
               1
     1  C   -0.168330
     2  C   -0.023710
     3  H    0.028963
     4  H    0.033426
     5  H    0.054968
     6  C   -0.084398
     7  H    0.031591
     8  H    0.082140
     9  C   -0.195869
    10  H    0.037626
    11  H    0.043253
    12  H    0.035075
    13  H    0.030793
    14  H    0.094470
 Sum of Mulliken charges =   0.00000

 Dipole moment (field-independent basis, Debye):
    X=             -0.3851    Y=             -0.3056    Z=              0.1521  Tot=              0.5147
 Quadrupole moment (field-independent basis, Debye-Ang):
   XX=            -30.7391   YY=            -29.8662   ZZ=            -28.5964
   XY=              0.1290   XZ=             -0.8928   YZ=             -0.4168

 Normal termination of Gaussian 09 at Wed Aug 26 14:16:16 2020.
