 Gaussian 09, Revision D.01,
 Gaussian 09:  ES64L-G09RevD.01 24-Apr-2013

 --------------------
 #p B2PLYPD3/Def2QZVP
 --------------------

 ----------
 butane_opt
 ----------
 Symbolic Z-matrix:
 Charge =  0 Multiplicity = 1

                         Standard orientation:
 ---------------------------------------------------------------------
 Center     Atomic      Atomic             Coordinates (Angstroms)
 Number     Number       Type             X           Y           Z
 ---------------------------------------------------------------------
      1          6           0        1.910759    0.111634    0.040393
      2          6           0        0.628897   -0.473385   -0.051476
      3          1           0        2.746565   -0.811924    0.187552
      4          1           0        2.014659    0.988151    0.997463
      5          1           0        2.052311    0.595464   -0.766272
      6          6           0       -0.544534    0.556476   -0.167104
      7          1           0        0.503171   -1.166281    0.815801
      8          1           0        0.557396   -1.210292   -0.920551
      9          6           0       -2.006579   -0.152487    0.080027
     10          1           0       -0.465366    1.174175   -0.985635
     11          1           0       -0.307159    1.154251    0.675639
     12          1           0       -2.449249   -0.867390   -0.828706
     13          1           0       -2.805744    0.633373    0.455609
     14          1           0       -1.777841   -0.742957    0.958059
 ---------------------------------------------------------------------

 SCF Done:  E(RB2PLYPD3) =  -158.036356516     A.U. after   11 cycles
 E2(B2PLYPD3) =    -0.2491141965D+00 E(B2PLYPD3) =    -0.15828547071240D+03

 The electronic state is 1-A.
 Alpha  occ. eigenvalues --  -10.63130 -10.61432 -10.60755 -10.60717  -0.91915
 Alpha  occ. eigenvalues --   -0.82462  -0.71657  -0.66861  -0.54012  -0.50185
 Alpha  occ. eigenvalues --   -0.47583  -0.45915  -0.42396  -0.40675  -0.39226
 Alpha  occ. eigenvalues --   -0.38177  -0.35284
 Alpha virt. eigenvalues --    0.05373   0.06279   0.07829   0.08620   0.10794
 Alpha virt. eigenvalues --    0.11034   0.12508   0.13205   0.14747   0.15248
 Alpha virt. eigenvalues --    0.15443   0.15966   0.18756   0.20010   0.21351

 Mulliken charges:
               1
     1  C   -0.170213
     2  C    0.004384
     3  H    0.041079
     4  H    0.012377
     5  H    0.082206
     6  C   -0.067778
     7  H    0.020081
     8  H    0.016553
     9  C   -0.184736
    10  H    0.048198
    11  H    0.044280
    12  H    0.044566
    13  H    0.043937
    14  H    0.065065
 Sum of Mulliken charges =   0.00000

 Dipole moment (field-independent basis, Debye):
    X=              0.0317    Y=              0.0314    Z=             -0.1144  Tot=              0.1227
 Quadrupole moment (field-independent basis, Debye-Ang):
   XX=            -30.9503   YY=            -28.8861   ZZ=            -28.6035
   XY=             -0.3848   XZ=             -0.4185   YZ=             -0.0421

 Normal termination of Gaussian 09 at Wed Aug 26 13:26:41 2020.
