 Gaussian 09, Revision D.01,
 Gaussian 09:  ES64L-G09RevD.01 24-Apr-2013

 --------------------
 #p B2PLYPD3/Def2QZVP
 --------------------

 ----------
 butane_opt
 ----------
 Symbolic Z-matrix:
 Charge =  0 Multiplicity = 1

                         Standard orientation:
 ---------------------------------------------------------------------
 Center     Atomic      Atomic             Coordinates (Angstroms)
 Number     Number       Type             X           Y           Z
 ---------------------------------------------------------------------
      1          6           0        2.042267   -0.165111   -0.098201
      2          6           0        0.540301    0.592657    0.146254
      3          1           0        2.783933    0.262690   -0.741424
      4          1           0        1.921384   -0.600329   -0.744356
      5          1           0        2.721921   -0.902435    0.923362
      6          6           0       -0.584874   -0.421678    0.148238
      7          1           0        0.245434    1.105249   -0.781670
      8          1           0        0.604875    1.306294    1.116138
      9          6           0       -2.002033    0.071901   -0.149544
     10          1           0       -0.628766   -0.695417    0.848454
     11          1           0       -0.569992   -1.221477   -0.682769
     12          1           0       -2.209596    0.542816    0.573872
     13          1           0       -2.909447   -0.879697    0.172833
     14          1           0       -1.933719    0.615690   -0.964925
 ---------------------------------------------------------------------

 SCF Done:  E(RB2PLYPD3) =  -157.675396909     A.U. after   11 cycles
 E2(B2PLYPD3) =    -0.2501118051D+00 E(B2PLYPD3) =    -0.15792550871439D+03

 The electronic state is 1-A.
 Alpha  occ. eigenvalues --  -10.63991 -10.60340 -10.58842 -10.57170  -0.93515
 Alpha  occ. eigenvalues --   -0.85966  -0.77420  -0.70067  -0.58076  -0.49498
 Alpha  occ. eigenvalues --   -0.47896  -0.46730  -0.42975  -0.41168  -0.38248
 Alpha  occ. eigenvalues --   -0.37751  -0.35207
 Alpha virt. eigenvalues --    0.05029   0.05366   0.08146   0.08489   0.10304
 Alpha virt. eigenvalues --    0.10726   0.12233   0.12598   0.14797   0.15668
 Alpha virt. eigenvalues --    0.16092   0.16665   0.18231   0.19226   0.20773

 Mulliken charges:
               1
     1  C   -0.398603
     2  C   -0.041136
     3  H    0.039369
     4  H    0.284178
     5  H    0.032700
     6  C   -0.348322
     7  H    0.040545
     8  H    0.039883
     9  C   -0.188565
    10  H    0.304741
    11  H    0.045345
    12  H    0.108645
    13  H    0.020875
    14  H    0.060345
 Sum of Mulliken charges =   0.00000

 Dipole moment (field-independent basis, Debye):
    X=             -0.2226    Y=              0.0891    Z=             -0.1890  Tot=              0.3053
 Quadrupole moment (field-independent basis, Debye-Ang):
   XX=            -30.4529   YY=            -29.7962   ZZ=            -26.9570
   XY=             -0.6899   XZ=             -1.8009   YZ=             -0.2127

 Normal termination of Gaussian 09 at Wed Aug 26 21:46:46 2020.
