 Gaussian 09, Revision D.01,
 Gaussian 09:  ES64L-G09RevD.01 24-Apr-2013

 --------------------
 #p B2PLYPD3/Def2QZVP
 --------------------

 ----------
 butane_opt
 ----------
 Symbolic Z-matrix:
 Charge =  0 Multiplicity = 1

                         Standard orientation:
 ---------------------------------------------------------------------
 Center     Atomic      Atomic             Coordinates (Angstroms)
 Number     Number       Type             X           Y           Z
 ---------------------------------------------------------------------
      1          6           0        1.965637   -0.175382   -0.134107
      2          6           0        0.593474    0.665210    0.071256
      3          1           0        2.515489    0.358222   -0.202773
      4          1           0        2.190600   -1.151713   -1.079600
      5          1           0        2.517394   -0.504995    0.704411
      6          6           0       -0.579650   -0.414617    0.365994
      7          1           0        0.325822    0.859194   -0.785011
      8          1           0        0.468641    1.435397    0.700481
      9          6           0       -1.926766    0.025101   -0.285246
     10          1           0       -0.815719   -1.191290    1.541512
     11          1           0       -0.294897   -0.874545   -0.160546
     12          1           0       -2.543090    1.191723    0.677975
     13          1           0       -2.863705   -0.930588   -0.510682
     14          1           0       -1.816705    0.206723   -0.993143
 ---------------------------------------------------------------------

 SCF Done:  E(RB2PLYPD3) =  -157.422467161     A.U. after   12 cycles
 E2(B2PLYPD3) =    -0.2532471249D+00 E(B2PLYPD3) =    -0.15767571428565D+03

 The electronic state is 1-A.
 Alpha  occ. eigenvalues --  -10.63821 -10.60974 -10.60767 -10.60037  -0.94478
 Alpha  occ. eigenvalues --   -0.87308  -0.79534  -0.72654  -0.56013  -0.51161
 Alpha  occ. eigenvalues --   -0.47577  -0.46583  -0.42550  -0.41107  -0.38397
 Alpha  occ. eigenvalues --   -0.37253  -0.33921
 Alpha virt. eigenvalues --    0.02906   0.04982   0.07304   0.07699   0.08630
 Alpha virt. eigenvalues --    0.10652   0.12081   0.12961   0.14124   0.15449
 Alpha virt. eigenvalues --    0.15883   0.16610   0.18502   0.19586   0.19918

 Mulliken charges:
               1
     1  C   -0.387284
     2  C   -0.111132
     3  H    0.276287
     4  H    0.039709
     5  H    0.038313
     6  C   -0.428003
     7  H    0.132261
     8  H    0.070330
     9  C   -0.478405
    10  H    0.028304
    11  H    0.424466
    12  H   -0.008698
    13  H    0.036755
    14  H    0.367096
 Sum of Mulliken charges =   0.00000

 Dipole moment (field-independent basis, Debye):
    X=              1.1995    Y=              0.1177    Z=             -0.7328  Tot=              1.4105
 Quadrupole moment (field-independent basis, Debye-Ang):
   XX=            -30.1284   YY=            -29.0911   ZZ=            -28.5280
   XY=              1.1824   XZ=              1.1586   YZ=              0.9149

 Normal termination of Gaussian 09 at Wed Aug 26 15:08:21 2020.
