 Gaussian 09, Revision D.01,
 Gaussian 09:  ES64L-G09RevD.01 24-Apr-2013

 --------------------
 #p B2PLYPD3/Def2QZVP
 --------------------

 ----------
 butane_opt
 ----------
 Symbolic Z-matrix:
 Charge =  0 Multiplicity = 1

                         Standard orientation:
 ---------------------------------------------------------------------
 Center     Atomic      Atomic             Coordinates (Angstroms)
 Number     Number       Type             X           Y           Z
 ---------------------------------------------------------------------
      1          6           0        1.937180   -0.115213   -0.057119
      2          6           0        0.598045    0.469868    0.078431
      3          1           0        2.679551    0.709152   -0.074658
      4          1           0        2.143004   -0.638210   -0.872980
      5          1           0        2.087466   -0.676246    0.739905
      6          6           0       -0.515499   -0.518936   -0.048509
      7          1           0        0.577556    0.993177   -0.659016
      8          1           0        0.469322    1.285117    1.200042
      9          6           0       -2.004007    0.132563   -0.008173
     10          1           0       -0.366581   -1.282871    0.903193
     11          1           0       -0.544120   -1.129082   -0.907787
     12          1           0       -2.038913    0.423890    0.673022
     13          1           0       -2.783229   -0.636042    0.307788
     14          1           0       -2.318372    1.141419   -1.097285
 ---------------------------------------------------------------------

 SCF Done:  E(RB2PLYPD3) =  -157.789294491     A.U. after   11 cycles
 E2(B2PLYPD3) =    -0.2493393205D+00 E(B2PLYPD3) =    -0.15803863381108D+03

 The electronic state is 1-A.
 Alpha  occ. eigenvalues --  -10.62482 -10.60814 -10.60676 -10.57443  -0.93034
 Alpha  occ. eigenvalues --   -0.86347  -0.76353  -0.68121  -0.55658  -0.50379
 Alpha  occ. eigenvalues --   -0.48062  -0.46918  -0.43034  -0.41099  -0.38194
 Alpha  occ. eigenvalues --   -0.37235  -0.36391
 Alpha virt. eigenvalues --    0.04570   0.05558   0.07395   0.07670   0.10523
 Alpha virt. eigenvalues --    0.11082   0.12455   0.12910   0.14628   0.15327
 Alpha virt. eigenvalues --    0.15754   0.16620   0.19153   0.19527   0.20741

 Mulliken charges:
               1
     1  C   -0.120113
     2  C   -0.095745
     3  H    0.031187
     4  H    0.043533
     5  H    0.051501
     6  C   -0.013067
     7  H    0.108267
     8  H   -0.006966
     9  C   -0.498089
    10  H   -0.002152
    11  H    0.055614
    12  H    0.367124
    13  H    0.050027
    14  H    0.028878
 Sum of Mulliken charges =   0.00000

 Dipole moment (field-independent basis, Debye):
    X=              0.3455    Y=             -0.1844    Z=             -0.0266  Tot=              0.3925
 Quadrupole moment (field-independent basis, Debye-Ang):
   XX=            -29.8778   YY=            -29.2424   ZZ=            -28.0070
   XY=              0.2335   XZ=             -1.5617   YZ=             -0.4559

 Normal termination of Gaussian 09 at Wed Aug 26 11:33:07 2020.
