 Gaussian 09, Revision D.01,
 Gaussian 09:  ES64L-G09RevD.01 24-Apr-2013

 --------------------
 #p B2PLYPD3/Def2QZVP
 --------------------

 ----------
 butane_opt
 ----------
 Symbolic Z-matrix:
 Charge =  0 Multiplicity = 1

                         Standard orientation:
 ---------------------------------------------------------------------
 Center     Atomic      Atomic             Coordinates (Angstroms)
 Number     Number       Type             X           Y           Z
 ---------------------------------------------------------------------
      1          6           0       -1.985025   -0.085346   -0.006147
      2          6           0       -0.538709    0.512131    0.006784
      3          1           0       -2.711876    0.598658   -0.123822
      4          1           0       -1.923994   -0.486682    0.731513
      5          1           0       -2.030845   -1.003279   -1.037300
      6          6           0        0.485941   -0.584685    0.125751
      7          1           0       -0.573516    1.215604    0.816959
      8          1           0       -0.246326    1.214569   -0.960054
      9          6           0        1.951113    0.105489   -0.096440
     10          1           0        0.448383   -0.862125   -0.462675
     11          1           0        0.582891   -1.238702    1.185000
     12          1           0        2.019363    0.333418   -0.787402
     13          1           0        2.564584   -0.627173   -0.465159
     14          1           0        2.391412    1.170172    0.923251
 ---------------------------------------------------------------------

 SCF Done:  E(RB2PLYPD3) =  -157.396457363     A.U. after   11 cycles
 E2(B2PLYPD3) =    -0.2506232063D+00 E(B2PLYPD3) =    -0.15764708056975D+03

 The electronic state is 1-A.
 Alpha  occ. eigenvalues --  -10.61945 -10.59633 -10.59579 -10.59303  -0.95426
 Alpha  occ. eigenvalues --   -0.87475  -0.80527  -0.69295  -0.56215  -0.53661
 Alpha  occ. eigenvalues --   -0.48030  -0.46398  -0.43552  -0.39449  -0.39001
 Alpha  occ. eigenvalues --   -0.36978  -0.35571
 Alpha virt. eigenvalues --    0.04250   0.05897   0.07574   0.08267   0.09807
 Alpha virt. eigenvalues --    0.11009   0.12125   0.12883   0.14024   0.15135
 Alpha virt. eigenvalues --    0.16388   0.17083   0.18991   0.19379   0.20631

 Mulliken charges:
               1
     1  C   -0.272165
     2  C    0.019924
     3  H    0.067995
     4  H    0.192020
     5  H   -0.009600
     6  C   -0.722651
     7  H    0.042947
     8  H    0.007897
     9  C   -0.464929
    10  H    0.633503
    11  H    0.063719
    12  H    0.365517
    13  H    0.040513
    14  H    0.035310
 Sum of Mulliken charges =   0.00000

 Dipole moment (field-independent basis, Debye):
    X=             -0.1166    Y=              0.0334    Z=             -0.1907  Tot=              0.2260
 Quadrupole moment (field-independent basis, Debye-Ang):
   XX=            -30.5216   YY=            -28.9320   ZZ=            -27.4557
   XY=             -1.4253   XZ=             -2.1929   YZ=              0.4870

 Normal termination of Gaussian 09 at Wed Aug 26 19:43:55 2020.
