 Gaussian 09, Revision D.01,
 Gaussian 09:  ES64L-G09RevD.01 24-Apr-2013

 --------------------
 #p B2PLYPD3/Def2QZVP
 --------------------

 ----------
 butane_opt
 ----------
 Symbolic Z-matrix:
 Charge =  0 Multiplicity = 1

                         Standard orientation:
 ---------------------------------------------------------------------
 Center     Atomic      Atomic             Coordinates (Angstroms)
 Number     Number       Type             X           Y           Z
 ---------------------------------------------------------------------
      1          6           0       -1.892348   -0.169100   -0.081460
      2          6           0       -0.476576    0.600853    0.133632
      3          1           0       -2.612801    0.370899   -0.855163
      4          1           0       -2.449577   -0.793627    0.947731
      5          1           0       -1.719586   -0.728903   -0.890021
      6          6           0        0.521682   -0.464809    0.093908
      7          1           0       -0.406531    1.653210    1.172060
      8          1           0       -0.553729    0.835613   -0.673636
      9          6           0        1.868116    0.068981   -0.142473
     10          1           0        0.523422   -0.878580   -0.503596
     11          1           0        0.324128   -1.061820    1.079484
     12          1           0        2.119220    0.670000   -0.995464
     13          1           0        2.757206   -0.804336    0.143859
     14          1           0        1.893002    0.521992    0.553105
 ---------------------------------------------------------------------

 SCF Done:  E(RB2PLYPD3) =  -157.623844484     A.U. after   11 cycles
 E2(B2PLYPD3) =    -0.2518958766D+00 E(B2PLYPD3) =    -0.15787574036014D+03

 The electronic state is 1-A.
 Alpha  occ. eigenvalues --  -10.63010 -10.61887 -10.57677 -10.56818  -0.97099
 Alpha  occ. eigenvalues --   -0.86135  -0.75214  -0.70986  -0.59247  -0.50401
 Alpha  occ. eigenvalues --   -0.48627  -0.46302  -0.43472  -0.39801  -0.38729
 Alpha  occ. eigenvalues --   -0.36265  -0.35474
 Alpha virt. eigenvalues --    0.04637   0.06096   0.06907   0.08455   0.10632
 Alpha virt. eigenvalues --    0.11188   0.11762   0.13067   0.14794   0.15423
 Alpha virt. eigenvalues --    0.16034   0.16648   0.17812   0.19181   0.21918

 Mulliken charges:
               1
     1  C   -0.188770
     2  C   -0.250079
     3  H    0.024709
     4  H    0.047172
     5  H    0.083809
     6  C   -0.465765
     7  H    0.034574
     8  H    0.257809
     9  C   -0.310821
    10  H    0.421117
    11  H    0.060781
    12  H    0.056397
    13  H    0.020777
    14  H    0.208289
 Sum of Mulliken charges =   0.00000

 Dipole moment (field-independent basis, Debye):
    X=              0.0096    Y=             -0.0433    Z=             -0.6311  Tot=              0.6326
 Quadrupole moment (field-independent basis, Debye-Ang):
   XX=            -31.4448   YY=            -29.6676   ZZ=            -26.8680
   XY=              0.8511   XZ=              0.7496   YZ=             -0.2681

 Normal termination of Gaussian 09 at Wed Aug 26 15:26:06 2020.
