 Gaussian 09, Revision D.01,
 Gaussian 09:  ES64L-G09RevD.01 24-Apr-2013

 --------------------
 #p B2PLYPD3/Def2QZVP
 --------------------

 ----------
 butane_opt
 ----------
 Symbolic Z-matrix:
 Charge =  0 Multiplicity = 1

                         Standard orientation:
 ---------------------------------------------------------------------
 Center     Atomic      Atomic             Coordinates (Angstroms)
 Number     Number       Type             X           Y           Z
 ---------------------------------------------------------------------
      1          6           0        1.980176    0.073457   -0.201467
      2          6           0        0.617070   -0.401123    0.362214
      3          1           0        2.746313   -0.872856   -0.462544
      4          1           0        2.482119    0.679478    0.365128
      5          1           0        1.453698    0.429081   -1.047567
      6          6           0       -0.503992    0.600061    0.055179
      7          1           0        0.588264   -0.774373    1.484988
      8          1           0        0.469923   -1.098943   -0.321629
      9          6           0       -2.094367   -0.193332   -0.107959
     10          1           0       -0.089124    0.898584   -0.719482
     11          1           0       -0.687036    1.524067    0.793485
     12          1           0       -1.868461   -1.285242   -0.927120
     13          1           0       -2.735364    0.411850   -0.565779
     14          1           0       -2.353658   -0.386028    0.752721
 ---------------------------------------------------------------------

 SCF Done:  E(RB2PLYPD3) =  -157.940114517     A.U. after   11 cycles
 E2(B2PLYPD3) =    -0.2497322251D+00 E(B2PLYPD3) =    -0.15818984674164D+03

 The electronic state is 1-A.
 Alpha  occ. eigenvalues --  -10.61638 -10.61406 -10.60478 -10.60132  -0.92320
 Alpha  occ. eigenvalues --   -0.82209  -0.75364  -0.67448  -0.56493  -0.51258
 Alpha  occ. eigenvalues --   -0.47971  -0.47324  -0.43375  -0.40608  -0.39189
 Alpha  occ. eigenvalues --   -0.36873  -0.34720
 Alpha virt. eigenvalues --    0.05425   0.06472   0.08205   0.08704   0.10687
 Alpha virt. eigenvalues --    0.11643   0.12380   0.13522   0.14523   0.14957
 Alpha virt. eigenvalues --    0.15860   0.17120   0.18025   0.18796   0.20985

 Mulliken charges:
               1
     1  C   -0.164214
     2  C   -0.092359
     3  H    0.026860
     4  H    0.064367
     5  H    0.062101
     6  C   -0.127775
     7  H    0.019683
     8  H    0.093217
     9  C   -0.189553
    10  H    0.102662
    11  H    0.016847
    12  H    0.008395
    13  H    0.072378
    14  H    0.107391
 Sum of Mulliken charges =   0.00000

 Dipole moment (field-independent basis, Debye):
    X=             -0.1259    Y=              0.2661    Z=              0.0495  Tot=              0.2985
 Quadrupole moment (field-independent basis, Debye-Ang):
   XX=            -28.9385   YY=            -29.5129   ZZ=            -28.6319
   XY=             -0.8378   XZ=             -0.1409   YZ=              0.5810

 Normal termination of Gaussian 09 at Wed Aug 26 14:42:09 2020.
