 Gaussian 09, Revision D.01,
 Gaussian 09:  ES64L-G09RevD.01 24-Apr-2013

 --------------------
 #p B2PLYPD3/Def2QZVP
 --------------------

 ----------
 butane_opt
 ----------
 Symbolic Z-matrix:
 Charge =  0 Multiplicity = 1

                         Standard orientation:
 ---------------------------------------------------------------------
 Center     Atomic      Atomic             Coordinates (Angstroms)
 Number     Number       Type             X           Y           Z
 ---------------------------------------------------------------------
      1          6           0        2.041629   -0.165606   -0.076058
      2          6           0        0.574487    0.647046    0.141852
      3          1           0        2.723516    0.282739   -0.781330
      4          1           0        1.627440   -0.359526   -0.690751
      5          1           0        2.656280   -1.283257    1.106034
      6          6           0       -0.615707   -0.486540   -0.008072
      7          1           0        0.338294    1.232224   -0.784215
      8          1           0        0.390017    1.513110    1.158741
      9          6           0       -1.941579    0.048947   -0.062889
     10          1           0       -0.863811   -1.303573    0.848408
     11          1           0       -0.373575   -0.995517   -0.787282
     12          1           0       -1.976340    0.773401    0.996333
     13          1           0       -2.822187   -0.736309   -0.118716
     14          1           0       -2.052611    0.613631   -0.916223
 ---------------------------------------------------------------------

 SCF Done:  E(RB2PLYPD3) =  -157.720945675     A.U. after   11 cycles
 E2(B2PLYPD3) =    -0.2569583257D+00 E(B2PLYPD3) =    -0.15797790400097D+03

 The electronic state is 1-A.
 Alpha  occ. eigenvalues --  -10.67082 -10.62694 -10.61781 -10.61089  -0.92744
 Alpha  occ. eigenvalues --   -0.87474  -0.72786  -0.66612  -0.54539  -0.49309
 Alpha  occ. eigenvalues --   -0.48076  -0.46033  -0.41158  -0.38395  -0.37164
 Alpha  occ. eigenvalues --   -0.36726  -0.35068
 Alpha virt. eigenvalues --    0.00595   0.04996   0.07036   0.07459   0.09299
 Alpha virt. eigenvalues --    0.10850   0.11011   0.12399   0.13938   0.15489
 Alpha virt. eigenvalues --    0.16058   0.16875   0.17606   0.18241   0.19342

 Mulliken charges:
               1
     1  C   -0.512497
     2  C   -0.091396
     3  H    0.067351
     4  H    0.394682
     5  H    0.046735
     6  C   -0.046386
     7  H    0.058045
     8  H    0.020801
     9  C   -0.163934
    10  H    0.014789
    11  H    0.074523
    12  H    0.043915
    13  H    0.048650
    14  H    0.044722
 Sum of Mulliken charges =   0.00000

 Dipole moment (field-independent basis, Debye):
    X=             -0.4034    Y=             -0.1941    Z=             -1.0876  Tot=              1.1761
 Quadrupole moment (field-independent basis, Debye-Ang):
   XX=            -31.3060   YY=            -30.0768   ZZ=            -28.1362
   XY=              0.3923   XZ=             -0.6924   YZ=             -0.6443

 Normal termination of Gaussian 09 at Wed Aug 26 19:57:56 2020.
