 Gaussian 09, Revision D.01,
 Gaussian 09:  ES64L-G09RevD.01 24-Apr-2013

 --------------------
 #p B2PLYPD3/Def2QZVP
 --------------------

 ----------
 butane_opt
 ----------
 Symbolic Z-matrix:
 Charge =  0 Multiplicity = 1

                         Standard orientation:
 ---------------------------------------------------------------------
 Center     Atomic      Atomic             Coordinates (Angstroms)
 Number     Number       Type             X           Y           Z
 ---------------------------------------------------------------------
      1          6           0       -2.002804   -0.201076    0.194150
      2          6           0       -0.547769    0.605765   -0.265304
      3          1           0       -2.643387    0.428059    0.783982
      4          1           0       -1.838484   -0.602808    0.802227
      5          1           0       -2.657194   -1.082726   -0.859845
      6          6           0        0.625374   -0.409121   -0.177772
      7          1           0       -0.551694    1.042808    0.503706
      8          1           0       -0.638109    1.414980   -1.035466
      9          6           0        2.008502    0.019588    0.138165
     10          1           0        0.836517   -0.974216   -1.030892
     11          1           0        0.250519   -0.947002    0.572559
     12          1           0        1.951980    0.678362   -0.668383
     13          1           0        2.796785   -0.842927    0.228704
     14          1           0        1.993247    0.794529    1.367973
 ---------------------------------------------------------------------

 SCF Done:  E(RB2PLYPD3) =  -157.744626360     A.U. after   11 cycles
 E2(B2PLYPD3) =    -0.2513416577D+00 E(B2PLYPD3) =    -0.15799596801731D+03

 The electronic state is 1-A.
 Alpha  occ. eigenvalues --  -10.63611 -10.61295 -10.60910 -10.59612  -0.93182
 Alpha  occ. eigenvalues --   -0.86437  -0.77136  -0.67872  -0.55557  -0.51681
 Alpha  occ. eigenvalues --   -0.48218  -0.46201  -0.44202  -0.40868  -0.38330
 Alpha  occ. eigenvalues --   -0.36029  -0.34930
 Alpha virt. eigenvalues --    0.04476   0.05188   0.08168   0.08297   0.09708
 Alpha virt. eigenvalues --    0.10910   0.11849   0.12397   0.13490   0.14851
 Alpha virt. eigenvalues --    0.16349   0.17006   0.18374   0.19083   0.19827

 Mulliken charges:
               1
     1  C   -0.494089
     2  C   -0.166478
     3  H    0.052373
     4  H    0.367970
     5  H    0.020526
     6  C   -0.023358
     7  H    0.164149
     8  H    0.039937
     9  C   -0.171057
    10  H    0.034680
    11  H    0.052168
    12  H    0.073495
    13  H    0.073013
    14  H   -0.023330
 Sum of Mulliken charges =   0.00000

 Dipole moment (field-independent basis, Debye):
    X=              0.1571    Y=             -0.1341    Z=              0.2768  Tot=              0.3454
 Quadrupole moment (field-independent basis, Debye-Ang):
   XX=            -31.8102   YY=            -28.9886   ZZ=            -28.2099
   XY=             -2.0617   XZ=             -2.4109   YZ=             -0.2092

 Normal termination of Gaussian 09 at Wed Aug 26 12:13:45 2020.
