 Gaussian 09, Revision D.01,
 Gaussian 09:  ES64L-G09RevD.01 24-Apr-2013

 --------------------
 #p B2PLYPD3/Def2QZVP
 --------------------

 ----------
 butane_opt
 ----------
 Symbolic Z-matrix:
 Charge =  0 Multiplicity = 1

                         Standard orientation:
 ---------------------------------------------------------------------
 Center     Atomic      Atomic             Coordinates (Angstroms)
 Number     Number       Type             X           Y           Z
 ---------------------------------------------------------------------
      1          6           0       -1.928818   -0.158668   -0.178560
      2          6           0       -0.486698    0.574731    0.141926
      3          1           0       -2.554578    0.423148   -0.228445
      4          1           0       -2.434883   -0.957225    0.807257
      5          1           0       -2.038179   -0.580959   -0.752038
      6          6           0        0.615947   -0.492969    0.113598
      7          1           0       -0.681042    1.501361    1.108580
      8          1           0       -0.384292    0.964825   -0.695229
      9          6           0        1.905613    0.059916   -0.130811
     10          1           0        0.525878   -1.009910   -0.514816
     11          1           0        0.511515   -1.058799    0.906980
     12          1           0        1.776188    0.817485   -1.001970
     13          1           0        2.693107   -0.598826   -0.004799
     14          1           0        1.950019    0.600837    0.697562
 ---------------------------------------------------------------------

 SCF Done:  E(RB2PLYPD3) =  -157.657486839     A.U. after   11 cycles
 E2(B2PLYPD3) =    -0.2470549609D+00 E(B2PLYPD3) =    -0.15790454179977D+03

 The electronic state is 1-A.
 Alpha  occ. eigenvalues --  -10.62224 -10.57569 -10.56341 -10.55151  -0.95037
 Alpha  occ. eigenvalues --   -0.88008  -0.77102  -0.71351  -0.57051  -0.54592
 Alpha  occ. eigenvalues --   -0.51700  -0.46899  -0.42755  -0.41214  -0.39481
 Alpha  occ. eigenvalues --   -0.37542  -0.36729
 Alpha virt. eigenvalues --    0.05210   0.06871   0.07947   0.09144   0.11022
 Alpha virt. eigenvalues --    0.11885   0.13087   0.13886   0.14975   0.15542
 Alpha virt. eigenvalues --    0.15893   0.16681   0.19386   0.20211   0.22378

 Mulliken charges:
               1
     1  C   -0.495470
     2  C   -0.099992
     3  H    0.103720
     4  H   -0.004263
     5  H    0.324542
     6  C   -0.192992
     7  H    0.031187
     8  H    0.116945
     9  C   -0.145207
    10  H    0.188507
    11  H    0.035526
    12  H    0.038441
    13  H    0.041412
    14  H    0.057643
 Sum of Mulliken charges =   0.00000

 Dipole moment (field-independent basis, Debye):
    X=              0.0791    Y=              0.0090    Z=             -0.4865  Tot=              0.4929
 Quadrupole moment (field-independent basis, Debye-Ang):
   XX=            -29.3934   YY=            -28.1654   ZZ=            -27.6351
   XY=             -1.5196   XZ=              1.4474   YZ=              0.0973

 Normal termination of Gaussian 09 at Wed Aug 26 10:41:28 2020.
