 Gaussian 09, Revision D.01,
 Gaussian 09:  ES64L-G09RevD.01 24-Apr-2013

 --------------------
 #p B2PLYPD3/Def2QZVP
 --------------------

 ----------
 butane_opt
 ----------
 Symbolic Z-matrix:
 Charge =  0 Multiplicity = 1

                         Standard orientation:
 ---------------------------------------------------------------------
 Center     Atomic      Atomic             Coordinates (Angstroms)
 Number     Number       Type             X           Y           Z
 ---------------------------------------------------------------------
      1          6           0        1.968448    0.104442    0.006770
      2          6           0        0.589035   -0.490522   -0.011068
      3          1           0        2.757982   -0.671042   -0.080316
      4          1           0        2.062439    0.802488    0.906118
      5          1           0        2.006672    0.625969   -0.808620
      6          6           0       -0.581348    0.539106    0.010460
      7          1           0        0.506942   -1.069488    0.789877
      8          1           0        0.494878   -1.138077   -0.891987
      9          6           0       -1.970791   -0.135821    0.010024
     10          1           0       -0.492574    1.151707   -0.884106
     11          1           0       -0.376498    1.191352    0.891384
     12          1           0       -2.047931   -0.623165   -0.748858
     13          1           0       -2.720448    0.543919   -0.239149
     14          1           0       -2.223528   -0.916887    0.968544
 ---------------------------------------------------------------------

 SCF Done:  E(RB2PLYPD3) =  -158.053240124     A.U. after   10 cycles
 E2(B2PLYPD3) =    -0.2457006667D+00 E(B2PLYPD3) =    -0.15829894079062D+03

 The electronic state is 1-A.
 Alpha  occ. eigenvalues --  -10.60989 -10.58979 -10.58764 -10.58682  -0.91364
 Alpha  occ. eigenvalues --   -0.84717  -0.74071  -0.67396  -0.54504  -0.49517
 Alpha  occ. eigenvalues --   -0.49020  -0.47751  -0.43121  -0.41566  -0.39142
 Alpha  occ. eigenvalues --   -0.38594  -0.37190
 Alpha virt. eigenvalues --    0.05856   0.06825   0.08403   0.08828   0.10897
 Alpha virt. eigenvalues --    0.12335   0.12866   0.13582   0.15053   0.15316
 Alpha virt. eigenvalues --    0.15943   0.16536   0.19493   0.20029   0.21996

 Mulliken charges:
               1
     1  C   -0.154765
     2  C   -0.044962
     3  H    0.042580
     4  H    0.034346
     5  H    0.062726
     6  C   -0.036967
     7  H    0.051260
     8  H    0.014710
     9  C   -0.176335
    10  H    0.028220
    11  H    0.028395
    12  H    0.083735
    13  H    0.038328
    14  H    0.028729
 Sum of Mulliken charges =   0.00000

 Dipole moment (field-independent basis, Debye):
    X=             -0.0523    Y=             -0.0597    Z=             -0.4058  Tot=              0.4135
 Quadrupole moment (field-independent basis, Debye-Ang):
   XX=            -29.5253   YY=            -28.8278   ZZ=            -27.8153
   XY=             -0.3191   XZ=              0.6502   YZ=             -0.1916

 Normal termination of Gaussian 09 at Wed Aug 26 21:33:21 2020.
