 Gaussian 09, Revision D.01,
 Gaussian 09:  ES64L-G09RevD.01 24-Apr-2013

 --------------------
 #p B2PLYPD3/Def2QZVP
 --------------------

 ----------
 butane_opt
 ----------
 Symbolic Z-matrix:
 Charge =  0 Multiplicity = 1

                         Standard orientation:
 ---------------------------------------------------------------------
 Center     Atomic      Atomic             Coordinates (Angstroms)
 Number     Number       Type             X           Y           Z
 ---------------------------------------------------------------------
      1          6           0       -1.987284    0.079981   -0.216622
      2          6           0       -0.601462   -0.415941    0.264782
      3          1           0       -2.720074   -0.602644   -0.024791
      4          1           0       -2.036750    0.532939   -1.194460
      5          1           0       -2.159824    0.692600    0.453608
      6          6           0        0.579894    0.566180    0.101883
      7          1           0       -0.703234   -1.038867   -0.440615
      8          1           0       -0.706763   -1.166145    1.384078
      9          6           0        2.009086   -0.209727   -0.190649
     10          1           0        0.642233    1.676304    1.270219
     11          1           0        0.256868    0.813862   -0.617980
     12          1           0        2.509649   -0.743361    0.695258
     13          1           0        2.915653    0.605224   -0.408096
     14          1           0        2.000835   -0.892868   -0.873587
 ---------------------------------------------------------------------

 SCF Done:  E(RB2PLYPD3) =  -157.822351612     A.U. after   11 cycles
 E2(B2PLYPD3) =    -0.2516400034D+00 E(B2PLYPD3) =    -0.15807399161548D+03

 The electronic state is 1-A.
 Alpha  occ. eigenvalues --  -10.64100 -10.62096 -10.61678 -10.57591  -0.93360
 Alpha  occ. eigenvalues --   -0.84466  -0.76073  -0.68716  -0.54216  -0.50782
 Alpha  occ. eigenvalues --   -0.49369  -0.47296  -0.43050  -0.40772  -0.38332
 Alpha  occ. eigenvalues --   -0.36850  -0.33828
 Alpha virt. eigenvalues --    0.03410   0.06583   0.06665   0.08003   0.10753
 Alpha virt. eigenvalues --    0.11753   0.12216   0.13781   0.14269   0.14653
 Alpha virt. eigenvalues --    0.15735   0.16078   0.18909   0.19388   0.20960

 Mulliken charges:
               1
     1  C   -0.168585
     2  C   -0.120513
     3  H    0.045737
     4  H    0.039884
     5  H    0.090723
     6  C   -0.301931
     7  H    0.111258
     8  H   -0.000278
     9  C   -0.132010
    10  H    0.000107
    11  H    0.290810
    12  H    0.037918
    13  H    0.029029
    14  H    0.077851
 Sum of Mulliken charges =   0.00000

 Dipole moment (field-independent basis, Debye):
    X=             -0.3829    Y=             -0.4034    Z=             -0.7200  Tot=              0.9098
 Quadrupole moment (field-independent basis, Debye-Ang):
   XX=            -28.4544   YY=            -29.8018   ZZ=            -28.6731
   XY=             -0.2362   XZ=              0.2008   YZ=              0.1697

 Normal termination of Gaussian 09 at Wed Aug 26 22:25:46 2020.
