 Gaussian 09, Revision D.01,
 Gaussian 09:  ES64L-G09RevD.01 24-Apr-2013

 --------------------
 #p B2PLYPD3/Def2QZVP
 --------------------

 ----------
 butane_opt
 ----------
 Symbolic Z-matrix:
 Charge =  0 Multiplicity = 1

                         Standard orientation:
 ---------------------------------------------------------------------
 Center     Atomic      Atomic             Coordinates (Angstroms)
 Number     Number       Type             X           Y           Z
 ---------------------------------------------------------------------
      1          6           0       -1.939821    0.033940   -0.167919
      2          6           0       -0.655145   -0.444339    0.044739
      3          1           0       -2.744762   -0.651795    0.330489
      4          1           0       -2.074798    1.197642   -1.353919
      5          1           0       -1.935322    0.275038    0.554328
      6          6           0        0.506676    0.499587    0.226891
      7          1           0       -0.212681   -0.874736   -0.635482
      8          1           0       -0.727420   -1.316063    1.029554
      9          6           0        2.063072   -0.134271   -0.175623
     10          1           0        0.459101    1.612313    1.515416
     11          1           0        0.119534    1.030127   -0.414117
     12          1           0        2.437057   -0.947910    0.756378
     13          1           0        2.769039    0.614549   -0.302234
     14          1           0        2.061564   -0.668672   -1.048940
 ---------------------------------------------------------------------

 SCF Done:  E(RB2PLYPD3) =  -157.600093968     A.U. after   12 cycles
 E2(B2PLYPD3) =    -0.2579817196D+00 E(B2PLYPD3) =    -0.15785807568802D+03

 The electronic state is 1-A.
 Alpha  occ. eigenvalues --  -10.65236 -10.63807 -10.62097 -10.61488  -0.98342
 Alpha  occ. eigenvalues --   -0.86423  -0.78070  -0.68083  -0.53455  -0.51227
 Alpha  occ. eigenvalues --   -0.49297  -0.45483  -0.44437  -0.40532  -0.38728
 Alpha  occ. eigenvalues --   -0.34317  -0.32715
 Alpha virt. eigenvalues --    0.01189   0.02705   0.05694   0.06215   0.10259
 Alpha virt. eigenvalues --    0.10873   0.11824   0.12581   0.13560   0.14225
 Alpha virt. eigenvalues --    0.15224   0.16022   0.17358   0.18825   0.19649

 Mulliken charges:
               1
     1  C   -0.486348
     2  C   -0.056940
     3  H    0.067882
     4  H    0.026463
     5  H    0.401149
     6  C   -0.145362
     7  H    0.096979
     8  H   -0.012712
     9  C   -0.152116
    10  H   -0.056393
    11  H    0.135290
    12  H    0.040759
    13  H    0.076788
    14  H    0.064561
 Sum of Mulliken charges =   0.00000

 Dipole moment (field-independent basis, Debye):
    X=              0.2214    Y=             -0.5960    Z=             -0.5621  Tot=              0.8486
 Quadrupole moment (field-independent basis, Debye-Ang):
   XX=            -28.9559   YY=            -30.9093   ZZ=            -29.7349
   XY=             -0.1921   XZ=             -2.9926   YZ=             -1.7254

 Normal termination of Gaussian 09 at Wed Aug 26 11:23:04 2020.
