 Gaussian 09, Revision D.01,
 Gaussian 09:  ES64L-G09RevD.01 24-Apr-2013

 --------------------
 #p B2PLYPD3/Def2QZVP
 --------------------

 ----------
 butane_opt
 ----------
 Symbolic Z-matrix:
 Charge =  0 Multiplicity = 1

                         Standard orientation:
 ---------------------------------------------------------------------
 Center     Atomic      Atomic             Coordinates (Angstroms)
 Number     Number       Type             X           Y           Z
 ---------------------------------------------------------------------
      1          6           0       -1.968495   -0.218440   -0.146133
      2          6           0       -0.486112    0.590549    0.125104
      3          1           0       -2.744984    0.507083   -0.306820
      4          1           0       -2.243258   -0.380821    0.685319
      5          1           0       -1.958201   -1.065274   -0.881651
      6          6           0        0.600087   -0.336163    0.330461
      7          1           0       -0.369434    1.221224    0.750288
      8          1           0       -0.155070    1.108096   -0.931361
      9          6           0        1.819565   -0.009447   -0.250848
     10          1           0        0.201044   -0.883475   -0.120020
     11          1           0        0.748263   -0.979535    1.500751
     12          1           0        1.633410    0.231964   -1.020810
     13          1           0        2.615284   -1.060837   -0.563905
     14          1           0        2.482674    1.142575    0.536707
 ---------------------------------------------------------------------

 SCF Done:  E(RB2PLYPD3) =  -157.704933070     A.U. after   11 cycles
 E2(B2PLYPD3) =    -0.2514105331D+00 E(B2PLYPD3) =    -0.15795634360329D+03

 The electronic state is 1-A.
 Alpha  occ. eigenvalues --  -10.62736 -10.61085 -10.59983 -10.58168  -0.97376
 Alpha  occ. eigenvalues --   -0.85106  -0.77737  -0.70578  -0.57500  -0.51554
 Alpha  occ. eigenvalues --   -0.48496  -0.47551  -0.43931  -0.42348  -0.37661
 Alpha  occ. eigenvalues --   -0.36376  -0.34411
 Alpha virt. eigenvalues --    0.03622   0.06046   0.07103   0.08352   0.09889
 Alpha virt. eigenvalues --    0.10933   0.12178   0.13443   0.14277   0.15424
 Alpha virt. eigenvalues --    0.15665   0.16530   0.18678   0.19490   0.20160

 Mulliken charges:
               1
     1  C   -0.192004
     2  C   -0.124540
     3  H    0.037179
     4  H    0.107319
     5  H    0.067421
     6  C   -0.235372
     7  H    0.123221
     8  H    0.003616
     9  C   -0.271639
    10  H    0.256207
    11  H    0.003977
    12  H    0.203825
    13  H    0.026915
    14  H   -0.006125
 Sum of Mulliken charges =   0.00000

 Dipole moment (field-independent basis, Debye):
    X=             -1.1227    Y=             -0.2539    Z=             -0.4413  Tot=              1.2327
 Quadrupole moment (field-independent basis, Debye-Ang):
   XX=            -30.7723   YY=            -29.1577   ZZ=            -28.5544
   XY=             -0.2573   XZ=             -1.0152   YZ=              1.2486

 Normal termination of Gaussian 09 at Wed Aug 26 09:44:33 2020.
