 Gaussian 09, Revision D.01,
 Gaussian 09:  ES64L-G09RevD.01 24-Apr-2013

 --------------------
 #p B2PLYPD3/Def2QZVP
 --------------------

 ----------
 butane_opt
 ----------
 Symbolic Z-matrix:
 Charge =  0 Multiplicity = 1

                         Standard orientation:
 ---------------------------------------------------------------------
 Center     Atomic      Atomic             Coordinates (Angstroms)
 Number     Number       Type             X           Y           Z
 ---------------------------------------------------------------------
      1          6           0       -1.973725   -0.094123    0.061605
      2          6           0       -0.618369    0.553886   -0.044248
      3          1           0       -2.636198    0.417573   -0.172206
      4          1           0       -2.281190   -1.079602    1.143262
      5          1           0       -2.185222   -0.373093   -0.663165
      6          6           0        0.558376   -0.514543   -0.140111
      7          1           0       -0.475712    1.094625    0.902335
      8          1           0       -0.308637    1.452147   -1.115897
      9          6           0        1.984979    0.091188    0.017611
     10          1           0        0.399407   -0.986603   -0.893437
     11          1           0        0.499204   -1.380364    0.875232
     12          1           0        2.106291    0.057669   -0.499522
     13          1           0        2.676340   -0.647562   -0.263177
     14          1           0        2.498151    1.226758    1.317441
 ---------------------------------------------------------------------

 SCF Done:  E(RB2PLYPD3) =  -156.851614128     A.U. after   13 cycles
 E2(B2PLYPD3) =    -0.2589050448D+00 E(B2PLYPD3) =    -0.15711051917273D+03

 The electronic state is 1-A.
 Alpha  occ. eigenvalues --  -10.64596 -10.63531 -10.62208 -10.58071  -0.98198
 Alpha  occ. eigenvalues --   -0.92825  -0.81448  -0.68907  -0.53858  -0.49936
 Alpha  occ. eigenvalues --   -0.47953  -0.43694  -0.41361  -0.38912  -0.37666
 Alpha  occ. eigenvalues --   -0.36585  -0.32777
 Alpha virt. eigenvalues --   -0.00785   0.03877   0.05606   0.06570   0.09269
 Alpha virt. eigenvalues --    0.09969   0.11526   0.12798   0.13960   0.15442
 Alpha virt. eigenvalues --    0.16780   0.16837   0.18420   0.19231   0.20683

 Mulliken charges:
               1
     1  C   -0.372827
     2  C   -0.037587
     3  H    0.112318
     4  H    0.044168
     5  H    0.205360
     6  C   -0.065516
     7  H    0.058869
     8  H   -0.001298
     9  C   -0.945409
    10  H    0.114736
    11  H   -0.004497
    12  H    0.807100
    13  H    0.016280
    14  H    0.068304
 Sum of Mulliken charges =   0.00000

 Dipole moment (field-independent basis, Debye):
    X=             -0.0907    Y=             -0.1475    Z=             -0.9423  Tot=              0.9580
 Quadrupole moment (field-independent basis, Debye-Ang):
   XX=            -27.6554   YY=            -30.2610   ZZ=            -27.5000
   XY=             -0.0037   XZ=              0.0849   YZ=              1.2433

 Normal termination of Gaussian 09 at Wed Aug 26 11:22:44 2020.
