 Gaussian 09, Revision D.01,
 Gaussian 09:  ES64L-G09RevD.01 24-Apr-2013

 --------------------
 #p B2PLYPD3/Def2QZVP
 --------------------

 ----------
 butane_opt
 ----------
 Symbolic Z-matrix:
 Charge =  0 Multiplicity = 1

                         Standard orientation:
 ---------------------------------------------------------------------
 Center     Atomic      Atomic             Coordinates (Angstroms)
 Number     Number       Type             X           Y           Z
 ---------------------------------------------------------------------
      1          6           0       -1.948251   -0.153205    0.008555
      2          6           0       -0.579656    0.610999   -0.150862
      3          1           0       -2.544414    0.461624    0.216259
      4          1           0       -2.185757   -0.914619    1.132066
      5          1           0       -2.372325   -0.616414   -0.640698
      6          6           0        0.614231   -0.478772    0.053222
      7          1           0       -0.510985    1.103038    0.611598
      8          1           0       -0.599132    1.315659   -1.019343
      9          6           0        1.932650    0.060813    0.048992
     10          1           0        0.430204   -1.242244   -0.732146
     11          1           0        0.396951   -1.011727    0.832738
     12          1           0        1.845915    0.309195   -0.650074
     13          1           0        2.781387   -0.867918   -0.686761
     14          1           0        2.644308    1.224394    1.176920
 ---------------------------------------------------------------------

 SCF Done:  E(RB2PLYPD3) =  -157.610331935     A.U. after   12 cycles
 E2(B2PLYPD3) =    -0.2541510766D+00 E(B2PLYPD3) =    -0.15786448301199D+03

 The electronic state is 1-A.
 Alpha  occ. eigenvalues --  -10.63479 -10.60755 -10.60396 -10.58554  -0.94625
 Alpha  occ. eigenvalues --   -0.87831  -0.77105  -0.70926  -0.54894  -0.50387
 Alpha  occ. eigenvalues --   -0.49370  -0.46541  -0.43687  -0.41014  -0.38616
 Alpha  occ. eigenvalues --   -0.37147  -0.32737
 Alpha virt. eigenvalues --   -0.00429   0.04564   0.05784   0.07978   0.10072
 Alpha virt. eigenvalues --    0.10486   0.12250   0.13438   0.14076   0.15207
 Alpha virt. eigenvalues --    0.15612   0.16108   0.18470   0.19392   0.20924

 Mulliken charges:
               1
     1  C   -0.214578
     2  C   -0.096464
     3  H    0.098479
     4  H   -0.009281
     5  H    0.065262
     6  C   -0.009387
     7  H    0.113244
     8  H    0.034627
     9  C   -0.564641
    10  H    0.029088
    11  H    0.068186
    12  H    0.454102
    13  H   -0.004195
    14  H    0.035557
 Sum of Mulliken charges =   0.00000

 Dipole moment (field-independent basis, Debye):
    X=             -1.0577    Y=              0.4830    Z=             -0.6245  Tot=              1.3198
 Quadrupole moment (field-independent basis, Debye-Ang):
   XX=            -31.5852   YY=            -28.7565   ZZ=            -28.2440
   XY=              0.2471   XZ=             -0.1346   YZ=              0.7395

 Normal termination of Gaussian 09 at Wed Aug 26 17:22:13 2020.
