 Gaussian 09, Revision D.01,
 Gaussian 09:  ES64L-G09RevD.01 24-Apr-2013

 --------------------
 #p B2PLYPD3/Def2QZVP
 --------------------

 ----------
 butane_opt
 ----------
 Symbolic Z-matrix:
 Charge =  0 Multiplicity = 1

                         Standard orientation:
 ---------------------------------------------------------------------
 Center     Atomic      Atomic             Coordinates (Angstroms)
 Number     Number       Type             X           Y           Z
 ---------------------------------------------------------------------
      1          6           0       -1.907703   -0.115499   -0.136163
      2          6           0       -0.535628    0.518750    0.226952
      3          1           0       -2.724716    0.704568   -0.562631
      4          1           0       -2.399043   -0.979128    0.752015
      5          1           0       -1.815714   -0.585987   -1.005034
      6          6           0        0.537938   -0.484422    0.086807
      7          1           0       -0.426634    1.396952    1.257971
      8          1           0       -0.059356    0.811157   -0.501333
      9          6           0        1.864925    0.030655   -0.133826
     10          1           0        0.482012   -0.729603   -0.643882
     11          1           0        0.466787   -1.361555    1.121415
     12          1           0        1.666914    0.926388   -1.152990
     13          1           0        2.641896   -0.564029   -0.377780
     14          1           0        2.410666    0.684330    0.849629
 ---------------------------------------------------------------------

 SCF Done:  E(RB2PLYPD3) =  -157.757320597     A.U. after   11 cycles
 E2(B2PLYPD3) =    -0.2539803618D+00 E(B2PLYPD3) =    -0.15801130095873D+03

 The electronic state is 1-A.
 Alpha  occ. eigenvalues --  -10.64348 -10.63564 -10.61610 -10.60409  -0.98972
 Alpha  occ. eigenvalues --   -0.84071  -0.74240  -0.68241  -0.55955  -0.52770
 Alpha  occ. eigenvalues --   -0.48554  -0.44975  -0.41581  -0.39971  -0.38834
 Alpha  occ. eigenvalues --   -0.37684  -0.33820
 Alpha virt. eigenvalues --    0.05024   0.05561   0.06483   0.07934   0.10360
 Alpha virt. eigenvalues --    0.10900   0.11714   0.12080   0.14053   0.14305
 Alpha virt. eigenvalues --    0.15665   0.17137   0.18264   0.19368   0.20787

 Mulliken charges:
               1
     1  C   -0.155063
     2  C   -0.102576
     3  H    0.034597
     4  H    0.039635
     5  H    0.067936
     6  C   -0.433675
     7  H    0.028654
     8  H    0.144905
     9  C   -0.134153
    10  H    0.407554
    11  H    0.006284
    12  H   -0.006015
    13  H    0.082361
    14  H    0.019556
 Sum of Mulliken charges =   0.00000

 Dipole moment (field-independent basis, Debye):
    X=              0.3217    Y=             -0.3593    Z=             -0.7394  Tot=              0.8827
 Quadrupole moment (field-independent basis, Debye-Ang):
   XX=            -29.9106   YY=            -30.7616   ZZ=            -28.6982
   XY=             -0.4550   XZ=              0.4490   YZ=              0.2974

 Normal termination of Gaussian 09 at Wed Aug 26 23:24:40 2020.
