 Gaussian 09, Revision D.01,
 Gaussian 09:  ES64L-G09RevD.01 24-Apr-2013

 --------------------
 #p B2PLYPD3/Def2QZVP
 --------------------

 ----------
 butane_opt
 ----------
 Symbolic Z-matrix:
 Charge =  0 Multiplicity = 1

                         Standard orientation:
 ---------------------------------------------------------------------
 Center     Atomic      Atomic             Coordinates (Angstroms)
 Number     Number       Type             X           Y           Z
 ---------------------------------------------------------------------
      1          6           0        1.892430    0.013682   -0.207433
      2          6           0        0.535069   -0.437502    0.187744
      3          1           0        2.756812   -0.792639    0.161051
      4          1           0        1.975142    0.485312    0.509628
      5          1           0        1.909980    0.704998   -1.268153
      6          6           0       -0.506517    0.647143    0.149869
      7          1           0        0.699119   -1.062061    1.322352
      8          1           0        0.090495   -1.025826   -0.642953
      9          6           0       -1.909516   -0.116719   -0.118209
     10          1           0       -0.198203    0.854091   -0.566438
     11          1           0       -0.322077    1.826523    1.093194
     12          1           0       -1.874740   -1.011697   -1.068955
     13          1           0       -2.654451    0.296998   -0.721313
     14          1           0       -2.450868   -0.915325    1.109767
 ---------------------------------------------------------------------

 SCF Done:  E(RB2PLYPD3) =  -157.710568699     A.U. after   11 cycles
 E2(B2PLYPD3) =    -0.2579039228D+00 E(B2PLYPD3) =    -0.15796847262163D+03

 The electronic state is 1-A.
 Alpha  occ. eigenvalues --  -10.67109 -10.63366 -10.63163 -10.60469  -0.95634
 Alpha  occ. eigenvalues --   -0.84400  -0.73928  -0.65785  -0.54511  -0.50602
 Alpha  occ. eigenvalues --   -0.46861  -0.45476  -0.40720  -0.39005  -0.36899
 Alpha  occ. eigenvalues --   -0.36399  -0.35229
 Alpha virt. eigenvalues --    0.03474   0.03557   0.05754   0.07380   0.09200
 Alpha virt. eigenvalues --    0.10427   0.11666   0.12776   0.13764   0.14196
 Alpha virt. eigenvalues --    0.15482   0.16080   0.18015   0.19023   0.19931

 Mulliken charges:
               1
     1  C   -0.283219
     2  C   -0.037775
     3  H    0.045344
     4  H    0.184250
     5  H    0.038608
     6  C   -0.367254
     7  H    0.006216
     8  H    0.071073
     9  C   -0.155942
    10  H    0.362378
    11  H    0.017071
    12  H    0.012109
    13  H    0.080401
    14  H    0.026740
 Sum of Mulliken charges =   0.00000

 Dipole moment (field-independent basis, Debye):
    X=              0.2266    Y=              0.2462    Z=             -0.5850  Tot=              0.6740
 Quadrupole moment (field-independent basis, Debye-Ang):
   XX=            -30.8767   YY=            -30.8790   ZZ=            -28.4561
   XY=              0.3755   XZ=              2.5016   YZ=             -0.4887

 Normal termination of Gaussian 09 at Wed Aug 26 10:14:37 2020.
