 Gaussian 09, Revision D.01,
 Gaussian 09:  ES64L-G09RevD.01 24-Apr-2013

 --------------------
 #p B2PLYPD3/Def2QZVP
 --------------------

 ----------
 butane_opt
 ----------
 Symbolic Z-matrix:
 Charge =  0 Multiplicity = 1

                         Standard orientation:
 ---------------------------------------------------------------------
 Center     Atomic      Atomic             Coordinates (Angstroms)
 Number     Number       Type             X           Y           Z
 ---------------------------------------------------------------------
      1          6           0        1.922350   -0.108391   -0.064331
      2          6           0        0.545864    0.523301    0.009012
      3          1           0        2.689486    0.653246   -0.022236
      4          1           0        2.078793   -0.878199   -0.989625
      5          1           0        2.180440   -0.719733    0.856913
      6          6           0       -0.577994   -0.491521    0.124302
      7          1           0        0.334032    0.911033   -0.782069
      8          1           0        0.357836    1.380075    0.965092
      9          6           0       -1.863383    0.101865   -0.078225
     10          1           0       -0.565620   -1.255128    1.156399
     11          1           0       -0.436530   -1.083834   -0.676615
     12          1           0       -2.279013    0.800602    0.759700
     13          1           0       -2.653999   -0.669714   -0.331680
     14          1           0       -1.866439    0.710132   -0.880429
 ---------------------------------------------------------------------

 SCF Done:  E(RB2PLYPD3) =  -158.028859067     A.U. after   11 cycles
 E2(B2PLYPD3) =    -0.2479106098D+00 E(B2PLYPD3) =    -0.15827676967707D+03

 The electronic state is 1-A.
 Alpha  occ. eigenvalues --  -10.61678 -10.60675 -10.60584 -10.59436  -0.93476
 Alpha  occ. eigenvalues --   -0.84039  -0.72849  -0.67017  -0.54345  -0.50026
 Alpha  occ. eigenvalues --   -0.49509  -0.46923  -0.42915  -0.41027  -0.39295
 Alpha  occ. eigenvalues --   -0.37151  -0.36378
 Alpha virt. eigenvalues --    0.05645   0.06568   0.07764   0.08262   0.10733
 Alpha virt. eigenvalues --    0.11692   0.12800   0.13439   0.14851   0.15256
 Alpha virt. eigenvalues --    0.15542   0.16240   0.19807   0.19985   0.21515

 Mulliken charges:
               1
     1  C   -0.135645
     2  C   -0.126306
     3  H    0.054124
     4  H    0.028139
     5  H    0.041380
     6  C   -0.035493
     7  H    0.123327
     8  H    0.007021
     9  C   -0.132812
    10  H    0.005877
    11  H    0.060430
    12  H    0.028967
    13  H    0.037206
    14  H    0.043786
 Sum of Mulliken charges =   0.00000

 Dipole moment (field-independent basis, Debye):
    X=              0.0294    Y=              0.0511    Z=             -0.5190  Tot=              0.5223
 Quadrupole moment (field-independent basis, Debye-Ang):
   XX=            -29.6850   YY=            -29.2828   ZZ=            -28.5141
   XY=             -0.0203   XZ=              0.5216   YZ=              0.2708

 Normal termination of Gaussian 09 at Wed Aug 26 10:17:42 2020.
