 Gaussian 09, Revision D.01,
 Gaussian 09:  ES64L-G09RevD.01 24-Apr-2013

 --------------------
 #p B2PLYPD3/Def2QZVP
 --------------------

 ----------
 butane_opt
 ----------
 Symbolic Z-matrix:
 Charge =  0 Multiplicity = 1

                         Standard orientation:
 ---------------------------------------------------------------------
 Center     Atomic      Atomic             Coordinates (Angstroms)
 Number     Number       Type             X           Y           Z
 ---------------------------------------------------------------------
      1          6           0        1.943683   -0.094318   -0.070407
      2          6           0        0.556029    0.464123    0.005893
      3          1           0        2.676237    0.651724    0.110777
      4          1           0        1.960403   -0.840323   -0.939934
      5          1           0        2.006066   -0.649089    0.777297
      6          6           0       -0.568353   -0.533863    0.158722
      7          1           0        0.418908    1.128006   -0.957894
      8          1           0        0.585831    1.269291    0.925748
      9          6           0       -1.921334    0.132973   -0.066624
     10          1           0       -0.525551   -1.090758    1.078109
     11          1           0       -0.365605   -1.197158   -0.691129
     12          1           0       -2.352231    0.903573    0.814468
     13          1           0       -2.590188   -0.542722   -0.343411
     14          1           0       -1.874020    0.553965   -0.939534
 ---------------------------------------------------------------------

 SCF Done:  E(RB2PLYPD3) =  -158.059972472     A.U. after   11 cycles
 E2(B2PLYPD3) =    -0.2473709396D+00 E(B2PLYPD3) =    -0.15830734341152D+03

 The electronic state is 1-A.
 Alpha  occ. eigenvalues --  -10.61941 -10.60649 -10.58907 -10.58702  -0.91869
 Alpha  occ. eigenvalues --   -0.84726  -0.73902  -0.65135  -0.54369  -0.49970
 Alpha  occ. eigenvalues --   -0.49507  -0.48076  -0.42537  -0.41364  -0.38862
 Alpha  occ. eigenvalues --   -0.37689  -0.36260
 Alpha virt. eigenvalues --    0.05823   0.06902   0.07829   0.08423   0.10784
 Alpha virt. eigenvalues --    0.11941   0.12720   0.13871   0.14817   0.15211
 Alpha virt. eigenvalues --    0.15853   0.16490   0.19572   0.19993   0.21597

 Mulliken charges:
               1
     1  C   -0.142806
     2  C   -0.025070
     3  H    0.054606
     4  H    0.034155
     5  H    0.050278
     6  C   -0.040575
     7  H    0.017854
     8  H   -0.003421
     9  C   -0.152348
    10  H    0.042735
    11  H    0.029730
    12  H    0.038815
    13  H    0.041092
    14  H    0.054956
 Sum of Mulliken charges =   0.00000

 Dipole moment (field-independent basis, Debye):
    X=             -0.0402    Y=             -0.2741    Z=             -0.0905  Tot=              0.2914
 Quadrupole moment (field-independent basis, Debye-Ang):
   XX=            -29.6362   YY=            -29.3140   ZZ=            -27.9596
   XY=              0.5993   XZ=              0.9615   YZ=              0.3968

 Normal termination of Gaussian 09 at Wed Aug 26 16:34:39 2020.
