 Gaussian 09, Revision D.01,
 Gaussian 09:  ES64L-G09RevD.01 24-Apr-2013

 --------------------
 #p B2PLYPD3/Def2QZVP
 --------------------

 ----------
 butane_opt
 ----------
 Symbolic Z-matrix:
 Charge =  0 Multiplicity = 1

                         Standard orientation:
 ---------------------------------------------------------------------
 Center     Atomic      Atomic             Coordinates (Angstroms)
 Number     Number       Type             X           Y           Z
 ---------------------------------------------------------------------
      1          6           0        2.029794   -0.173504   -0.086837
      2          6           0        0.523129    0.558192    0.186856
      3          1           0        2.841832    0.558829   -0.501406
      4          1           0        1.846296   -0.763273   -0.946919
      5          1           0        2.485787   -0.797138    0.735942
      6          6           0       -0.634055   -0.476816    0.092304
      7          1           0        0.397992    1.245373   -0.684401
      8          1           0        0.522654    1.305939    1.146227
      9          6           0       -1.933742    0.117847   -0.110453
     10          1           0       -0.640936   -1.184899    1.018053
     11          1           0       -0.431007   -1.138252   -0.782180
     12          1           0       -2.145572    0.465891    0.646133
     13          1           0       -2.819644   -0.692819   -0.058642
     14          1           0       -1.968159    0.846030   -1.064028
 ---------------------------------------------------------------------

 SCF Done:  E(RB2PLYPD3) =  -158.016155456     A.U. after   11 cycles
 E2(B2PLYPD3) =    -0.2489527020D+00 E(B2PLYPD3) =    -0.15826510815830D+03

 The electronic state is 1-A.
 Alpha  occ. eigenvalues --  -10.63719 -10.61798 -10.61477 -10.58992  -0.91446
 Alpha  occ. eigenvalues --   -0.82228  -0.73051  -0.65927  -0.54181  -0.48546
 Alpha  occ. eigenvalues --   -0.47903  -0.46944  -0.41959  -0.41350  -0.38051
 Alpha  occ. eigenvalues --   -0.37488  -0.36894
 Alpha virt. eigenvalues --    0.05585   0.06580   0.07869   0.08306   0.10551
 Alpha virt. eigenvalues --    0.11793   0.12418   0.13557   0.14737   0.15375
 Alpha virt. eigenvalues --    0.15693   0.16306   0.18664   0.19526   0.21158

 Mulliken charges:
               1
     1  C   -0.165067
     2  C   -0.068522
     3  H    0.036131
     4  H    0.062390
     5  H    0.054624
     6  C   -0.010352
     7  H    0.035954
     8  H    0.024504
     9  C   -0.225511
    10  H    0.018934
    11  H    0.037107
    12  H    0.133186
    13  H    0.022566
    14  H    0.044057
 Sum of Mulliken charges =   0.00000

 Dipole moment (field-independent basis, Debye):
    X=             -0.1225    Y=             -0.0027    Z=              0.0054  Tot=              0.1226
 Quadrupole moment (field-independent basis, Debye-Ang):
   XX=            -29.8396   YY=            -29.3403   ZZ=            -28.2743
   XY=             -0.0488   XZ=             -0.8463   YZ=             -0.4767

 Normal termination of Gaussian 09 at Wed Aug 26 22:36:56 2020.
