 Gaussian 09, Revision D.01,
 Gaussian 09:  ES64L-G09RevD.01 24-Apr-2013

 --------------------
 #p B2PLYPD3/Def2QZVP
 --------------------

 ----------
 butane_opt
 ----------
 Symbolic Z-matrix:
 Charge =  0 Multiplicity = 1

                         Standard orientation:
 ---------------------------------------------------------------------
 Center     Atomic      Atomic             Coordinates (Angstroms)
 Number     Number       Type             X           Y           Z
 ---------------------------------------------------------------------
      1          6           0        1.967882   -0.152219   -0.076200
      2          6           0        0.526273    0.560814    0.061392
      3          1           0        2.644648    0.582660   -0.101789
      4          1           0        2.212791   -0.899429   -0.992737
      5          1           0        2.090438   -0.631414    0.700048
      6          6           0       -0.538281   -0.470015    0.176964
      7          1           0        0.398946    1.017412   -0.741357
      8          1           0        0.356502    1.401043    0.970321
      9          6           0       -1.894582    0.070312   -0.129736
     10          1           0       -0.558519   -1.261422    1.135018
     11          1           0       -0.509958   -0.937734   -0.529776
     12          1           0       -2.379728    0.809022    0.745624
     13          1           0       -2.744024   -0.766680   -0.347385
     14          1           0       -1.878846    0.633193   -1.032488
 ---------------------------------------------------------------------

 SCF Done:  E(RB2PLYPD3) =  -157.948207700     A.U. after   11 cycles
 E2(B2PLYPD3) =    -0.2474867748D+00 E(B2PLYPD3) =    -0.15819569447517D+03

 The electronic state is 1-A.
 Alpha  occ. eigenvalues --  -10.61990 -10.60868 -10.58669 -10.58605  -0.93554
 Alpha  occ. eigenvalues --   -0.84040  -0.73935  -0.68439  -0.55248  -0.50743
 Alpha  occ. eigenvalues --   -0.47781  -0.46279  -0.44730  -0.40715  -0.39047
 Alpha  occ. eigenvalues --   -0.37348  -0.37047
 Alpha virt. eigenvalues --    0.05613   0.06618   0.08106   0.08525   0.11023
 Alpha virt. eigenvalues --    0.11511   0.12746   0.13973   0.14793   0.15299
 Alpha virt. eigenvalues --    0.15422   0.16559   0.19234   0.20477   0.21434

 Mulliken charges:
               1
     1  C   -0.163122
     2  C   -0.091795
     3  H    0.050341
     4  H    0.022484
     5  H    0.086309
     6  C   -0.193478
     7  H    0.091858
     8  H    0.017473
     9  C   -0.142271
    10  H    0.023292
    11  H    0.202184
    12  H    0.018767
    13  H    0.027245
    14  H    0.050713
 Sum of Mulliken charges =   0.00000

 Dipole moment (field-independent basis, Debye):
    X=              0.2917    Y=             -0.0867    Z=             -0.4425  Tot=              0.5370
 Quadrupole moment (field-independent basis, Debye-Ang):
   XX=            -29.8906   YY=            -28.7691   ZZ=            -28.2141
   XY=              0.2642   XZ=              0.3805   YZ=             -0.0259

 Normal termination of Gaussian 09 at Wed Aug 26 23:52:48 2020.
