 Gaussian 09, Revision D.01,
 Gaussian 09:  ES64L-G09RevD.01 24-Apr-2013

 --------------------
 #p B2PLYPD3/Def2QZVP
 --------------------

 ----------
 butane_opt
 ----------
 Symbolic Z-matrix:
 Charge =  0 Multiplicity = 1

                         Standard orientation:
 ---------------------------------------------------------------------
 Center     Atomic      Atomic             Coordinates (Angstroms)
 Number     Number       Type             X           Y           Z
 ---------------------------------------------------------------------
      1          6           0        2.017181    0.125477   -0.063820
      2          6           0        0.562744   -0.622639    0.068766
      3          1           0        2.688622   -0.471861   -0.249991
      4          1           0        2.522770    0.430002    0.671426
      5          1           0        2.200779    1.373856   -1.215395
      6          6           0       -0.663149    0.459898    0.279505
      7          1           0        0.416040   -1.525891    0.888866
      8          1           0        0.193422   -0.897006   -0.828832
      9          6           0       -1.943131   -0.022442   -0.235557
     10          1           0       -0.667228    0.848108   -0.268749
     11          1           0       -0.687366    1.465826    1.593353
     12          1           0       -1.537939   -0.429636   -1.018913
     13          1           0       -2.512267    0.685839   -0.562475
     14          1           0       -2.458707   -1.121004    0.697349
 ---------------------------------------------------------------------

 SCF Done:  E(RB2PLYPD3) =  -157.462952514     A.U. after   12 cycles
 E2(B2PLYPD3) =    -0.2560703054D+00 E(B2PLYPD3) =    -0.15771902281909D+03

 The electronic state is 1-A.
 Alpha  occ. eigenvalues --  -10.65451 -10.63235 -10.62400 -10.61935  -0.98253
 Alpha  occ. eigenvalues --   -0.86540  -0.76828  -0.71250  -0.54615  -0.53076
 Alpha  occ. eigenvalues --   -0.48860  -0.46136  -0.45455  -0.40548  -0.36047
 Alpha  occ. eigenvalues --   -0.35566  -0.33718
 Alpha virt. eigenvalues --    0.01607   0.03227   0.05271   0.07420   0.09311
 Alpha virt. eigenvalues --    0.10303   0.11632   0.12387   0.13271   0.14699
 Alpha virt. eigenvalues --    0.15737   0.17021   0.17832   0.18709   0.19683

 Mulliken charges:
               1
     1  C   -0.159687
     2  C   -0.059411
     3  H    0.082764
     4  H    0.065089
     5  H   -0.020484
     6  C   -0.707790
     7  H    0.053257
     8  H    0.092510
     9  C   -0.132544
    10  H    0.663733
    11  H   -0.033110
    12  H    0.075518
    13  H    0.080646
    14  H   -0.000492
 Sum of Mulliken charges =   0.00000

 Dipole moment (field-independent basis, Debye):
    X=              0.4612    Y=             -0.6168    Z=             -0.7320  Tot=              1.0625
 Quadrupole moment (field-independent basis, Debye-Ang):
   XX=            -29.4930   YY=            -30.2680   ZZ=            -29.7739
   XY=             -2.1920   XZ=              2.9037   YZ=             -1.3923

 Normal termination of Gaussian 09 at Wed Aug 26 15:46:28 2020.
