 Gaussian 09, Revision D.01,
 Gaussian 09:  ES64L-G09RevD.01 24-Apr-2013

 --------------------
 #p B2PLYPD3/Def2QZVP
 --------------------

 ----------
 butane_opt
 ----------
 Symbolic Z-matrix:
 Charge =  0 Multiplicity = 1

                         Standard orientation:
 ---------------------------------------------------------------------
 Center     Atomic      Atomic             Coordinates (Angstroms)
 Number     Number       Type             X           Y           Z
 ---------------------------------------------------------------------
      1          6           0       -1.997194   -0.152383    0.017903
      2          6           0       -0.529215    0.566772   -0.032919
      3          1           0       -2.638670    0.527456    0.091617
      4          1           0       -2.232726   -0.715153    0.923271
      5          1           0       -2.162926   -0.678965   -0.728194
      6          6           0        0.606040   -0.476805   -0.017003
      7          1           0       -0.405159    1.048870    0.683193
      8          1           0       -0.396242    1.289665   -1.013518
      9          6           0        1.901095    0.074697    0.025747
     10          1           0        0.349973   -1.139613   -0.843953
     11          1           0        0.570696   -1.115501    0.804780
     12          1           0        2.051113    0.527450   -0.735472
     13          1           0        2.728487   -0.709056   -0.210796
     14          1           0        2.251104    0.891158    1.066698
 ---------------------------------------------------------------------

 SCF Done:  E(RB2PLYPD3) =  -157.940106398     A.U. after   11 cycles
 E2(B2PLYPD3) =    -0.2462951322D+00 E(B2PLYPD3) =    -0.15818640153047D+03

 The electronic state is 1-A.
 Alpha  occ. eigenvalues --  -10.59938 -10.59873 -10.58838 -10.56708  -0.92741
 Alpha  occ. eigenvalues --   -0.85202  -0.76093  -0.68815  -0.55704  -0.50253
 Alpha  occ. eigenvalues --   -0.49208  -0.48131  -0.44005  -0.42011  -0.39336
 Alpha  occ. eigenvalues --   -0.37496  -0.35895
 Alpha virt. eigenvalues --    0.05595   0.06629   0.08293   0.08439   0.10851
 Alpha virt. eigenvalues --    0.11771   0.12996   0.13878   0.15229   0.15390
 Alpha virt. eigenvalues --    0.15933   0.16718   0.19467   0.20469   0.21894

 Mulliken charges:
               1
     1  C   -0.144279
     2  C   -0.146134
     3  H    0.055299
     4  H    0.022958
     5  H    0.064294
     6  C   -0.004704
     7  H    0.127278
     8  H    0.009817
     9  C   -0.183374
    10  H    0.020577
    11  H    0.041977
    12  H    0.089819
    13  H    0.028056
    14  H    0.018416
 Sum of Mulliken charges =   0.00000

 Dipole moment (field-independent basis, Debye):
    X=             -0.2780    Y=             -0.0482    Z=             -0.1886  Tot=              0.3393
 Quadrupole moment (field-independent basis, Debye-Ang):
   XX=            -28.9150   YY=            -28.6905   ZZ=            -27.8402
   XY=              0.0101   XZ=             -0.8117   YZ=              0.4557

 Normal termination of Gaussian 09 at Wed Aug 26 22:06:11 2020.
