 Gaussian 09, Revision D.01,
 Gaussian 09:  ES64L-G09RevD.01 24-Apr-2013

 --------------------
 #p B2PLYPD3/Def2QZVP
 --------------------

 ----------
 butane_opt
 ----------
 Symbolic Z-matrix:
 Charge =  0 Multiplicity = 1

                         Standard orientation:
 ---------------------------------------------------------------------
 Center     Atomic      Atomic             Coordinates (Angstroms)
 Number     Number       Type             X           Y           Z
 ---------------------------------------------------------------------
      1          6           0       -1.998051    0.069722    0.049880
      2          6           0       -0.550399   -0.490326   -0.116796
      3          1           0       -2.821913   -0.772835    0.048135
      4          1           0       -2.001358    0.767583   -0.792925
      5          1           0       -2.054846    0.773854    1.027229
      6          6           0        0.551527    0.584936    0.044021
      7          1           0       -0.534462   -1.082190   -1.027425
      8          1           0       -0.541320   -1.067925    0.676184
      9          6           0        1.997702   -0.149098    0.029812
     10          1           0        0.415123    1.062261    0.852174
     11          1           0        0.426503    1.269587   -0.832767
     12          1           0        2.414003   -1.011850    1.026746
     13          1           0        2.712397    0.514828   -0.372973
     14          1           0        1.981191   -0.544715   -0.645880
 ---------------------------------------------------------------------

 SCF Done:  E(RB2PLYPD3) =  -157.912136375     A.U. after   11 cycles
 E2(B2PLYPD3) =    -0.2480354163D+00 E(B2PLYPD3) =    -0.15816017179098D+03

 The electronic state is 1-A.
 Alpha  occ. eigenvalues --  -10.61878 -10.60445 -10.59120 -10.59070  -0.91448
 Alpha  occ. eigenvalues --   -0.84597  -0.74899  -0.67720  -0.55003  -0.49037
 Alpha  occ. eigenvalues --   -0.47450  -0.46881  -0.43483  -0.40608  -0.39741
 Alpha  occ. eigenvalues --   -0.37933  -0.36214
 Alpha virt. eigenvalues --    0.05573   0.06042   0.08244   0.08763   0.10863
 Alpha virt. eigenvalues --    0.11519   0.12434   0.13194   0.14730   0.15240
 Alpha virt. eigenvalues --    0.15845   0.16451   0.19298   0.19690   0.20844

 Mulliken charges:
               1
     1  C   -0.169588
     2  C   -0.055719
     3  H    0.053864
     4  H    0.047213
     5  H    0.029004
     6  C   -0.038657
     7  H    0.030928
     8  H    0.058006
     9  C   -0.406064
    10  H    0.074057
    11  H    0.019013
    12  H    0.043282
    13  H    0.040324
    14  H    0.274338
 Sum of Mulliken charges =   0.00000

 Dipole moment (field-independent basis, Debye):
    X=              0.0550    Y=             -0.1158    Z=             -0.3497  Tot=              0.3724
 Quadrupole moment (field-independent basis, Debye-Ang):
   XX=            -30.6427   YY=            -28.6757   ZZ=            -27.8258
   XY=              0.5428   XZ=             -0.9858   YZ=             -0.2505

 Normal termination of Gaussian 09 at Wed Aug 26 22:07:35 2020.
