 Gaussian 09, Revision D.01,
 Gaussian 09:  ES64L-G09RevD.01 24-Apr-2013

 --------------------
 #p B2PLYPD3/Def2QZVP
 --------------------

 ----------
 butane_opt
 ----------
 Symbolic Z-matrix:
 Charge =  0 Multiplicity = 1

                         Standard orientation:
 ---------------------------------------------------------------------
 Center     Atomic      Atomic             Coordinates (Angstroms)
 Number     Number       Type             X           Y           Z
 ---------------------------------------------------------------------
      1          6           0       -1.949342   -0.130883   -0.071696
      2          6           0       -0.582883    0.433783    0.046993
      3          1           0       -2.881318    0.936374    0.001071
      4          1           0       -1.791618   -0.643514    0.626215
      5          1           0       -1.966134   -0.834745   -0.949400
      6          6           0        0.580003   -0.552806    0.108232
      7          1           0       -0.547538    1.138604    0.912080
      8          1           0       -0.502747    1.246452   -0.812391
      9          6           0        1.892098    0.168617   -0.103470
     10          1           0        0.388115   -0.892554   -0.578904
     11          1           0        0.386971   -1.590727    1.228548
     12          1           0        2.052189    0.508129   -0.800564
     13          1           0        2.884028   -0.697853   -0.527659
     14          1           0        2.338800    1.317569    1.020650
 ---------------------------------------------------------------------

 SCF Done:  E(RB2PLYPD3) =  -157.600825495     A.U. after   12 cycles
 E2(B2PLYPD3) =    -0.2566455580D+00 E(B2PLYPD3) =    -0.15785747105252D+03

 The electronic state is 1-A.
 Alpha  occ. eigenvalues --  -10.65369 -10.63258 -10.62143 -10.61146  -0.95623
 Alpha  occ. eigenvalues --   -0.87149  -0.77108  -0.68144  -0.56176  -0.52778
 Alpha  occ. eigenvalues --   -0.48606  -0.43959  -0.42318  -0.40002  -0.36659
 Alpha  occ. eigenvalues --   -0.35776  -0.35217
 Alpha virt. eigenvalues --    0.01189   0.04499   0.04795   0.07034   0.09049
 Alpha virt. eigenvalues --    0.09886   0.11894   0.12062   0.13676   0.14905
 Alpha virt. eigenvalues --    0.15392   0.15769   0.18142   0.18992   0.19765

 Mulliken charges:
               1
     1  C   -0.252518
     2  C    0.012574
     3  H    0.047344
     4  H    0.151631
     5  H    0.040516
     6  C   -0.350718
     7  H    0.027859
     8  H   -0.002096
     9  C   -0.355086
    10  H    0.370864
    11  H    0.010690
    12  H    0.283011
    13  H    0.006220
    14  H    0.009708
 Sum of Mulliken charges =   0.00000

 Dipole moment (field-independent basis, Debye):
    X=             -0.3844    Y=             -0.0045    Z=             -0.8419  Tot=              0.9256
 Quadrupole moment (field-independent basis, Debye-Ang):
   XX=            -32.9324   YY=            -29.3576   ZZ=            -29.0862
   XY=             -0.3465   XZ=             -1.8195   YZ=              0.4807

 Normal termination of Gaussian 09 at Wed Aug 26 21:41:12 2020.
