 Gaussian 09, Revision D.01,
 Gaussian 09:  ES64L-G09RevD.01 24-Apr-2013

 --------------------
 #p B2PLYPD3/Def2QZVP
 --------------------

 ----------
 butane_opt
 ----------
 Symbolic Z-matrix:
 Charge =  0 Multiplicity = 1

                         Standard orientation:
 ---------------------------------------------------------------------
 Center     Atomic      Atomic             Coordinates (Angstroms)
 Number     Number       Type             X           Y           Z
 ---------------------------------------------------------------------
      1          6           0        2.004969   -0.225560   -0.172949
      2          6           0        0.474919    0.585555    0.227080
      3          1           0        2.810346    0.652552   -0.877189
      4          1           0        1.731728   -0.538897   -0.799069
      5          1           0        2.630035   -0.773833    0.803525
      6          6           0       -0.599505   -0.412530    0.189523
      7          1           0        0.138362    0.744231   -0.374175
      8          1           0        0.444104    1.376083    1.277888
      9          6           0       -1.893679    0.090873   -0.275887
     10          1           0       -0.686642   -1.287523    1.249146
     11          1           0       -0.449680   -0.889742   -0.582359
     12          1           0       -2.002512    0.724061    0.647922
     13          1           0       -2.776901   -0.749528   -0.065679
     14          1           0       -1.759061    0.512571   -1.086612
 ---------------------------------------------------------------------

 SCF Done:  E(RB2PLYPD3) =  -157.492782396     A.U. after   12 cycles
 E2(B2PLYPD3) =    -0.2541541483D+00 E(B2PLYPD3) =    -0.15774693654464D+03

 The electronic state is 1-A.
 Alpha  occ. eigenvalues --  -10.63257 -10.61045 -10.60685 -10.60339  -0.99351
 Alpha  occ. eigenvalues --   -0.85406  -0.79091  -0.67802  -0.58135  -0.52605
 Alpha  occ. eigenvalues --   -0.48404  -0.47741  -0.43788  -0.38948  -0.38524
 Alpha  occ. eigenvalues --   -0.35282  -0.34080
 Alpha virt. eigenvalues --    0.04722   0.05611   0.07578   0.08279   0.09913
 Alpha virt. eigenvalues --    0.10522   0.11956   0.12905   0.13870   0.15132
 Alpha virt. eigenvalues --    0.15675   0.16686   0.17841   0.18665   0.21029

 Mulliken charges:
               1
     1  C   -0.498050
     2  C   -0.571437
     3  H    0.014208
     4  H    0.385696
     5  H    0.095413
     6  C   -0.110311
     7  H    0.531305
     8  H    0.048217
     9  C   -0.188125
    10  H   -0.012054
    11  H    0.116256
    12  H    0.040942
    13  H    0.062338
    14  H    0.085601
 Sum of Mulliken charges =   0.00000

 Dipole moment (field-independent basis, Debye):
    X=             -0.3145    Y=             -0.2909    Z=             -0.5023  Tot=              0.6602
 Quadrupole moment (field-independent basis, Debye-Ang):
   XX=            -30.6635   YY=            -30.5522   ZZ=            -27.4336
   XY=             -0.2842   XZ=              0.7224   YZ=              0.0806

 Normal termination of Gaussian 09 at Wed Aug 26 13:18:51 2020.
