 Gaussian 09, Revision D.01,
 Gaussian 09:  ES64L-G09RevD.01 24-Apr-2013

 --------------------
 #p B2PLYPD3/Def2QZVP
 --------------------

 ----------
 butane_opt
 ----------
 Symbolic Z-matrix:
 Charge =  0 Multiplicity = 1

                         Standard orientation:
 ---------------------------------------------------------------------
 Center     Atomic      Atomic             Coordinates (Angstroms)
 Number     Number       Type             X           Y           Z
 ---------------------------------------------------------------------
      1          6           0       -1.953528   -0.147010   -0.017321
      2          6           0       -0.516709    0.562991   -0.042590
      3          1           0       -2.796337    0.680869    0.127751
      4          1           0       -2.033955   -0.564284    0.715529
      5          1           0       -2.349131   -1.085313   -0.962370
      6          6           0        0.615659   -0.512445    0.110766
      7          1           0       -0.412145    1.435405    0.968455
      8          1           0       -0.401848    0.999267   -0.888221
      9          6           0        1.899957    0.094558   -0.069908
     10          1           0        0.441143   -1.056293   -0.546619
     11          1           0        0.523436   -1.180432    1.117708
     12          1           0        1.868300    0.738238   -1.002428
     13          1           0        2.692839   -0.713298   -0.216213
     14          1           0        2.195417    0.757270    0.800727
 ---------------------------------------------------------------------

 SCF Done:  E(RB2PLYPD3) =  -157.920164796     A.U. after   11 cycles
 E2(B2PLYPD3) =    -0.2486861344D+00 E(B2PLYPD3) =    -0.15816885093080D+03

 The electronic state is 1-A.
 Alpha  occ. eigenvalues --  -10.62694 -10.61350 -10.60734 -10.58899  -0.92730
 Alpha  occ. eigenvalues --   -0.83895  -0.73550  -0.68736  -0.54455  -0.49924
 Alpha  occ. eigenvalues --   -0.47944  -0.45407  -0.44059  -0.41326  -0.39089
 Alpha  occ. eigenvalues --   -0.37708  -0.35705
 Alpha virt. eigenvalues --    0.05360   0.05767   0.07607   0.08159   0.10784
 Alpha virt. eigenvalues --    0.11107   0.12561   0.13827   0.14391   0.15014
 Alpha virt. eigenvalues --    0.15584   0.16053   0.19090   0.20127   0.20862

 Mulliken charges:
               1
     1  C   -0.275313
     2  C   -0.057693
     3  H    0.038368
     4  H    0.173695
     5  H    0.016092
     6  C   -0.123747
     7  H   -0.001364
     8  H    0.089227
     9  C   -0.141301
    10  H    0.142632
    11  H    0.011685
    12  H    0.039333
    13  H    0.040443
    14  H    0.047943
 Sum of Mulliken charges =   0.00000

 Dipole moment (field-independent basis, Debye):
    X=              0.1481    Y=             -0.1852    Z=             -0.0223  Tot=              0.2382
 Quadrupole moment (field-independent basis, Debye-Ang):
   XX=            -30.6020   YY=            -28.9872   ZZ=            -28.4140
   XY=             -0.1259   XZ=             -0.6437   YZ=              0.1335

 Normal termination of Gaussian 09 at Wed Aug 26 21:39:23 2020.
