 Gaussian 09, Revision D.01,
 Gaussian 09:  ES64L-G09RevD.01 24-Apr-2013

 --------------------
 #p B2PLYPD3/Def2QZVP
 --------------------

 ----------
 butane_opt
 ----------
 Symbolic Z-matrix:
 Charge =  0 Multiplicity = 1

                         Standard orientation:
 ---------------------------------------------------------------------
 Center     Atomic      Atomic             Coordinates (Angstroms)
 Number     Number       Type             X           Y           Z
 ---------------------------------------------------------------------
      1          6           0       -2.008887   -0.156849    0.178642
      2          6           0       -0.523608    0.607196   -0.094099
      3          1           0       -2.683720    0.696386   -0.152402
      4          1           0       -1.918764   -1.218519    1.136015
      5          1           0       -2.174930   -0.609540   -0.695823
      6          6           0        0.584439   -0.520581   -0.283151
      7          1           0       -0.355432    1.326138    0.781147
      8          1           0       -0.784725    1.102138   -0.812918
      9          6           0        1.939021    0.094110    0.151691
     10          1           0        0.521379   -1.128486   -1.229503
     11          1           0        0.507982   -1.110918    0.420266
     12          1           0        2.499830    0.884938   -0.742024
     13          1           0        2.725809   -0.618304    0.553379
     14          1           0        1.716781    0.532911    1.023366
 ---------------------------------------------------------------------

 SCF Done:  E(RB2PLYPD3) =  -157.927162516     A.U. after   11 cycles
 E2(B2PLYPD3) =    -0.2512788716D+00 E(B2PLYPD3) =    -0.15817844138733D+03

 The electronic state is 1-A.
 Alpha  occ. eigenvalues --  -10.63032 -10.61544 -10.60728 -10.60064  -0.90750
 Alpha  occ. eigenvalues --   -0.82992  -0.72347  -0.69411  -0.53865  -0.49498
 Alpha  occ. eigenvalues --   -0.46693  -0.46380  -0.42243  -0.40172  -0.39439
 Alpha  occ. eigenvalues --   -0.37908  -0.34011
 Alpha virt. eigenvalues --    0.04133   0.06092   0.07917   0.08338   0.10766
 Alpha virt. eigenvalues --    0.11096   0.11219   0.13798   0.13995   0.14482
 Alpha virt. eigenvalues --    0.15962   0.16761   0.18783   0.19096   0.20773

 Mulliken charges:
               1
     1  C   -0.195445
     2  C   -0.076931
     3  H    0.031756
     4  H    0.042654
     5  H    0.078140
     6  C   -0.105026
     7  H    0.030397
     8  H    0.079697
     9  C   -0.159896
    10  H    0.039464
    11  H    0.105858
    12  H    0.022080
    13  H    0.027844
    14  H    0.079409
 Sum of Mulliken charges =   0.00000

 Dipole moment (field-independent basis, Debye):
    X=             -0.0652    Y=             -0.1660    Z=             -0.2333  Tot=              0.2936
 Quadrupole moment (field-independent basis, Debye-Ang):
   XX=            -31.8983   YY=            -28.4891   ZZ=            -28.2453
   XY=             -0.9906   XZ=              2.3553   YZ=             -0.7644

 Normal termination of Gaussian 09 at Wed Aug 26 18:47:27 2020.
