 Gaussian 09, Revision D.01,
 Gaussian 09:  ES64L-G09RevD.01 24-Apr-2013

 --------------------
 #p B2PLYPD3/Def2QZVP
 --------------------

 ----------
 butane_opt
 ----------
 Symbolic Z-matrix:
 Charge =  0 Multiplicity = 1

                         Standard orientation:
 ---------------------------------------------------------------------
 Center     Atomic      Atomic             Coordinates (Angstroms)
 Number     Number       Type             X           Y           Z
 ---------------------------------------------------------------------
      1          6           0        2.046719   -0.151895    0.073026
      2          6           0        0.548299    0.593470   -0.012811
      3          1           0        2.739494    0.450803    0.178277
      4          1           0        2.419859   -0.493438   -0.726065
      5          1           0        2.282532   -1.124287    0.911761
      6          6           0       -0.634031   -0.445734   -0.290970
      7          1           0        0.449943    1.269005   -0.680119
      8          1           0        0.180430    1.099260    0.955829
      9          6           0       -2.022203    0.078690    0.070154
     10          1           0       -0.595835   -1.061337    0.506593
     11          1           0       -0.353971   -1.035576   -1.210229
     12          1           0       -1.540296    0.439568    1.162395
     13          1           0       -2.920980   -0.998829    0.693259
     14          1           0       -2.293879    1.007646   -0.828096
 ---------------------------------------------------------------------

 SCF Done:  E(RB2PLYPD3) =  -157.872187076     A.U. after   11 cycles
 E2(B2PLYPD3) =    -0.2547283941D+00 E(B2PLYPD3) =    -0.15812691546996D+03

 The electronic state is 1-A.
 Alpha  occ. eigenvalues --  -10.68021 -10.62028 -10.60473 -10.60001  -0.90659
 Alpha  occ. eigenvalues --   -0.83796  -0.74509  -0.65134  -0.54307  -0.48074
 Alpha  occ. eigenvalues --   -0.47352  -0.45790  -0.41258  -0.40007  -0.39898
 Alpha  occ. eigenvalues --   -0.37004  -0.34080
 Alpha virt. eigenvalues --    0.02205   0.05753   0.07642   0.08508   0.09028
 Alpha virt. eigenvalues --    0.10773   0.11911   0.13399   0.13998   0.14802
 Alpha virt. eigenvalues --    0.15866   0.16297   0.18567   0.18946   0.19831

 Mulliken charges:
               1
     1  C   -0.153064
     2  C   -0.065213
     3  H    0.064887
     4  H    0.047232
     5  H    0.020481
     6  C   -0.076208
     7  H    0.068857
     8  H    0.022817
     9  C   -0.178924
    10  H    0.082727
    11  H    0.034524
    12  H    0.047424
    13  H    0.032439
    14  H    0.052022
 Sum of Mulliken charges =   0.00000

 Dipole moment (field-independent basis, Debye):
    X=              0.8381    Y=              0.1648    Z=             -0.2093  Tot=              0.8794
 Quadrupole moment (field-independent basis, Debye-Ang):
   XX=            -30.9080   YY=            -29.4765   ZZ=            -28.7362
   XY=              0.2554   XZ=             -1.0683   YZ=             -1.3310

 Normal termination of Gaussian 09 at Wed Aug 26 12:59:01 2020.
