 Gaussian 09, Revision D.01,
 Gaussian 09:  ES64L-G09RevD.01 24-Apr-2013

 --------------------
 #p B2PLYPD3/Def2QZVP
 --------------------

 ----------
 butane_opt
 ----------
 Symbolic Z-matrix:
 Charge =  0 Multiplicity = 1

                         Standard orientation:
 ---------------------------------------------------------------------
 Center     Atomic      Atomic             Coordinates (Angstroms)
 Number     Number       Type             X           Y           Z
 ---------------------------------------------------------------------
      1          6           0       -2.005760   -0.124170   -0.162516
      2          6           0       -0.465143    0.575713    0.068389
      3          1           0       -2.794317    0.514815   -0.084441
      4          1           0       -2.397258   -0.754669    0.816514
      5          1           0       -2.273801   -0.784868   -0.834105
      6          6           0        0.625104   -0.468323    0.196600
      7          1           0       -0.356750    1.465910    1.057486
      8          1           0       -0.292087    1.035867   -0.720380
      9          6           0        1.876224    0.019332   -0.157135
     10          1           0        0.362199   -1.011036   -0.468808
     11          1           0        0.629241   -1.291828    1.426022
     12          1           0        1.761410    0.521742   -1.098883
     13          1           0        2.683509   -0.737886   -0.631955
     14          1           0        2.495298    1.026644    0.866522
 ---------------------------------------------------------------------

 SCF Done:  E(RB2PLYPD3) =  -157.852183836     A.U. after   11 cycles
 E2(B2PLYPD3) =    -0.2535415517D+00 E(B2PLYPD3) =    -0.15810572538755D+03

 The electronic state is 1-A.
 Alpha  occ. eigenvalues --  -10.64812 -10.63819 -10.61975 -10.60678  -0.94780
 Alpha  occ. eigenvalues --   -0.83145  -0.75135  -0.67722  -0.54777  -0.50552
 Alpha  occ. eigenvalues --   -0.49362  -0.47047  -0.40562  -0.40080  -0.38455
 Alpha  occ. eigenvalues --   -0.36267  -0.34701
 Alpha virt. eigenvalues --    0.03072   0.05897   0.06591   0.08008   0.08646
 Alpha virt. eigenvalues --    0.10995   0.11866   0.13066   0.13635   0.14717
 Alpha virt. eigenvalues --    0.15731   0.16557   0.18622   0.19271   0.20224

 Mulliken charges:
               1
     1  C   -0.146089
     2  C   -0.110842
     3  H    0.054609
     4  H    0.007138
     5  H    0.058507
     6  C   -0.103849
     7  H    0.022969
     8  H    0.107975
     9  C   -0.150544
    10  H    0.152230
    11  H   -0.000900
    12  H    0.053914
    13  H    0.050365
    14  H    0.004517
 Sum of Mulliken charges =   0.00000

 Dipole moment (field-independent basis, Debye):
    X=             -0.3739    Y=             -0.1375    Z=             -1.2226  Tot=              1.2858
 Quadrupole moment (field-independent basis, Debye-Ang):
   XX=            -30.2403   YY=            -30.0612   ZZ=            -28.9290
   XY=             -0.2074   XZ=             -0.8881   YZ=              0.8532

 Normal termination of Gaussian 09 at Wed Aug 26 14:36:22 2020.
