 Gaussian 09, Revision D.01,
 Gaussian 09:  ES64L-G09RevD.01 24-Apr-2013

 --------------------
 #p B2PLYPD3/Def2QZVP
 --------------------

 ----------
 butane_opt
 ----------
 Symbolic Z-matrix:
 Charge =  0 Multiplicity = 1

                         Standard orientation:
 ---------------------------------------------------------------------
 Center     Atomic      Atomic             Coordinates (Angstroms)
 Number     Number       Type             X           Y           Z
 ---------------------------------------------------------------------
      1          6           0        1.993435   -0.024717    0.198725
      2          6           0        0.573010    0.450788   -0.320439
      3          1           0        2.774467    0.717359    0.067218
      4          1           0        2.283220   -0.669241   -0.524292
      5          1           0        2.153727   -0.516413    1.126816
      6          6           0       -0.587961   -0.628178   -0.041893
      7          1           0        0.549074    1.021870   -1.366619
      8          1           0        0.391498    0.980351    0.399483
      9          6           0       -1.959595    0.118806    0.108151
     10          1           0       -0.157067   -1.128631    1.007638
     11          1           0       -0.640289   -1.222131   -0.780930
     12          1           0       -2.628571    1.699905    1.165271
     13          1           0       -2.747168   -0.516574   -0.234543
     14          1           0       -2.092222    0.133311   -0.527308
 ---------------------------------------------------------------------

 SCF Done:  E(RB2PLYPD3) =  -157.468426217     A.U. after   13 cycles
 E2(B2PLYPD3) =    -0.2570794275D+00 E(B2PLYPD3) =    -0.15772550564482D+03

 The electronic state is 1-A.
 Alpha  occ. eigenvalues --  -10.63152 -10.62337 -10.60168 -10.58641  -0.96694
 Alpha  occ. eigenvalues --   -0.88122  -0.77759  -0.69450  -0.54828  -0.49213
 Alpha  occ. eigenvalues --   -0.48130  -0.46555  -0.42597  -0.40160  -0.37631
 Alpha  occ. eigenvalues --   -0.35796  -0.33671
 Alpha virt. eigenvalues --   -0.04021   0.05704   0.06762   0.08068   0.10344
 Alpha virt. eigenvalues --    0.10644   0.12840   0.13371   0.14938   0.15107
 Alpha virt. eigenvalues --    0.16144   0.16777   0.18589   0.18683   0.20430

 Mulliken charges:
               1
     1  C   -0.136715
     2  C   -0.171174
     3  H    0.032586
     4  H    0.040807
     5  H    0.045088
     6  C   -0.040228
     7  H    0.031331
     8  H    0.153923
     9  C   -0.751135
    10  H    0.027296
    11  H    0.080705
    12  H    0.021960
    13  H    0.045470
    14  H    0.620087
 Sum of Mulliken charges =   0.00000

 Dipole moment (field-independent basis, Debye):
    X=              0.1212    Y=             -0.3471    Z=             -0.9988  Tot=              1.0643
 Quadrupole moment (field-independent basis, Debye-Ang):
   XX=            -29.3180   YY=            -29.4676   ZZ=            -28.0037
   XY=              0.2423   XZ=              2.5584   YZ=              1.0044

 Normal termination of Gaussian 09 at Wed Aug 26 14:14:47 2020.
