 Gaussian 09, Revision D.01,
 Gaussian 09:  ES64L-G09RevD.01 24-Apr-2013

 --------------------
 #p B2PLYPD3/Def2QZVP
 --------------------

 ----------
 butane_opt
 ----------
 Symbolic Z-matrix:
 Charge =  0 Multiplicity = 1

                         Standard orientation:
 ---------------------------------------------------------------------
 Center     Atomic      Atomic             Coordinates (Angstroms)
 Number     Number       Type             X           Y           Z
 ---------------------------------------------------------------------
      1          6           0       -2.015335   -0.170015   -0.212629
      2          6           0       -0.526376    0.561728    0.282355
      3          1           0       -2.651399    0.419269   -0.614810
      4          1           0       -2.600973   -0.819002    0.841713
      5          1           0       -2.048129   -0.536495   -0.923365
      6          6           0        0.669605   -0.422340    0.207904
      7          1           0       -0.514027    1.290729    1.176150
      8          1           0       -0.359376    0.901391   -0.416538
      9          6           0        1.938039    0.097223   -0.215881
     10          1           0        0.228180   -1.171422   -0.704674
     11          1           0        0.585927   -0.891422    1.154509
     12          1           0        1.775343    0.934973   -1.237499
     13          1           0        2.882765   -0.865366   -0.028668
     14          1           0        2.306092    0.337769    0.382687
 ---------------------------------------------------------------------

 SCF Done:  E(RB2PLYPD3) =  -157.561615877     A.U. after   11 cycles
 E2(B2PLYPD3) =    -0.2517746536D+00 E(B2PLYPD3) =    -0.15781339053066D+03

 The electronic state is 1-A.
 Alpha  occ. eigenvalues --  -10.61488 -10.61196 -10.59532 -10.59043  -0.93831
 Alpha  occ. eigenvalues --   -0.87543  -0.80865  -0.68610  -0.57112  -0.49997
 Alpha  occ. eigenvalues --   -0.48144  -0.46454  -0.43481  -0.42179  -0.38160
 Alpha  occ. eigenvalues --   -0.36327  -0.33288
 Alpha virt. eigenvalues --    0.03553   0.06032   0.07732   0.08483   0.10144
 Alpha virt. eigenvalues --    0.11004   0.11886   0.12445   0.14322   0.15227
 Alpha virt. eigenvalues --    0.15751   0.16875   0.18819   0.19200   0.20507

 Mulliken charges:
               1
     1  C   -0.312613
     2  C   -0.370280
     3  H    0.054208
     4  H    0.027249
     5  H    0.205733
     6  C    0.001663
     7  H    0.051223
     8  H    0.323471
     9  C   -0.476420
    10  H    0.018199
    11  H    0.047543
    12  H    0.059669
    13  H    0.013241
    14  H    0.357116
 Sum of Mulliken charges =   0.00000

 Dipole moment (field-independent basis, Debye):
    X=              0.1146    Y=              0.6905    Z=             -0.0151  Tot=              0.7001
 Quadrupole moment (field-independent basis, Debye-Ang):
   XX=            -29.9271   YY=            -30.0873   ZZ=            -27.1060
   XY=              0.4290   XZ=              2.8191   YZ=             -0.7314

 Normal termination of Gaussian 09 at Wed Aug 26 22:35:47 2020.
