 Gaussian 09, Revision D.01,
 Gaussian 09:  ES64L-G09RevD.01 24-Apr-2013

 --------------------
 #p B2PLYPD3/Def2QZVP
 --------------------

 ----------
 butane_opt
 ----------
 Symbolic Z-matrix:
 Charge =  0 Multiplicity = 1

                         Standard orientation:
 ---------------------------------------------------------------------
 Center     Atomic      Atomic             Coordinates (Angstroms)
 Number     Number       Type             X           Y           Z
 ---------------------------------------------------------------------
      1          6           0        1.963610    0.120013    0.020229
      2          6           0        0.459474   -0.564013    0.026025
      3          1           0        2.777306   -0.649326   -0.823667
      4          1           0        2.724871    1.484709    1.208701
      5          1           0        1.700754    0.303118   -0.484063
      6          6           0       -0.622276    0.467215   -0.158007
      7          1           0        0.598399   -1.110854    0.979355
      8          1           0        0.418981   -1.153916   -0.723454
      9          6           0       -1.833042   -0.076396    0.104268
     10          1           0       -0.593759    0.942420   -1.219945
     11          1           0       -0.599961    1.030679    0.568186
     12          1           0       -2.333564   -0.425554   -0.571192
     13          1           0       -2.667097    0.679201   -0.120623
     14          1           0       -1.832533   -0.781393    1.231620
 ---------------------------------------------------------------------

 SCF Done:  E(RB2PLYPD3) =  -157.233622886     A.U. after   13 cycles
 E2(B2PLYPD3) =    -0.2598600460D+00 E(B2PLYPD3) =    -0.15749348293186D+03

 The electronic state is 1-A.
 Alpha  occ. eigenvalues --  -10.64335 -10.61505 -10.60108 -10.59206  -0.97375
 Alpha  occ. eigenvalues --   -0.90949  -0.77228  -0.70757  -0.57808  -0.52351
 Alpha  occ. eigenvalues --   -0.49845  -0.47172  -0.41304  -0.39780  -0.36138
 Alpha  occ. eigenvalues --   -0.34226  -0.33505
 Alpha virt. eigenvalues --   -0.03620   0.05061   0.06146   0.06913   0.09807
 Alpha virt. eigenvalues --    0.10016   0.11437   0.12397   0.13326   0.15070
 Alpha virt. eigenvalues --    0.16321   0.16783   0.17569   0.19397   0.19985

 Mulliken charges:
               1
     1  C   -0.949330
     2  C   -0.035996
     3  H    0.038746
     4  H    0.024611
     5  H    0.764912
     6  C   -0.079642
     7  H    0.047110
     8  H    0.087923
     9  C   -0.187958
    10  H    0.023541
    11  H    0.128053
    12  H    0.071580
    13  H    0.016625
    14  H    0.049823
 Sum of Mulliken charges =   0.00000

 Dipole moment (field-independent basis, Debye):
    X=             -1.2187    Y=             -0.0216    Z=             -0.9484  Tot=              1.5444
 Quadrupole moment (field-independent basis, Debye-Ang):
   XX=            -32.4841   YY=            -29.7161   ZZ=            -27.5845
   XY=             -0.1547   XZ=              0.6247   YZ=              0.4251

 Normal termination of Gaussian 09 at Wed Aug 26 12:11:52 2020.
