 Gaussian 09, Revision D.01,
 Gaussian 09:  ES64L-G09RevD.01 24-Apr-2013

 --------------------
 #p B2PLYPD3/Def2QZVP
 --------------------

 ----------
 butane_opt
 ----------
 Symbolic Z-matrix:
 Charge =  0 Multiplicity = 1

                         Standard orientation:
 ---------------------------------------------------------------------
 Center     Atomic      Atomic             Coordinates (Angstroms)
 Number     Number       Type             X           Y           Z
 ---------------------------------------------------------------------
      1          6           0       -1.977215    0.046261   -0.145652
      2          6           0       -0.619496   -0.440170    0.152224
      3          1           0       -2.787605   -0.823432   -0.350810
      4          1           0       -1.700216    0.527543   -0.903903
      5          1           0       -2.490841    1.152786    0.898752
      6          6           0        0.599802    0.579551    0.047934
      7          1           0       -0.671556   -0.858040   -0.505707
      8          1           0       -0.805438   -1.171698    1.124084
      9          6           0        2.030892   -0.185760   -0.086837
     10          1           0        0.591250    1.286207    0.812883
     11          1           0        0.239958    0.902589   -0.827169
     12          1           0        2.176498   -0.849475    0.773839
     13          1           0        2.897068    0.553430   -0.018072
     14          1           0        2.346984   -0.719200   -0.809905
 ---------------------------------------------------------------------

 SCF Done:  E(RB2PLYPD3) =  -157.825185653     A.U. after   11 cycles
 E2(B2PLYPD3) =    -0.2501638672D+00 E(B2PLYPD3) =    -0.15807534952001D+03

 The electronic state is 1-A.
 Alpha  occ. eigenvalues --  -10.63953 -10.61774 -10.60076 -10.59060  -0.95626
 Alpha  occ. eigenvalues --   -0.84873  -0.75173  -0.68751  -0.56296  -0.50684
 Alpha  occ. eigenvalues --   -0.49764  -0.47627  -0.44007  -0.42206  -0.38926
 Alpha  occ. eigenvalues --   -0.36516  -0.33984
 Alpha virt. eigenvalues --    0.03938   0.06200   0.08312   0.08836   0.09895
 Alpha virt. eigenvalues --    0.10820   0.12368   0.13103   0.14083   0.14762
 Alpha virt. eigenvalues --    0.15770   0.16581   0.18730   0.19989   0.21139

 Mulliken charges:
               1
     1  C   -0.177239
     2  C   -0.363736
     3  H    0.068946
     4  H    0.092544
     5  H   -0.040837
     6  C   -0.071544
     7  H    0.348875
     8  H    0.026740
     9  C   -0.141828
    10  H    0.071709
    11  H    0.069239
    12  H    0.045475
    13  H    0.022453
    14  H    0.049203
 Sum of Mulliken charges =   0.00000

 Dipole moment (field-independent basis, Debye):
    X=              0.5996    Y=             -0.5269    Z=             -0.8575  Tot=              1.1715
 Quadrupole moment (field-independent basis, Debye-Ang):
   XX=            -30.5672   YY=            -29.2687   ZZ=            -28.6895
   XY=              1.8318   XZ=              1.0508   YZ=              0.5424

 Normal termination of Gaussian 09 at Wed Aug 26 23:53:31 2020.
