 Gaussian 09, Revision D.01,
 Gaussian 09:  ES64L-G09RevD.01 24-Apr-2013

 --------------------
 #p B2PLYPD3/Def2QZVP
 --------------------

 ----------
 butane_opt
 ----------
 Symbolic Z-matrix:
 Charge =  0 Multiplicity = 1

                         Standard orientation:
 ---------------------------------------------------------------------
 Center     Atomic      Atomic             Coordinates (Angstroms)
 Number     Number       Type             X           Y           Z
 ---------------------------------------------------------------------
      1          6           0        1.907667   -0.142820   -0.114575
      2          6           0        0.528100    0.519962    0.080973
      3          1           0        2.610592    0.455871   -0.403146
      4          1           0        1.802118   -0.810687   -0.902680
      5          1           0        2.483612   -0.785464    0.860982
      6          6           0       -0.532421   -0.380588    0.177607
      7          1           0        0.098633    1.045339   -0.835908
      8          1           0        0.476410    1.412973    0.897212
      9          6           0       -1.926774    0.031239   -0.119055
     10          1           0       -0.587311   -1.281634    1.418340
     11          1           0       -0.259554   -0.774878   -0.557052
     12          1           0       -2.155350    1.209319    0.866921
     13          1           0       -2.717664   -1.087378   -0.534311
     14          1           0       -1.610920    0.449779   -0.960062
 ---------------------------------------------------------------------

 SCF Done:  E(RB2PLYPD3) =  -157.799828214     A.U. after   11 cycles
 E2(B2PLYPD3) =    -0.2566691290D+00 E(B2PLYPD3) =    -0.15805649734266D+03

 The electronic state is 1-A.
 Alpha  occ. eigenvalues --  -10.66388 -10.63489 -10.61598 -10.61471  -0.97856
 Alpha  occ. eigenvalues --   -0.84694  -0.74870  -0.65850  -0.55032  -0.50965
 Alpha  occ. eigenvalues --   -0.49101  -0.46450  -0.41696  -0.41003  -0.38926
 Alpha  occ. eigenvalues --   -0.35909  -0.32982
 Alpha virt. eigenvalues --    0.01461   0.05684   0.05875   0.07437   0.09088
 Alpha virt. eigenvalues --    0.09755   0.11698   0.11977   0.13770   0.15111
 Alpha virt. eigenvalues --    0.15928   0.16471   0.18283   0.18665   0.20579

 Mulliken charges:
               1
     1  C   -0.129689
     2  C   -0.037502
     3  H    0.062566
     4  H    0.043382
     5  H    0.035766
     6  C   -0.149994
     7  H    0.027666
     8  H    0.016090
     9  C   -0.177145
    10  H   -0.042527
    11  H    0.195608
    12  H    0.019038
    13  H    0.058358
    14  H    0.078383
 Sum of Mulliken charges =   0.00000

 Dipole moment (field-independent basis, Debye):
    X=              0.7398    Y=              0.1685    Z=             -1.3198  Tot=              1.5224
 Quadrupole moment (field-independent basis, Debye-Ang):
   XX=            -30.8077   YY=            -30.4316   ZZ=            -29.6628
   XY=              0.8264   XZ=              0.6893   YZ=              1.2937

 Normal termination of Gaussian 09 at Wed Aug 26 18:57:06 2020.
