 Gaussian 09, Revision D.01,
 Gaussian 09:  ES64L-G09RevD.01 24-Apr-2013

 --------------------
 #p B2PLYPD3/Def2QZVP
 --------------------

 ----------
 butane_opt
 ----------
 Symbolic Z-matrix:
 Charge =  0 Multiplicity = 1

                         Standard orientation:
 ---------------------------------------------------------------------
 Center     Atomic      Atomic             Coordinates (Angstroms)
 Number     Number       Type             X           Y           Z
 ---------------------------------------------------------------------
      1          6           0       -1.875169   -0.121705    0.106615
      2          6           0       -0.634383    0.493867   -0.188034
      3          1           0       -2.638245    0.526219    0.068765
      4          1           0       -1.929374   -0.869350    1.243513
      5          1           0       -2.388485   -0.314767   -0.428830
      6          6           0        0.493410   -0.557269   -0.098366
      7          1           0       -0.536754    1.192341    0.701762
      8          1           0       -0.666058    1.227865   -1.143727
      9          6           0        1.991502    0.111247    0.071084
     10          1           0        0.518265   -1.345925   -0.897203
     11          1           0        0.593347   -1.152971    0.793445
     12          1           0        1.885715    0.387948   -0.558898
     13          1           0        2.770742   -0.482849   -0.311237
     14          1           0        2.538689    1.274647    1.184615
 ---------------------------------------------------------------------

 SCF Done:  E(RB2PLYPD3) =  -157.506299476     A.U. after   12 cycles
 E2(B2PLYPD3) =    -0.2542869767D+00 E(B2PLYPD3) =    -0.15776058645289D+03

 The electronic state is 1-A.
 Alpha  occ. eigenvalues --  -10.62730 -10.62437 -10.59793 -10.57577  -0.94675
 Alpha  occ. eigenvalues --   -0.89879  -0.79513  -0.69139  -0.54094  -0.51240
 Alpha  occ. eigenvalues --   -0.49840  -0.45789  -0.42599  -0.39158  -0.36680
 Alpha  occ. eigenvalues --   -0.35635  -0.34227
 Alpha virt. eigenvalues --    0.02113   0.05452   0.06931   0.07357   0.09582
 Alpha virt. eigenvalues --    0.11305   0.11878   0.12864   0.14183   0.15464
 Alpha virt. eigenvalues --    0.16707   0.16827   0.18337   0.20287   0.20774

 Mulliken charges:
               1
     1  C   -0.395651
     2  C   -0.016247
     3  H    0.045694
     4  H    0.042091
     5  H    0.253226
     6  C   -0.024205
     7  H    0.058316
     8  H    0.018917
     9  C   -0.674474
    10  H    0.036927
    11  H    0.054581
    12  H    0.518236
    13  H    0.065288
    14  H    0.017301
 Sum of Mulliken charges =   0.00000

 Dipole moment (field-independent basis, Debye):
    X=             -0.8127    Y=             -0.0240    Z=             -0.9307  Tot=              1.2358
 Quadrupole moment (field-independent basis, Debye-Ang):
   XX=            -28.6166   YY=            -29.2630   ZZ=            -28.4363
   XY=             -1.2979   XZ=             -0.1393   YZ=             -0.1754

 Normal termination of Gaussian 09 at Wed Aug 26 16:25:51 2020.
