 Gaussian 09, Revision D.01,
 Gaussian 09:  ES64L-G09RevD.01 24-Apr-2013

 --------------------
 #p B2PLYPD3/Def2QZVP
 --------------------

 ----------
 butane_opt
 ----------
 Symbolic Z-matrix:
 Charge =  0 Multiplicity = 1

                         Standard orientation:
 ---------------------------------------------------------------------
 Center     Atomic      Atomic             Coordinates (Angstroms)
 Number     Number       Type             X           Y           Z
 ---------------------------------------------------------------------
      1          6           0        1.948428   -0.194646   -0.105294
      2          6           0        0.441060    0.631974    0.031037
      3          1           0        2.813426    0.472391   -0.430979
      4          1           0        1.920013   -0.984460   -0.924971
      5          1           0        2.402294   -0.753350    0.834929
      6          6           0       -0.617146   -0.452614    0.298785
      7          1           0        0.439753    0.931638   -0.639565
      8          1           0        0.317738    1.700700    0.950035
      9          6           0       -1.844106    0.007167   -0.188755
     10          1           0       -0.646315   -1.000522    1.466097
     11          1           0       -0.428958   -0.856230   -0.331729
     12          1           0       -2.274825    0.972687    0.648230
     13          1           0       -2.579996   -0.917158   -0.640115
     14          1           0       -1.532545    0.483018   -1.146572
 ---------------------------------------------------------------------

 SCF Done:  E(RB2PLYPD3) =  -157.665766308     A.U. after   11 cycles
 E2(B2PLYPD3) =    -0.2528031688D+00 E(B2PLYPD3) =    -0.15791856947727D+03

 The electronic state is 1-A.
 Alpha  occ. eigenvalues --  -10.63885 -10.63242 -10.62300 -10.58858  -0.97103
 Alpha  occ. eigenvalues --   -0.83678  -0.73308  -0.69135  -0.56648  -0.50394
 Alpha  occ. eigenvalues --   -0.47625  -0.45267  -0.42057  -0.39757  -0.39242
 Alpha  occ. eigenvalues --   -0.36998  -0.35262
 Alpha virt. eigenvalues --    0.04231   0.06172   0.07327   0.07959   0.10550
 Alpha virt. eigenvalues --    0.11179   0.11604   0.12620   0.13713   0.14911
 Alpha virt. eigenvalues --    0.15233   0.16959   0.18360   0.19077   0.19691

 Mulliken charges:
               1
     1  C   -0.149487
     2  C   -0.440192
     3  H    0.040069
     4  H    0.036428
     5  H    0.044801
     6  C   -0.405506
     7  H    0.409197
     8  H    0.012259
     9  C   -0.138852
    10  H    0.052443
    11  H    0.431292
    12  H    0.029860
    13  H    0.038700
    14  H    0.038990
 Sum of Mulliken charges =   0.00000

 Dipole moment (field-independent basis, Debye):
    X=              0.2402    Y=             -0.4056    Z=             -0.6940  Tot=              0.8390
 Quadrupole moment (field-independent basis, Debye-Ang):
   XX=            -31.4873   YY=            -29.5658   ZZ=            -28.1782
   XY=              0.2948   XZ=             -0.2510   YZ=              0.1413

 Normal termination of Gaussian 09 at Wed Aug 26 22:50:18 2020.
