 Gaussian 09, Revision D.01,
 Gaussian 09:  ES64L-G09RevD.01 24-Apr-2013

 --------------------
 #p B2PLYPD3/Def2QZVP
 --------------------

 ----------
 butane_opt
 ----------
 Symbolic Z-matrix:
 Charge =  0 Multiplicity = 1

                         Standard orientation:
 ---------------------------------------------------------------------
 Center     Atomic      Atomic             Coordinates (Angstroms)
 Number     Number       Type             X           Y           Z
 ---------------------------------------------------------------------
      1          6           0        1.961886    0.066666   -0.139158
      2          6           0        0.660917   -0.512505    0.050158
      3          1           0        2.619729   -0.820344    0.048932
      4          1           0        2.157669    0.810998    0.742615
      5          1           0        1.968009    0.755420   -1.059724
      6          6           0       -0.551448    0.613715    0.218881
      7          1           0        0.659022   -1.275443    0.968816
      8          1           0        0.313456   -1.026563   -0.799186
      9          6           0       -2.016157   -0.134870   -0.157539
     10          1           0       -0.491045    1.107337   -0.668173
     11          1           0       -0.476518    1.548799    1.297342
     12          1           0       -1.915911   -0.415994   -0.767230
     13          1           0       -2.628260    0.354617   -0.729247
     14          1           0       -2.537346   -1.236859    1.131802
 ---------------------------------------------------------------------

 SCF Done:  E(RB2PLYPD3) =  -157.603223202     A.U. after   12 cycles
 E2(B2PLYPD3) =    -0.2553949790D+00 E(B2PLYPD3) =    -0.15785861818057D+03

 The electronic state is 1-A.
 Alpha  occ. eigenvalues --  -10.65531 -10.62241 -10.61691 -10.61371  -0.93567
 Alpha  occ. eigenvalues --   -0.89004  -0.75478  -0.66109  -0.53113  -0.49863
 Alpha  occ. eigenvalues --   -0.48099  -0.46156  -0.42454  -0.40159  -0.38358
 Alpha  occ. eigenvalues --   -0.35592  -0.33775
 Alpha virt. eigenvalues --    0.01189   0.05222   0.06948   0.07132   0.08837
 Alpha virt. eigenvalues --    0.10685   0.11744   0.12201   0.13776   0.14840
 Alpha virt. eigenvalues --    0.16160   0.16672   0.17906   0.18915   0.19312

 Mulliken charges:
               1
     1  C   -0.159760
     2  C   -0.018096
     3  H    0.062603
     4  H    0.042347
     5  H    0.043098
     6  C   -0.115027
     7  H    0.026514
     8  H    0.051039
     9  C   -0.623980
    10  H    0.085373
    11  H    0.028557
    12  H    0.517909
    13  H    0.060487
    14  H   -0.001063
 Sum of Mulliken charges =   0.00000

 Dipole moment (field-independent basis, Debye):
    X=              0.5790    Y=              0.1075    Z=             -1.1201  Tot=              1.2655
 Quadrupole moment (field-independent basis, Debye-Ang):
   XX=            -32.4240   YY=            -29.6395   ZZ=            -27.7950
   XY=             -0.8554   XZ=              2.7847   YZ=             -0.6033

 Normal termination of Gaussian 09 at Wed Aug 26 14:02:25 2020.
