 Gaussian 09, Revision D.01,
 Gaussian 09:  ES64L-G09RevD.01 24-Apr-2013

 --------------------
 #p B2PLYPD3/Def2QZVP
 --------------------

 ----------
 butane_opt
 ----------
 Symbolic Z-matrix:
 Charge =  0 Multiplicity = 1

                         Standard orientation:
 ---------------------------------------------------------------------
 Center     Atomic      Atomic             Coordinates (Angstroms)
 Number     Number       Type             X           Y           Z
 ---------------------------------------------------------------------
      1          6           0        1.881865   -0.030921    0.180850
      2          6           0        0.577290    0.449959   -0.243315
      3          1           0        2.806896    0.844545   -0.054526
      4          1           0        1.934321   -0.551708   -0.544668
      5          1           0        1.837682   -0.750321    1.235971
      6          6           0       -0.493126   -0.640236    0.013786
      7          1           0        0.486908    1.297998   -1.413278
      8          1           0        0.497405    0.830360    0.439328
      9          6           0       -1.957242    0.130131    0.073610
     10          1           0       -0.381244   -1.014433    0.656604
     11          1           0       -0.074674   -1.315310   -0.672720
     12          1           0       -2.536797    1.705933    1.326286
     13          1           0       -2.603761   -0.490336   -0.699127
     14          1           0       -2.019454   -0.010324   -0.423455
 ---------------------------------------------------------------------

 SCF Done:  E(RB2PLYPD3) =  -156.492626275     A.U. after   15 cycles
 E2(B2PLYPD3) =    -0.2683962988D+00 E(B2PLYPD3) =    -0.15676102257365D+03

 The electronic state is 1-A.
 Alpha  occ. eigenvalues --  -10.67115 -10.60982 -10.59062 -10.59023  -1.01939
 Alpha  occ. eigenvalues --   -0.95063  -0.81833  -0.71400  -0.56914  -0.50145
 Alpha  occ. eigenvalues --   -0.48004  -0.45854  -0.38971  -0.38063  -0.36252
 Alpha  occ. eigenvalues --   -0.35332  -0.29074
 Alpha virt. eigenvalues --   -0.07618   0.03197   0.05086   0.05927   0.09789
 Alpha virt. eigenvalues --    0.11091   0.12194   0.12249   0.14220   0.14716
 Alpha virt. eigenvalues --    0.16010   0.17074   0.18034   0.19009   0.19843

 Mulliken charges:
               1
     1  C   -0.248255
     2  C   -0.406501
     3  H    0.038753
     4  H    0.140271
     5  H    0.051425
     6  C   -0.370767
     7  H    0.029418
     8  H    0.397861
     9  C   -1.090042
    10  H    0.323576
    11  H    0.061980
    12  H    0.091617
    13  H    0.056302
    14  H    0.924364
 Sum of Mulliken charges =   0.00000

 Dipole moment (field-independent basis, Debye):
    X=              0.1004    Y=              0.0262    Z=             -0.7535  Tot=              0.7606
 Quadrupole moment (field-independent basis, Debye-Ang):
   XX=            -31.4306   YY=            -28.8003   ZZ=            -27.0515
   XY=             -1.6195   XZ=              1.8342   YZ=              1.5670

 Normal termination of Gaussian 09 at Wed Aug 26 09:43:46 2020.
