 Gaussian 09, Revision D.01,
 Gaussian 09:  ES64L-G09RevD.01 24-Apr-2013

 --------------------
 #p B2PLYPD3/Def2QZVP
 --------------------

 ----------
 butane_opt
 ----------
 Symbolic Z-matrix:
 Charge =  0 Multiplicity = 1

                         Standard orientation:
 ---------------------------------------------------------------------
 Center     Atomic      Atomic             Coordinates (Angstroms)
 Number     Number       Type             X           Y           Z
 ---------------------------------------------------------------------
      1          6           0       -2.016988    0.164196    0.059012
      2          6           0       -0.621205   -0.564763   -0.005722
      3          1           0       -2.736087   -0.533474   -0.400440
      4          1           0       -1.818010    0.280746   -0.514078
      5          1           0       -2.630847    1.454621    1.286727
      6          6           0        0.616732    0.454808   -0.156086
      7          1           0       -0.597645   -1.609587   -1.016532
      8          1           0       -0.231490   -1.055100    0.893890
      9          6           0        1.956279   -0.108990    0.115651
     10          1           0        0.627182    0.940822    0.318192
     11          1           0        0.473369    1.330753   -1.314638
     12          1           0        2.018901   -0.900817    1.231558
     13          1           0        3.086128    0.928924    0.044436
     14          1           0        2.199597   -0.508398   -0.606243
 ---------------------------------------------------------------------

 SCF Done:  E(RB2PLYPD3) =  -157.012957019     A.U. after   13 cycles
 E2(B2PLYPD3) =    -0.2619902385D+00 E(B2PLYPD3) =    -0.15727494725722D+03

 The electronic state is 1-A.
 Alpha  occ. eigenvalues --  -10.67290 -10.64417 -10.62939 -10.61285  -0.96654
 Alpha  occ. eigenvalues --   -0.91745  -0.76224  -0.70944  -0.52892  -0.48840
 Alpha  occ. eigenvalues --   -0.48399  -0.44271  -0.42040  -0.40720  -0.37662
 Alpha  occ. eigenvalues --   -0.34864  -0.34590
 Alpha virt. eigenvalues --   -0.03115   0.03282   0.04055   0.05678   0.09348
 Alpha virt. eigenvalues --    0.09619   0.11078   0.12474   0.14005   0.15042
 Alpha virt. eigenvalues --    0.15161   0.16037   0.17046   0.18469   0.19485

 Mulliken charges:
               1
     1  C   -0.852834
     2  C   -0.002244
     3  H    0.092673
     4  H    0.692253
     5  H    0.049013
     6  C   -0.577071
     7  H    0.013944
     8  H    0.053832
     9  C   -0.222553
    10  H    0.539469
    11  H   -0.004768
    12  H    0.048971
    13  H    0.003575
    14  H    0.165739
 Sum of Mulliken charges =   0.00000

 Dipole moment (field-independent basis, Debye):
    X=             -0.1128    Y=             -0.4513    Z=             -0.1429  Tot=              0.4867
 Quadrupole moment (field-independent basis, Debye-Ang):
   XX=            -31.3671   YY=            -29.6139   ZZ=            -29.0293
   XY=             -0.8533   XZ=              0.5725   YZ=              1.1033

 Normal termination of Gaussian 09 at Wed Aug 26 15:12:25 2020.
