 Gaussian 09, Revision D.01,
 Gaussian 09:  ES64L-G09RevD.01 24-Apr-2013

 --------------------
 #p B2PLYPD3/Def2QZVP
 --------------------

 ----------
 butane_opt
 ----------
 Symbolic Z-matrix:
 Charge =  0 Multiplicity = 1

                         Standard orientation:
 ---------------------------------------------------------------------
 Center     Atomic      Atomic             Coordinates (Angstroms)
 Number     Number       Type             X           Y           Z
 ---------------------------------------------------------------------
      1          6           0        1.987305    0.181298    0.035879
      2          6           0        0.509876   -0.647709   -0.033411
      3          1           0        2.715172   -0.639326   -0.606929
      4          1           0        2.868619    1.548221    1.162002
      5          1           0        1.892862    0.222809   -0.463175
      6          6           0       -0.624244    0.447048   -0.148297
      7          1           0        0.684894   -1.292379    0.847838
      8          1           0        0.371486   -1.213605   -0.874077
      9          6           0       -1.910310   -0.018807    0.065879
     10          1           0       -0.619319    1.151540   -1.166429
     11          1           0       -0.721341    1.196584    0.888477
     12          1           0       -2.141329   -0.258977   -0.558753
     13          1           0       -2.777852    0.667173   -0.129158
     14          1           0       -2.048960   -1.153022    1.379908
 ---------------------------------------------------------------------

 SCF Done:  E(RB2PLYPD3) =  -156.603851407     A.U. after   13 cycles
 E2(B2PLYPD3) =    -0.2667597563D+00 E(B2PLYPD3) =    -0.15687061116332D+03

 The electronic state is 1-A.
 Alpha  occ. eigenvalues --  -10.66802 -10.64614 -10.63773 -10.60731  -0.95961
 Alpha  occ. eigenvalues --   -0.92621  -0.79050  -0.68914  -0.54583  -0.50606
 Alpha  occ. eigenvalues --   -0.48589  -0.46284  -0.39996  -0.36666  -0.34691
 Alpha  occ. eigenvalues --   -0.34301  -0.33750
 Alpha virt. eigenvalues --   -0.04981   0.01445   0.05015   0.05976   0.08809
 Alpha virt. eigenvalues --    0.09047   0.10372   0.11943   0.13029   0.15598
 Alpha virt. eigenvalues --    0.16247   0.16451   0.17504   0.18804   0.19868

 Mulliken charges:
               1
     1  C   -1.114977
     2  C   -0.024106
     3  H    0.032835
     4  H    0.074872
     5  H    0.920490
     6  C   -0.028763
     7  H    0.062887
     8  H    0.068518
     9  C   -0.526893
    10  H    0.041434
    11  H    0.028690
    12  H    0.406568
    13  H    0.059526
    14  H   -0.001081
 Sum of Mulliken charges =   0.00000

 Dipole moment (field-independent basis, Debye):
    X=             -0.4052    Y=              0.1260    Z=             -1.3809  Tot=              1.4446
 Quadrupole moment (field-independent basis, Debye-Ang):
   XX=            -31.2436   YY=            -29.4543   ZZ=            -28.0565
   XY=             -0.1513   XZ=              1.8923   YZ=              0.5940

 Normal termination of Gaussian 09 at Wed Aug 26 09:44:29 2020.
