 Gaussian 09, Revision D.01,
 Gaussian 09:  ES64L-G09RevD.01 24-Apr-2013

 --------------------
 #p B2PLYPD3/Def2QZVP
 --------------------

 ----------
 butane_opt
 ----------
 Symbolic Z-matrix:
 Charge =  0 Multiplicity = 1

                         Standard orientation:
 ---------------------------------------------------------------------
 Center     Atomic      Atomic             Coordinates (Angstroms)
 Number     Number       Type             X           Y           Z
 ---------------------------------------------------------------------
      1          6           0        1.936814    0.108729    0.050678
      2          6           0        0.577262   -0.506525   -0.045039
      3          1           0        2.787048   -0.755044   -0.175257
      4          1           0        1.964739    0.934747    1.096775
      5          1           0        2.052132    0.527299   -0.655657
      6          6           0       -0.556473    0.573012    0.017128
      7          1           0        0.601409   -1.029053    0.702454
      8          1           0        0.576119   -1.185717   -1.052746
      9          6           0       -1.962370   -0.162433    0.028837
     10          1           0       -0.394662    1.338545   -0.974040
     11          1           0       -0.518463    1.022795    0.752093
     12          1           0       -2.026296   -0.382512   -0.582043
     13          1           0       -2.579995    0.478940   -0.419593
     14          1           0       -2.433432   -1.026693    0.998394
 ---------------------------------------------------------------------

 SCF Done:  E(RB2PLYPD3) =  -157.499604602     A.U. after   11 cycles
 E2(B2PLYPD3) =    -0.2495617765D+00 E(B2PLYPD3) =    -0.15774916637864D+03

 The electronic state is 1-A.
 Alpha  occ. eigenvalues --  -10.60797 -10.59993 -10.59344 -10.57737  -0.94302
 Alpha  occ. eigenvalues --   -0.89326  -0.78377  -0.70283  -0.54824  -0.49654
 Alpha  occ. eigenvalues --   -0.48003  -0.45409  -0.43147  -0.41985  -0.38867
 Alpha  occ. eigenvalues --   -0.37696  -0.36045
 Alpha virt. eigenvalues --    0.05215   0.05841   0.07434   0.08078   0.10604
 Alpha virt. eigenvalues --    0.11360   0.12220   0.12685   0.14191   0.15867
 Alpha virt. eigenvalues --    0.16232   0.16886   0.18667   0.19117   0.21638

 Mulliken charges:
               1
     1  C   -0.287158
     2  C   -0.051845
     3  H    0.026454
     4  H    0.026634
     5  H    0.180128
     6  C   -0.102132
     7  H    0.104380
     8  H    0.006659
     9  C   -0.676506
    10  H    0.005538
    11  H    0.142864
    12  H    0.524281
    13  H    0.029573
    14  H    0.071130
 Sum of Mulliken charges =   0.00000

 Dipole moment (field-independent basis, Debye):
    X=             -0.2444    Y=             -0.0247    Z=             -0.4588  Tot=              0.5204
 Quadrupole moment (field-independent basis, Debye-Ang):
   XX=            -30.3109   YY=            -28.8115   ZZ=            -27.2485
   XY=              0.1498   XZ=             -0.1263   YZ=             -0.3587

 Normal termination of Gaussian 09 at Wed Aug 26 12:58:13 2020.
