 Gaussian 09, Revision D.01,
 Gaussian 09:  ES64L-G09RevD.01 24-Apr-2013

 --------------------
 #p B2PLYPD3/Def2QZVP
 --------------------

 ----------
 butane_opt
 ----------
 Symbolic Z-matrix:
 Charge =  0 Multiplicity = 1

                         Standard orientation:
 ---------------------------------------------------------------------
 Center     Atomic      Atomic             Coordinates (Angstroms)
 Number     Number       Type             X           Y           Z
 ---------------------------------------------------------------------
      1          6           0       -1.949718   -0.208591    0.123326
      2          6           0       -0.558315    0.565091   -0.146418
      3          1           0       -2.776484    0.347794    0.812774
      4          1           0       -1.781391   -0.760832    0.753903
      5          1           0       -2.375878   -0.846569   -0.891222
      6          6           0        0.622938   -0.389149   -0.255562
      7          1           0       -0.293826    0.993870    0.641782
      8          1           0       -0.610548    1.791581   -1.090794
      9          6           0        1.914254    0.109848    0.175097
     10          1           0        0.697851   -0.907178   -1.091209
     11          1           0        0.115793   -1.250705    0.592012
     12          1           0        2.069037    0.479779   -0.447511
     13          1           0        2.937232   -0.924295    0.043032
     14          1           0        1.843261    0.613359    1.298577
 ---------------------------------------------------------------------

 SCF Done:  E(RB2PLYPD3) =  -157.681750253     A.U. after   11 cycles
 E2(B2PLYPD3) =    -0.2532597017D+00 E(B2PLYPD3) =    -0.15793500995481D+03

 The electronic state is 1-A.
 Alpha  occ. eigenvalues --  -10.64239 -10.62199 -10.61819 -10.61590  -0.94864
 Alpha  occ. eigenvalues --   -0.86535  -0.76251  -0.68260  -0.56368  -0.50135
 Alpha  occ. eigenvalues --   -0.48622  -0.46597  -0.43008  -0.40636  -0.39314
 Alpha  occ. eigenvalues --   -0.37021  -0.33331
 Alpha virt. eigenvalues --    0.03814   0.05066   0.05759   0.07988   0.09737
 Alpha virt. eigenvalues --    0.11339   0.11803   0.12459   0.13855   0.15091
 Alpha virt. eigenvalues --    0.15723   0.16425   0.17487   0.18917   0.19969

 Mulliken charges:
               1
     1  C   -0.270072
     2  C   -0.088219
     3  H    0.033524
     4  H    0.181865
     5  H    0.046141
     6  C    0.006496
     7  H    0.111269
     8  H   -0.030762
     9  C   -0.512302
    10  H    0.065728
    11  H   -0.014285
    12  H    0.385173
    13  H    0.011214
    14  H    0.074230
 Sum of Mulliken charges =   0.00000

 Dipole moment (field-independent basis, Debye):
    X=              0.0888    Y=             -0.3181    Z=              0.4896  Tot=              0.5906
 Quadrupole moment (field-independent basis, Debye-Ang):
   XX=            -31.0839   YY=            -30.6850   ZZ=            -28.1638
   XY=              1.2841   XZ=             -1.7856   YZ=              1.3073

 Normal termination of Gaussian 09 at Wed Aug 26 10:47:49 2020.
