 Gaussian 09, Revision D.01,
 Gaussian 09:  ES64L-G09RevD.01 24-Apr-2013

 --------------------
 #p B2PLYPD3/Def2QZVP
 --------------------

 ----------
 butane_opt
 ----------
 Symbolic Z-matrix:
 Charge =  0 Multiplicity = 1

                         Standard orientation:
 ---------------------------------------------------------------------
 Center     Atomic      Atomic             Coordinates (Angstroms)
 Number     Number       Type             X           Y           Z
 ---------------------------------------------------------------------
      1          6           0        2.003739   -0.181163   -0.133391
      2          6           0        0.522514    0.577625    0.151487
      3          1           0        2.846434    0.507783   -0.748263
      4          1           0        1.835654   -0.826031   -0.887021
      5          1           0        2.727653   -0.738887    0.906424
      6          6           0       -0.619698   -0.413908    0.214789
      7          1           0        0.200725    0.988400   -0.580608
      8          1           0        0.304362    1.641828    1.255631
      9          6           0       -1.938949    0.054133   -0.230794
     10          1           0       -0.753991   -1.199942    1.279547
     11          1           0       -0.285262   -1.106383   -0.482980
     12          1           0       -2.201312    0.607370    0.518877
     13          1           0       -2.860952   -0.652329   -0.136014
     14          1           0       -1.618954    0.558062   -1.138136
 ---------------------------------------------------------------------

 SCF Done:  E(RB2PLYPD3) =  -157.881585874     A.U. after   11 cycles
 E2(B2PLYPD3) =    -0.2538770857D+00 E(B2PLYPD3) =    -0.15813546295946D+03

 The electronic state is 1-A.
 Alpha  occ. eigenvalues --  -10.65831 -10.64843 -10.62182 -10.59575  -0.93666
 Alpha  occ. eigenvalues --   -0.83046  -0.74260  -0.66728  -0.55015  -0.49645
 Alpha  occ. eigenvalues --   -0.47929  -0.46873  -0.40799  -0.40545  -0.39379
 Alpha  occ. eigenvalues --   -0.36683  -0.34270
 Alpha virt. eigenvalues --    0.04006   0.05203   0.06879   0.07930   0.09983
 Alpha virt. eigenvalues --    0.10247   0.12394   0.12737   0.14647   0.15035
 Alpha virt. eigenvalues --    0.15717   0.16073   0.17684   0.18931   0.20108

 Mulliken charges:
               1
     1  C   -0.174671
     2  C   -0.151751
     3  H    0.031336
     4  H    0.090020
     5  H    0.052265
     6  C   -0.022371
     7  H    0.156828
     8  H   -0.017371
     9  C   -0.154319
    10  H   -0.018724
    11  H    0.045993
    12  H    0.071056
    13  H    0.043494
    14  H    0.048215
 Sum of Mulliken charges =   0.00000

 Dipole moment (field-independent basis, Debye):
    X=             -0.2015    Y=             -0.3329    Z=             -0.8599  Tot=              0.9438
 Quadrupole moment (field-independent basis, Debye-Ang):
   XX=            -28.6943   YY=            -30.9912   ZZ=            -29.2554
   XY=             -0.6091   XZ=             -1.4417   YZ=             -0.3081

 Normal termination of Gaussian 09 at Wed Aug 26 15:22:37 2020.
