 Gaussian 09, Revision D.01,
 Gaussian 09:  ES64L-G09RevD.01 24-Apr-2013

 --------------------
 #p B2PLYPD3/Def2QZVP
 --------------------

 ----------
 butane_opt
 ----------
 Symbolic Z-matrix:
 Charge =  0 Multiplicity = 1

                         Standard orientation:
 ---------------------------------------------------------------------
 Center     Atomic      Atomic             Coordinates (Angstroms)
 Number     Number       Type             X           Y           Z
 ---------------------------------------------------------------------
      1          6           0       -1.927207    0.053881   -0.202612
      2          6           0       -0.627845   -0.501898    0.242707
      3          1           0       -2.852588   -0.765941   -0.059323
      4          1           0       -2.077024    0.685733   -1.217839
      5          1           0       -2.221399    0.680049    0.436305
      6          6           0        0.467146    0.633293    0.195881
      7          1           0       -0.477788   -1.028409   -0.576572
      8          1           0       -0.616010   -0.977424    1.041169
      9          6           0        2.058135   -0.182943   -0.182687
     10          1           0        0.688069    1.727488    1.313792
     11          1           0        0.237547    0.763689   -0.461583
     12          1           0        2.592640   -1.042003    1.067633
     13          1           0        2.841109    0.415061   -1.031528
     14          1           0        2.064070   -0.472238   -0.831790
 ---------------------------------------------------------------------

 SCF Done:  E(RB2PLYPD3) =  -157.353829090     A.U. after   12 cycles
 E2(B2PLYPD3) =    -0.2570035788D+00 E(B2PLYPD3) =    -0.15761083266876D+03

 The electronic state is 1-A.
 Alpha  occ. eigenvalues --  -10.63930 -10.63897 -10.61111 -10.59052  -0.95185
 Alpha  occ. eigenvalues --   -0.86210  -0.80062  -0.71715  -0.57316  -0.49337
 Alpha  occ. eigenvalues --   -0.46785  -0.45178  -0.42477  -0.39544  -0.38539
 Alpha  occ. eigenvalues --   -0.35128  -0.34021
 Alpha virt. eigenvalues --    0.02119   0.04123   0.05547   0.07349   0.08949
 Alpha virt. eigenvalues --    0.10647   0.11779   0.11860   0.13404   0.15286
 Alpha virt. eigenvalues --    0.15983   0.16848   0.17530   0.18388   0.20061

 Mulliken charges:
               1
     1  C   -0.166223
     2  C   -0.049700
     3  H    0.024514
     4  H    0.038096
     5  H    0.080087
     6  C   -0.647345
     7  H    0.081918
     8  H    0.067491
     9  C   -0.593989
    10  H    0.049130
    11  H    0.587723
    12  H    0.038166
    13  H    0.011374
    14  H    0.478759
 Sum of Mulliken charges =   0.00000

 Dipole moment (field-independent basis, Debye):
    X=             -0.9518    Y=             -0.3155    Z=             -0.4753  Tot=              1.1097
 Quadrupole moment (field-independent basis, Debye-Ang):
   XX=            -32.2051   YY=            -29.8140   ZZ=            -26.9532
   XY=             -0.9766   XZ=             -1.3503   YZ=             -0.3781

 Normal termination of Gaussian 09 at Wed Aug 26 20:28:17 2020.
