 Gaussian 09, Revision D.01,
 Gaussian 09:  ES64L-G09RevD.01 24-Apr-2013

 --------------------
 #p B2PLYPD3/Def2QZVP
 --------------------

 ----------
 butane_opt
 ----------
 Symbolic Z-matrix:
 Charge =  0 Multiplicity = 1

                         Standard orientation:
 ---------------------------------------------------------------------
 Center     Atomic      Atomic             Coordinates (Angstroms)
 Number     Number       Type             X           Y           Z
 ---------------------------------------------------------------------
      1          6           0       -1.930088   -0.126041    0.060090
      2          6           0       -0.549383    0.504519   -0.072517
      3          1           0       -2.696546    0.587634   -0.073056
      4          1           0       -2.063799   -0.696866    1.006190
      5          1           0       -1.960660   -0.682427   -0.732310
      6          6           0        0.547612   -0.474118    0.029022
      7          1           0       -0.442266    1.022300    0.599074
      8          1           0       -0.369102    1.330435   -1.184148
      9          6           0        1.946518    0.085613   -0.005636
     10          1           0        0.366883   -1.290307   -0.886298
     11          1           0        0.278559   -1.039775    0.922484
     12          1           0        1.774417    0.358318   -0.621876
     13          1           0        2.792751   -0.732168   -0.262725
     14          1           0        2.231805    1.203019    1.166916
 ---------------------------------------------------------------------

 SCF Done:  E(RB2PLYPD3) =  -157.670766389     A.U. after   11 cycles
 E2(B2PLYPD3) =    -0.2510964823D+00 E(B2PLYPD3) =    -0.15792186287137D+03

 The electronic state is 1-A.
 Alpha  occ. eigenvalues --  -10.62417 -10.61911 -10.60460 -10.58817  -0.95438
 Alpha  occ. eigenvalues --   -0.87829  -0.76283  -0.67814  -0.55245  -0.50325
 Alpha  occ. eigenvalues --   -0.49610  -0.46998  -0.43208  -0.41327  -0.40090
 Alpha  occ. eigenvalues --   -0.36582  -0.35079
 Alpha virt. eigenvalues --    0.02797   0.05652   0.06868   0.07385   0.10470
 Alpha virt. eigenvalues --    0.11123   0.12524   0.12964   0.14648   0.15437
 Alpha virt. eigenvalues --    0.15583   0.16396   0.18622   0.19533   0.20825

 Mulliken charges:
               1
     1  C   -0.133584
     2  C   -0.172837
     3  H    0.046890
     4  H    0.045226
     5  H    0.068219
     6  C    0.008741
     7  H    0.168370
     8  H   -0.025379
     9  C   -0.652342
    10  H   -0.001698
    11  H    0.036119
    12  H    0.526531
    13  H    0.082049
    14  H    0.003695
 Sum of Mulliken charges =   0.00000

 Dipole moment (field-independent basis, Debye):
    X=             -0.4720    Y=             -0.3651    Z=             -0.0539  Tot=              0.5992
 Quadrupole moment (field-independent basis, Debye-Ang):
   XX=            -29.9479   YY=            -29.6626   ZZ=            -28.4658
   XY=             -0.8341   XZ=             -1.1901   YZ=              0.6221

 Normal termination of Gaussian 09 at Wed Aug 26 23:49:36 2020.
