 Gaussian 09, Revision D.01,
 Gaussian 09:  ES64L-G09RevD.01 24-Apr-2013

 --------------------
 #p B2PLYPD3/Def2QZVP
 --------------------

 ----------
 butane_opt
 ----------
 Symbolic Z-matrix:
 Charge =  0 Multiplicity = 1

                         Standard orientation:
 ---------------------------------------------------------------------
 Center     Atomic      Atomic             Coordinates (Angstroms)
 Number     Number       Type             X           Y           Z
 ---------------------------------------------------------------------
      1          6           0       -1.949962    0.029662    0.114776
      2          6           0       -0.631772   -0.368951   -0.232426
      3          1           0       -2.781947   -0.821470    0.248968
      4          1           0       -2.302879    0.671799   -0.590358
      5          1           0       -2.058300    0.559025    1.344233
      6          6           0        0.527730    0.628995   -0.109948
      7          1           0       -0.723067   -0.936079   -1.292372
      8          1           0       -0.531293   -0.992162    0.449851
      9          6           0        2.079274   -0.248873    0.079660
     10          1           0        0.352570    0.862493    0.765409
     11          1           0        0.603560    1.459730   -0.915589
     12          1           0        1.695581   -0.926688    0.858235
     13          1           0        2.792865    0.351001    0.687104
     14          1           0        2.801291   -0.472645   -0.667856
 ---------------------------------------------------------------------

 SCF Done:  E(RB2PLYPD3) =  -157.965607111     A.U. after   11 cycles
 E2(B2PLYPD3) =    -0.2498748198D+00 E(B2PLYPD3) =    -0.15821548193133D+03

 The electronic state is 1-A.
 Alpha  occ. eigenvalues --  -10.62129 -10.61839 -10.61395 -10.59455  -0.93101
 Alpha  occ. eigenvalues --   -0.82248  -0.74373  -0.67245  -0.55789  -0.50265
 Alpha  occ. eigenvalues --   -0.49264  -0.45980  -0.44149  -0.39971  -0.39785
 Alpha  occ. eigenvalues --   -0.35534  -0.34973
 Alpha virt. eigenvalues --    0.05444   0.06536   0.07745   0.08714   0.10405
 Alpha virt. eigenvalues --    0.10987   0.12193   0.13237   0.14723   0.14976
 Alpha virt. eigenvalues --    0.15891   0.16830   0.17734   0.19147   0.21584

 Mulliken charges:
               1
     1  C   -0.138358
     2  C   -0.068794
     3  H    0.039901
     4  H    0.064472
     5  H   -0.008289
     6  C   -0.166440
     7  H    0.013157
     8  H    0.098730
     9  C   -0.158399
    10  H    0.137190
    11  H    0.043630
    12  H    0.048314
    13  H    0.024539
    14  H    0.070347
 Sum of Mulliken charges =   0.00000

 Dipole moment (field-independent basis, Debye):
    X=              0.0211    Y=             -0.0416    Z=              0.0534  Tot=              0.0710
 Quadrupole moment (field-independent basis, Debye-Ang):
   XX=            -28.7416   YY=            -30.0301   ZZ=            -28.3122
   XY=              0.9163   XZ=              0.0623   YZ=             -0.8627

 Normal termination of Gaussian 09 at Wed Aug 26 12:22:46 2020.
