 Gaussian 09, Revision D.01,
 Gaussian 09:  ES64L-G09RevD.01 24-Apr-2013

 --------------------
 #p B2PLYPD3/Def2QZVP
 --------------------

 ----------
 butane_opt
 ----------
 Symbolic Z-matrix:
 Charge =  0 Multiplicity = 1

                         Standard orientation:
 ---------------------------------------------------------------------
 Center     Atomic      Atomic             Coordinates (Angstroms)
 Number     Number       Type             X           Y           Z
 ---------------------------------------------------------------------
      1          6           0        2.007070    0.153351   -0.095283
      2          6           0        0.632237   -0.555548    0.162749
      3          1           0        2.931289   -0.770311   -0.555858
      4          1           0        2.582292    1.044871    0.893957
      5          1           0        1.911965    0.747289   -1.002215
      6          6           0       -0.630124    0.475231    0.007425
      7          1           0        0.332294   -1.389130    1.350852
      8          1           0        0.388259   -1.085082   -0.510546
      9          6           0       -1.992372   -0.096155   -0.109810
     10          1           0       -0.648104    0.950224   -0.691570
     11          1           0       -0.547621    1.524303    0.992456
     12          1           0       -1.996928   -0.790126   -1.088382
     13          1           0       -2.872267    0.592457    0.079900
     14          1           0       -2.182049   -0.685766    0.740927
 ---------------------------------------------------------------------

 SCF Done:  E(RB2PLYPD3) =  -157.816466521     A.U. after   11 cycles
 E2(B2PLYPD3) =    -0.2547216648D+00 E(B2PLYPD3) =    -0.15807118818594D+03

 The electronic state is 1-A.
 Alpha  occ. eigenvalues --  -10.67596 -10.64606 -10.61685 -10.61433  -0.92031
 Alpha  occ. eigenvalues --   -0.83742  -0.71839  -0.69117  -0.52595  -0.49592
 Alpha  occ. eigenvalues --   -0.47485  -0.45959  -0.41332  -0.40352  -0.37962
 Alpha  occ. eigenvalues --   -0.36299  -0.34348
 Alpha virt. eigenvalues --    0.03440   0.05134   0.07072   0.07093   0.08892
 Alpha virt. eigenvalues --    0.09942   0.11854   0.12631   0.13516   0.14854
 Alpha virt. eigenvalues --    0.15355   0.15720   0.18014   0.18828   0.19387

 Mulliken charges:
               1
     1  C   -0.180253
     2  C   -0.135193
     3  H    0.029369
     4  H    0.052896
     5  H    0.076767
     6  C   -0.178730
     7  H    0.008738
     8  H    0.168951
     9  C   -0.140903
    10  H    0.193555
    11  H   -0.031051
    12  H    0.031866
    13  H    0.055460
    14  H    0.048528
 Sum of Mulliken charges =   0.00000

 Dipole moment (field-independent basis, Debye):
    X=             -0.3668    Y=             -0.0667    Z=             -0.9196  Tot=              0.9923
 Quadrupole moment (field-independent basis, Debye-Ang):
   XX=            -30.2574   YY=            -30.2486   ZZ=            -29.2769
   XY=              0.4854   XZ=             -1.0160   YZ=              0.2284

 Normal termination of Gaussian 09 at Wed Aug 26 22:28:09 2020.
