 Gaussian 09, Revision D.01,
 Gaussian 09:  ES64L-G09RevD.01 24-Apr-2013

 --------------------
 #p B2PLYPD3/Def2QZVP
 --------------------

 ----------
 butane_opt
 ----------
 Symbolic Z-matrix:
 Charge =  0 Multiplicity = 1

                         Standard orientation:
 ---------------------------------------------------------------------
 Center     Atomic      Atomic             Coordinates (Angstroms)
 Number     Number       Type             X           Y           Z
 ---------------------------------------------------------------------
      1          6           0        1.890357   -0.139938   -0.124134
      2          6           0        0.614545    0.448650    0.178784
      3          1           0        2.879507    0.812529   -0.408493
      4          1           0        1.631950   -0.689958   -1.109055
      5          1           0        2.008800   -0.585409    0.655825
      6          6           0       -0.497136   -0.579307    0.247670
      7          1           0        0.502805    1.016500   -0.662133
      8          1           0        0.469720    1.175170    1.112850
      9          6           0       -1.984777    0.175006   -0.168496
     10          1           0       -0.604247   -1.138848    0.963173
     11          1           0       -0.442352   -1.117304   -0.469196
     12          1           0       -2.503555    0.799834    0.861076
     13          1           0       -2.562065   -0.445885   -0.802308
     14          1           0       -1.518496    0.746899   -0.944680
 ---------------------------------------------------------------------

 SCF Done:  E(RB2PLYPD3) =  -157.906056350     A.U. after   11 cycles
 E2(B2PLYPD3) =    -0.2499765485D+00 E(B2PLYPD3) =    -0.15815603289859D+03

 The electronic state is 1-A.
 Alpha  occ. eigenvalues --  -10.62232 -10.61076 -10.59894 -10.57413  -0.93936
 Alpha  occ. eigenvalues --   -0.84075  -0.73386  -0.68716  -0.57447  -0.51601
 Alpha  occ. eigenvalues --   -0.48359  -0.46331  -0.43130  -0.41590  -0.38706
 Alpha  occ. eigenvalues --   -0.36560  -0.34724
 Alpha virt. eigenvalues --    0.04851   0.06164   0.08067   0.08662   0.10465
 Alpha virt. eigenvalues --    0.11476   0.12027   0.12662   0.15088   0.15603
 Alpha virt. eigenvalues --    0.15910   0.16950   0.17832   0.19561   0.20998

 Mulliken charges:
               1
     1  C   -0.191936
     2  C   -0.039610
     3  H    0.010361
     4  H    0.059965
     5  H    0.105044
     6  C   -0.119464
     7  H    0.055494
     8  H    0.021703
     9  C   -0.197284
    10  H    0.048307
    11  H    0.082455
    12  H    0.053775
    13  H    0.053528
    14  H    0.057661
 Sum of Mulliken charges =   0.00000

 Dipole moment (field-independent basis, Debye):
    X=             -0.1181    Y=             -0.4372    Z=             -0.2076  Tot=              0.4982
 Quadrupole moment (field-independent basis, Debye-Ang):
   XX=            -32.0520   YY=            -29.3339   ZZ=            -27.2885
   XY=              0.7843   XZ=              0.1817   YZ=              0.1802

 Normal termination of Gaussian 09 at Wed Aug 26 14:16:04 2020.
