 Gaussian 09, Revision D.01,
 Gaussian 09:  ES64L-G09RevD.01 24-Apr-2013

 --------------------
 #p B2PLYPD3/Def2QZVP
 --------------------

 ----------
 butane_opt
 ----------
 Symbolic Z-matrix:
 Charge =  0 Multiplicity = 1

                         Standard orientation:
 ---------------------------------------------------------------------
 Center     Atomic      Atomic             Coordinates (Angstroms)
 Number     Number       Type             X           Y           Z
 ---------------------------------------------------------------------
      1          6           0        1.863731   -0.011285   -0.100881
      2          6           0        0.539132    0.437017    0.125070
      3          1           0        2.600584    0.689279   -0.570516
      4          1           0        1.710634   -0.636399   -1.065639
      5          1           0        2.212416   -0.857090    0.816147
      6          6           0       -0.507616   -0.590176    0.156880
      7          1           0        0.580027    0.860184   -0.583697
      8          1           0        0.450063    1.557268    1.276716
      9          6           0       -1.962562    0.123815   -0.107096
     10          1           0       -0.229147   -1.420040    0.973513
     11          1           0       -0.087985   -1.020051   -0.589637
     12          1           0       -2.318884    0.793820    0.795596
     13          1           0       -2.536482   -0.605434   -0.469400
     14          1           0       -1.977341    0.882237   -1.026930
 ---------------------------------------------------------------------

 SCF Done:  E(RB2PLYPD3) =  -157.854238313     A.U. after   11 cycles
 E2(B2PLYPD3) =    -0.2527499357D+00 E(B2PLYPD3) =    -0.15810698824860D+03

 The electronic state is 1-A.
 Alpha  occ. eigenvalues --  -10.63395 -10.62665 -10.61639 -10.61011  -0.96903
 Alpha  occ. eigenvalues --   -0.83880  -0.74583  -0.67826  -0.54548  -0.51558
 Alpha  occ. eigenvalues --   -0.49581  -0.45877  -0.43491  -0.40808  -0.39114
 Alpha  occ. eigenvalues --   -0.37842  -0.32029
 Alpha virt. eigenvalues --    0.04775   0.05582   0.06203   0.08045   0.11028
 Alpha virt. eigenvalues --    0.11483   0.11923   0.12376   0.14118   0.14878
 Alpha virt. eigenvalues --    0.15497   0.17459   0.18368   0.19254   0.19417

 Mulliken charges:
               1
     1  C   -0.153513
     2  C   -0.224666
     3  H    0.067524
     4  H    0.020522
     5  H    0.027154
     6  C   -0.093344
     7  H    0.267682
     8  H   -0.075887
     9  C   -0.148605
    10  H    0.044248
    11  H    0.099616
    12  H    0.074976
    13  H    0.072057
    14  H    0.022236
 Sum of Mulliken charges =   0.00000

 Dipole moment (field-independent basis, Debye):
    X=             -0.1070    Y=             -0.5407    Z=             -1.2954  Tot=              1.4078
 Quadrupole moment (field-independent basis, Debye-Ang):
   XX=            -29.5634   YY=            -30.1710   ZZ=            -29.2707
   XY=             -0.0432   XZ=             -0.9939   YZ=             -1.3094

 Normal termination of Gaussian 09 at Wed Aug 26 13:23:32 2020.
