 Gaussian 09, Revision D.01,
 Gaussian 09:  ES64L-G09RevD.01 24-Apr-2013

 --------------------
 #p B2PLYPD3/Def2QZVP
 --------------------

 ----------
 butane_opt
 ----------
 Symbolic Z-matrix:
 Charge =  0 Multiplicity = 1

                         Standard orientation:
 ---------------------------------------------------------------------
 Center     Atomic      Atomic             Coordinates (Angstroms)
 Number     Number       Type             X           Y           Z
 ---------------------------------------------------------------------
      1          6           0       -2.020582   -0.126159   -0.251813
      2          6           0       -0.633626    0.525117    0.282432
      3          1           0       -2.617315    0.303290   -0.915071
      4          1           0       -2.801021   -0.903747    0.745909
      5          1           0       -1.415854   -0.530279   -0.859499
      6          6           0        0.565018   -0.469070    0.108355
      7          1           0       -0.744127    1.449654    1.332303
      8          1           0       -0.345017    0.851817   -0.205396
      9          6           0        2.028052    0.103334   -0.154478
     10          1           0        0.434779   -0.758334   -0.424332
     11          1           0        0.745928   -1.388674    1.221218
     12          1           0        2.072409    0.912355   -1.082105
     13          1           0        2.901410   -0.721015   -0.196769
     14          1           0        2.135632    0.585601    0.476767
 ---------------------------------------------------------------------

 SCF Done:  E(RB2PLYPD3) =  -157.073620357     A.U. after   12 cycles
 E2(B2PLYPD3) =    -0.2529943719D+00 E(B2PLYPD3) =    -0.15732661472882D+03

 The electronic state is 1-A.
 Alpha  occ. eigenvalues --  -10.62229 -10.62173 -10.61894 -10.60570  -0.98331
 Alpha  occ. eigenvalues --   -0.86671  -0.78955  -0.76343  -0.53675  -0.51994
 Alpha  occ. eigenvalues --   -0.49593  -0.46462  -0.44608  -0.41457  -0.39632
 Alpha  occ. eigenvalues --   -0.35778  -0.34571
 Alpha virt. eigenvalues --    0.03922   0.05670   0.07008   0.07669   0.09801
 Alpha virt. eigenvalues --    0.11296   0.11804   0.13311   0.14207   0.14670
 Alpha virt. eigenvalues --    0.16700   0.16961   0.17172   0.18714   0.20319

 Mulliken charges:
               1
     1  C   -0.190226
     2  C   -0.720982
     3  H    0.069192
     4  H    0.039697
     5  H    0.093743
     6  C   -0.737916
     7  H    0.033042
     8  H    0.686401
     9  C   -0.336298
    10  H    0.698053
    11  H    0.003261
    12  H    0.019593
    13  H    0.069989
    14  H    0.272451
 Sum of Mulliken charges =   0.00000

 Dipole moment (field-independent basis, Debye):
    X=              0.3699    Y=              0.3532    Z=             -0.8523  Tot=              0.9940
 Quadrupole moment (field-independent basis, Debye-Ang):
   XX=            -28.4536   YY=            -29.8619   ZZ=            -28.4368
   XY=             -0.3261   XZ=              0.8404   YZ=             -0.2922

 Normal termination of Gaussian 09 at Wed Aug 26 20:21:02 2020.
