 Gaussian 09, Revision D.01,
 Gaussian 09:  ES64L-G09RevD.01 24-Apr-2013

 --------------------
 #p B2PLYPD3/Def2QZVP
 --------------------

 ----------
 butane_opt
 ----------
 Symbolic Z-matrix:
 Charge =  0 Multiplicity = 1

                         Standard orientation:
 ---------------------------------------------------------------------
 Center     Atomic      Atomic             Coordinates (Angstroms)
 Number     Number       Type             X           Y           Z
 ---------------------------------------------------------------------
      1          6           0       -1.937605    0.167854   -0.031104
      2          6           0       -0.452979   -0.607298   -0.047180
      3          1           0       -2.599497   -0.423185    0.669573
      4          1           0       -2.798848    1.071748   -0.988017
      5          1           0       -1.493695    0.424411    0.578628
      6          6           0        0.605954    0.455587    0.049050
      7          1           0       -0.578145   -1.183834   -0.701700
      8          1           0       -0.411453   -1.208502    0.801712
      9          6           0        1.839740   -0.111559   -0.064584
     10          1           0        0.467593    1.346904    1.084040
     11          1           0        0.397712    0.928347   -0.676188
     12          1           0        1.868962   -0.628594    0.772753
     13          1           0        2.940804    0.886087   -0.036919
     14          1           0        1.875907   -0.640891   -0.940971
 ---------------------------------------------------------------------

 SCF Done:  E(RB2PLYPD3) =  -157.669616428     A.U. after   11 cycles
 E2(B2PLYPD3) =    -0.2543560781D+00 E(B2PLYPD3) =    -0.15792397250614D+03

 The electronic state is 1-A.
 Alpha  occ. eigenvalues --  -10.61115 -10.60625 -10.60420 -10.60348  -0.97251
 Alpha  occ. eigenvalues --   -0.88104  -0.74858  -0.71095  -0.58717  -0.52599
 Alpha  occ. eigenvalues --   -0.49090  -0.47473  -0.43773  -0.39713  -0.37585
 Alpha  occ. eigenvalues --   -0.35888  -0.33649
 Alpha virt. eigenvalues --    0.02681   0.04360   0.07161   0.07411   0.10023
 Alpha virt. eigenvalues --    0.10279   0.11786   0.12814   0.14975   0.15518
 Alpha virt. eigenvalues --    0.15883   0.16674   0.18174   0.18895   0.20491

 Mulliken charges:
               1
     1  C   -0.469542
     2  C   -0.095318
     3  H    0.036879
     4  H    0.068113
     5  H    0.298467
     6  C   -0.101390
     7  H    0.092287
     8  H    0.035868
     9  C   -0.146726
    10  H    0.008217
    11  H    0.135204
    12  H    0.073647
    13  H   -0.013403
    14  H    0.077697
 Sum of Mulliken charges =   0.00000

 Dipole moment (field-independent basis, Debye):
    X=              0.0708    Y=             -0.5553    Z=              0.0212  Tot=              0.5602
 Quadrupole moment (field-independent basis, Debye-Ang):
   XX=            -32.5944   YY=            -29.0575   ZZ=            -27.9964
   XY=             -0.6041   XZ=             -0.1228   YZ=             -0.6720

 Normal termination of Gaussian 09 at Wed Aug 26 18:56:07 2020.
