 Gaussian 09, Revision D.01,
 Gaussian 09:  ES64L-G09RevD.01 24-Apr-2013

 --------------------
 #p B2PLYPD3/Def2QZVP
 --------------------

 ----------
 butane_opt
 ----------
 Symbolic Z-matrix:
 Charge =  0 Multiplicity = 1

                         Standard orientation:
 ---------------------------------------------------------------------
 Center     Atomic      Atomic             Coordinates (Angstroms)
 Number     Number       Type             X           Y           Z
 ---------------------------------------------------------------------
      1          6           0       -1.949469    0.108736    0.085065
      2          6           0       -0.605367   -0.464671   -0.058747
      3          1           0       -2.784363   -0.642706   -0.308101
      4          1           0       -1.868994    0.374454   -0.639280
      5          1           0       -2.228401    0.914749    1.096217
      6          6           0        0.515147    0.552355   -0.088905
      7          1           0       -0.616495   -1.277940   -1.104013
      8          1           0       -0.425784   -1.100050    0.765175
      9          6           0        2.021171   -0.182713    0.073981
     10          1           0        0.306268    1.163392    0.745523
     11          1           0        0.571490    1.312915   -0.948967
     12          1           0        2.119768   -1.048049    1.091618
     13          1           0        2.822541    0.675906   -0.176979
     14          1           0        2.215079   -0.454914   -0.589554
 ---------------------------------------------------------------------

 SCF Done:  E(RB2PLYPD3) =  -157.690977923     A.U. after   11 cycles
 E2(B2PLYPD3) =    -0.2515868748D+00 E(B2PLYPD3) =    -0.15794256479808D+03

 The electronic state is 1-A.
 Alpha  occ. eigenvalues --  -10.62490 -10.62303 -10.60844 -10.59041  -0.93728
 Alpha  occ. eigenvalues --   -0.86390  -0.77290  -0.66610  -0.53287  -0.49413
 Alpha  occ. eigenvalues --   -0.48596  -0.46236  -0.42485  -0.40904  -0.38216
 Alpha  occ. eigenvalues --   -0.36837  -0.35775
 Alpha virt. eigenvalues --    0.05087   0.06006   0.06819   0.07772   0.10380
 Alpha virt. eigenvalues --    0.11641   0.12308   0.12752   0.14178   0.15737
 Alpha virt. eigenvalues --    0.15831   0.16028   0.17998   0.19164   0.21298

 Mulliken charges:
               1
     1  C   -0.473624
     2  C   -0.012320
     3  H    0.045915
     4  H    0.341617
     5  H    0.059140
     6  C   -0.020075
     7  H   -0.014891
     8  H    0.048924
     9  C   -0.482488
    10  H    0.053346
    11  H    0.015434
    12  H    0.060113
    13  H    0.027372
    14  H    0.351538
 Sum of Mulliken charges =   0.00000

 Dipole moment (field-independent basis, Debye):
    X=              0.0474    Y=              0.1486    Z=             -0.3594  Tot=              0.3918
 Quadrupole moment (field-independent basis, Debye-Ang):
   XX=            -30.5056   YY=            -29.1617   ZZ=            -28.0141
   XY=             -0.3053   XZ=             -0.7684   YZ=             -0.1871

 Normal termination of Gaussian 09 at Wed Aug 26 22:55:14 2020.
