 Gaussian 09, Revision D.01,
 Gaussian 09:  ES64L-G09RevD.01 24-Apr-2013

 --------------------
 #p B2PLYPD3/Def2QZVP
 --------------------

 ----------
 butane_opt
 ----------
 Symbolic Z-matrix:
 Charge =  0 Multiplicity = 1

                         Standard orientation:
 ---------------------------------------------------------------------
 Center     Atomic      Atomic             Coordinates (Angstroms)
 Number     Number       Type             X           Y           Z
 ---------------------------------------------------------------------
      1          6           0       -2.003245   -0.146287   -0.137311
      2          6           0       -0.613586    0.597435    0.179172
      3          1           0       -2.686879    0.602579   -0.856687
      4          1           0       -2.727074   -1.001431    0.941881
      5          1           0       -1.703777   -0.625609   -0.869724
      6          6           0        0.618254   -0.518181    0.073130
      7          1           0       -0.539960    1.620981    1.223160
      8          1           0       -0.314790    0.702014   -0.239321
      9          6           0        1.916053    0.095566   -0.129982
     10          1           0        0.533889   -1.055281   -0.687873
     11          1           0        0.625837   -1.219565    1.031808
     12          1           0        2.099565    0.979349   -1.079366
     13          1           0        2.685331   -0.658015    0.064459
     14          1           0        2.523003    0.483784    0.561604
 ---------------------------------------------------------------------

 SCF Done:  E(RB2PLYPD3) =  -157.039558338     A.U. after   12 cycles
 E2(B2PLYPD3) =    -0.2567240741D+00 E(B2PLYPD3) =    -0.15729628241228D+03

 The electronic state is 1-A.
 Alpha  occ. eigenvalues --  -10.64783 -10.64265 -10.61733 -10.61085  -0.96542
 Alpha  occ. eigenvalues --   -0.86251  -0.77185  -0.71761  -0.53713  -0.49979
 Alpha  occ. eigenvalues --   -0.48751  -0.46522  -0.41976  -0.40043  -0.37960
 Alpha  occ. eigenvalues --   -0.36635  -0.32180
 Alpha virt. eigenvalues --    0.03058   0.05440   0.06941   0.07897   0.08836
 Alpha virt. eigenvalues --    0.10792   0.11864   0.12630   0.13512   0.14784
 Alpha virt. eigenvalues --    0.15736   0.16436   0.17897   0.18449   0.21265

 Mulliken charges:
               1
     1  C   -0.215785
     2  C   -0.916191
     3  H    0.038141
     4  H    0.051625
     5  H    0.136826
     6  C   -0.047406
     7  H    0.039492
     8  H    0.844175
     9  C   -0.169573
    10  H    0.103407
    11  H    0.019934
    12  H    0.026883
    13  H    0.041653
    14  H    0.046822
 Sum of Mulliken charges =   0.00000

 Dipole moment (field-independent basis, Debye):
    X=              0.7422    Y=             -0.4280    Z=             -0.3034  Tot=              0.9089
 Quadrupole moment (field-independent basis, Debye-Ang):
   XX=            -29.2333   YY=            -29.4419   ZZ=            -28.4385
   XY=              0.4722   XZ=              1.5868   YZ=             -0.6873

 Normal termination of Gaussian 09 at Wed Aug 26 22:16:06 2020.
