 Gaussian 09, Revision D.01,
 Gaussian 09:  ES64L-G09RevD.01 24-Apr-2013

 --------------------
 #p B2PLYPD3/Def2QZVP
 --------------------

 ----------
 butane_opt
 ----------
 Symbolic Z-matrix:
 Charge =  0 Multiplicity = 1

                         Standard orientation:
 ---------------------------------------------------------------------
 Center     Atomic      Atomic             Coordinates (Angstroms)
 Number     Number       Type             X           Y           Z
 ---------------------------------------------------------------------
      1          6           0       -2.061139   -0.162332   -0.121360
      2          6           0       -0.507363    0.582335    0.183780
      3          1           0       -2.737303    0.209990   -0.670323
      4          1           0       -2.726258   -0.668288    0.736676
      5          1           0       -1.802917   -0.762151   -0.800373
      6          6           0        0.639779   -0.403153    0.182024
      7          1           0       -0.686574    1.415500    1.110681
      8          1           0       -0.475656    0.969721   -0.626577
      9          6           0        1.975270    0.087608   -0.211148
     10          1           0        0.101539   -1.133878   -0.498513
     11          1           0        0.919622   -1.092828    1.122235
     12          1           0        1.958049    0.652908   -1.174117
     13          1           0        2.948306   -0.809729    0.055867
     14          1           0        2.221907    0.592011    0.544666
 ---------------------------------------------------------------------

 SCF Done:  E(RB2PLYPD3) =  -157.913972607     A.U. after   11 cycles
 E2(B2PLYPD3) =    -0.2505436304D+00 E(B2PLYPD3) =    -0.15816451623708D+03

 The electronic state is 1-A.
 Alpha  occ. eigenvalues --  -10.62526 -10.62323 -10.61315 -10.58633  -0.92213
 Alpha  occ. eigenvalues --   -0.84596  -0.76750  -0.66855  -0.54387  -0.49689
 Alpha  occ. eigenvalues --   -0.49523  -0.47140  -0.43506  -0.42482  -0.37827
 Alpha  occ. eigenvalues --   -0.36607  -0.34753
 Alpha virt. eigenvalues --    0.04731   0.06527   0.08218   0.08477   0.10531
 Alpha virt. eigenvalues --    0.11564   0.12484   0.13141   0.14427   0.15381
 Alpha virt. eigenvalues --    0.16395   0.16613   0.17492   0.19272   0.20247

 Mulliken charges:
               1
     1  C   -0.189115
     2  C   -0.162445
     3  H    0.052070
     4  H    0.034493
     5  H    0.063639
     6  C   -0.008708
     7  H    0.029825
     8  H    0.154702
     9  C   -0.184542
    10  H    0.023274
    11  H    0.015987
    12  H    0.050769
    13  H    0.018399
    14  H    0.101651
 Sum of Mulliken charges =   0.00000

 Dipole moment (field-independent basis, Debye):
    X=             -0.0031    Y=              0.2485    Z=             -0.3773  Tot=              0.4518
 Quadrupole moment (field-independent basis, Debye-Ang):
   XX=            -29.0514   YY=            -30.0072   ZZ=            -28.1599
   XY=              0.3458   XZ=              1.7889   YZ=             -0.4653

 Normal termination of Gaussian 09 at Wed Aug 26 15:47:02 2020.
