 Gaussian 09, Revision D.01,
 Gaussian 09:  ES64L-G09RevD.01 24-Apr-2013

 --------------------
 #p B2PLYPD3/Def2QZVP
 --------------------

 ----------
 butane_opt
 ----------
 Symbolic Z-matrix:
 Charge =  0 Multiplicity = 1

                         Standard orientation:
 ---------------------------------------------------------------------
 Center     Atomic      Atomic             Coordinates (Angstroms)
 Number     Number       Type             X           Y           Z
 ---------------------------------------------------------------------
      1          6           0       -1.991747    0.028233   -0.170871
      2          6           0       -0.602090   -0.425295    0.349682
      3          1           0       -2.715218   -0.858034   -0.835119
      4          1           0       -1.666066    0.472673   -1.254122
      5          1           0       -2.554595    1.117050    0.660046
      6          6           0        0.564706    0.579743    0.050855
      7          1           0       -0.351705   -0.900859   -0.220635
      8          1           0       -0.718662   -1.166768    1.655902
      9          6           0        1.965128   -0.181735   -0.110751
     10          1           0        0.667248    1.525362    0.784981
     11          1           0        0.641917    1.110234   -0.867279
     12          1           0        2.401103   -0.375416    0.631437
     13          1           0        2.613619    0.416667   -0.119131
     14          1           0        2.066372   -1.346591   -1.149573
 ---------------------------------------------------------------------

 SCF Done:  E(RB2PLYPD3) =  -157.636832677     A.U. after   11 cycles
 E2(B2PLYPD3) =    -0.2572115983D+00 E(B2PLYPD3) =    -0.15789404427514D+03

 The electronic state is 1-A.
 Alpha  occ. eigenvalues --  -10.67488 -10.63801 -10.62538 -10.60095  -0.93154
 Alpha  occ. eigenvalues --   -0.87216  -0.74383  -0.68142  -0.52923  -0.48893
 Alpha  occ. eigenvalues --   -0.46047  -0.45294  -0.41041  -0.38315  -0.37777
 Alpha  occ. eigenvalues --   -0.36503  -0.35001
 Alpha virt. eigenvalues --    0.03202   0.03945   0.05374   0.06972   0.09353
 Alpha virt. eigenvalues --    0.09716   0.10799   0.12811   0.13028   0.14359
 Alpha virt. eigenvalues --    0.15433   0.16712   0.18274   0.18480   0.19871

 Mulliken charges:
               1
     1  C   -0.162168
     2  C   -0.393412
     3  H    0.052893
     4  H    0.031742
     5  H    0.043260
     6  C   -0.019570
     7  H    0.404006
     8  H    0.017103
     9  C   -0.256096
    10  H    0.001778
    11  H    0.056942
    12  H    0.099265
    13  H    0.108041
    14  H    0.016215
 Sum of Mulliken charges =   0.00000

 Dipole moment (field-independent basis, Debye):
    X=              0.7299    Y=              0.3747    Z=             -0.3481  Tot=              0.8912
 Quadrupole moment (field-independent basis, Debye-Ang):
   XX=            -30.3254   YY=            -29.6005   ZZ=            -29.2873
   XY=              1.3367   XZ=              1.5782   YZ=              1.1865

 Normal termination of Gaussian 09 at Wed Aug 26 10:26:18 2020.
