 Gaussian 09, Revision D.01,
 Gaussian 09:  ES64L-G09RevD.01 24-Apr-2013

 --------------------
 #p B2PLYPD3/Def2QZVP
 --------------------

 ----------
 butane_opt
 ----------
 Symbolic Z-matrix:
 Charge =  0 Multiplicity = 1

                         Standard orientation:
 ---------------------------------------------------------------------
 Center     Atomic      Atomic             Coordinates (Angstroms)
 Number     Number       Type             X           Y           Z
 ---------------------------------------------------------------------
      1          6           0        2.062395    0.125764    0.149485
      2          6           0        0.508790   -0.541818   -0.116742
      3          1           0        2.779412   -0.665848   -0.063329
      4          1           0        2.253678    1.383798    1.150131
      5          1           0        2.141368    0.350505   -0.471188
      6          6           0       -0.608626    0.419771   -0.336620
      7          1           0        0.474560   -0.951527    0.764234
      8          1           0        0.613225   -1.168256   -0.771115
      9          6           0       -2.003507   -0.081483    0.176044
     10          1           0       -0.393590    1.147800   -1.369169
     11          1           0       -0.648502    1.059061    0.297601
     12          1           0       -2.517967   -0.709544   -0.687648
     13          1           0       -2.737071    0.797913    0.671806
     14          1           0       -1.719423   -0.777302    1.245675
 ---------------------------------------------------------------------

 SCF Done:  E(RB2PLYPD3) =  -157.560337626     A.U. after   11 cycles
 E2(B2PLYPD3) =    -0.2534410264D+00 E(B2PLYPD3) =    -0.15781377865267D+03

 The electronic state is 1-A.
 Alpha  occ. eigenvalues --  -10.65724 -10.60660 -10.60428 -10.58587  -0.92847
 Alpha  occ. eigenvalues --   -0.86468  -0.76668  -0.67752  -0.55552  -0.50082
 Alpha  occ. eigenvalues --   -0.47356  -0.46347  -0.42998  -0.38955  -0.38075
 Alpha  occ. eigenvalues --   -0.37402  -0.34397
 Alpha virt. eigenvalues --    0.02764   0.05194   0.07073   0.08014   0.10455
 Alpha virt. eigenvalues --    0.10520   0.11011   0.13287   0.13998   0.14359
 Alpha virt. eigenvalues --    0.16036   0.16172   0.18214   0.19351   0.21106

 Mulliken charges:
               1
     1  C   -0.706197
     2  C   -0.071408
     3  H    0.067692
     4  H    0.035077
     5  H    0.524901
     6  C   -0.104028
     7  H    0.078692
     8  H    0.070560
     9  C   -0.181934
    10  H    0.009744
    11  H    0.133203
    12  H    0.058825
    13  H    0.044398
    14  H    0.040476
 Sum of Mulliken charges =   0.00000

 Dipole moment (field-independent basis, Debye):
    X=             -0.0208    Y=             -0.0897    Z=             -0.3384  Tot=              0.3507
 Quadrupole moment (field-independent basis, Debye-Ang):
   XX=            -30.6854   YY=            -28.6040   ZZ=            -28.5879
   XY=             -1.1403   XZ=             -1.9504   YZ=              1.0905

 Normal termination of Gaussian 09 at Wed Aug 26 14:04:53 2020.
