 Gaussian 09, Revision D.01,
 Gaussian 09:  ES64L-G09RevD.01 24-Apr-2013

 --------------------
 #p B2PLYPD3/Def2QZVP
 --------------------

 ----------
 butane_opt
 ----------
 Symbolic Z-matrix:
 Charge =  0 Multiplicity = 1

                         Standard orientation:
 ---------------------------------------------------------------------
 Center     Atomic      Atomic             Coordinates (Angstroms)
 Number     Number       Type             X           Y           Z
 ---------------------------------------------------------------------
      1          6           0        1.956224    0.051394   -0.160133
      2          6           0        0.588281   -0.478694    0.120995
      3          1           0        2.776609   -0.698080   -0.045905
      4          1           0        2.279801    0.869034    0.760810
      5          1           0        1.980030    0.637962   -1.100676
      6          6           0       -0.574767    0.576781    0.101296
      7          1           0        0.579755   -1.181151    1.143095
      8          1           0        0.489028   -0.858970   -0.490364
      9          6           0       -1.940252   -0.183021   -0.086168
     10          1           0       -0.625161    1.068608   -0.526636
     11          1           0       -0.424906    1.363882    1.010391
     12          1           0       -1.911388   -0.783594   -0.889803
     13          1           0       -2.744059    0.384098   -0.459889
     14          1           0       -2.576629   -0.600551    0.743042
 ---------------------------------------------------------------------

 SCF Done:  E(RB2PLYPD3) =  -157.782895802     A.U. after   11 cycles
 E2(B2PLYPD3) =    -0.2472348028D+00 E(B2PLYPD3) =    -0.15803013060439D+03

 The electronic state is 1-A.
 Alpha  occ. eigenvalues --  -10.61923 -10.59477 -10.59038 -10.58315  -0.93739
 Alpha  occ. eigenvalues --   -0.85306  -0.74772  -0.71108  -0.55540  -0.50066
 Alpha  occ. eigenvalues --   -0.49340  -0.48231  -0.41248  -0.40584  -0.39302
 Alpha  occ. eigenvalues --   -0.38806  -0.36698
 Alpha virt. eigenvalues --    0.05366   0.06662   0.08606   0.09076   0.10880
 Alpha virt. eigenvalues --    0.11756   0.12767   0.13206   0.14712   0.15948
 Alpha virt. eigenvalues --    0.16099   0.16615   0.19188   0.19478   0.22294

 Mulliken charges:
               1
     1  C   -0.139242
     2  C   -0.483566
     3  H    0.056499
     4  H    0.009548
     5  H    0.052384
     6  C   -0.237117
     7  H    0.045830
     8  H    0.453880
     9  C   -0.122598
    10  H    0.244568
    11  H    0.027404
    12  H    0.045190
    13  H    0.006754
    14  H    0.040465
 Sum of Mulliken charges =   0.00000

 Dipole moment (field-independent basis, Debye):
    X=             -0.2198    Y=             -0.0919    Z=             -0.6640  Tot=              0.7055
 Quadrupole moment (field-independent basis, Debye-Ang):
   XX=            -28.7012   YY=            -29.0419   ZZ=            -27.9507
   XY=             -0.6858   XZ=              0.4195   YZ=             -0.2549

 Normal termination of Gaussian 09 at Wed Aug 26 22:06:08 2020.
