 Gaussian 09, Revision D.01,
 Gaussian 09:  ES64L-G09RevD.01 24-Apr-2013

 --------------------
 #p B2PLYPD3/Def2QZVP
 --------------------

 ----------
 butane_opt
 ----------
 Symbolic Z-matrix:
 Charge =  0 Multiplicity = 1

                         Standard orientation:
 ---------------------------------------------------------------------
 Center     Atomic      Atomic             Coordinates (Angstroms)
 Number     Number       Type             X           Y           Z
 ---------------------------------------------------------------------
      1          6           0       -1.835356   -0.115097   -0.170480
      2          6           0       -0.530594    0.506844    0.187597
      3          1           0       -2.607940    0.705694   -0.763196
      4          1           0       -2.697265   -0.867936    0.754314
      5          1           0       -1.758715   -0.688322   -0.940896
      6          6           0        0.511033   -0.503777    0.132281
      7          1           0       -0.499821    1.591889    1.382002
      8          1           0       -0.432520    0.951739   -0.518226
      9          6           0        1.924408    0.042216   -0.122882
     10          1           0        0.359346   -0.859072   -0.725494
     11          1           0        0.198168   -1.292209    1.145627
     12          1           0        2.324099    0.891892   -1.132641
     13          1           0        2.743848   -0.733851    0.007471
     14          1           0        1.953848    0.719067    0.631949
 ---------------------------------------------------------------------

 SCF Done:  E(RB2PLYPD3) =  -157.784565242     A.U. after   11 cycles
 E2(B2PLYPD3) =    -0.2552168052D+00 E(B2PLYPD3) =    -0.15803978204701D+03

 The electronic state is 1-A.
 Alpha  occ. eigenvalues --  -10.64398 -10.62819 -10.62559 -10.62071  -0.96439
 Alpha  occ. eigenvalues --   -0.84337  -0.73175  -0.68454  -0.56311  -0.51426
 Alpha  occ. eigenvalues --   -0.48058  -0.45193  -0.42103  -0.39760  -0.37175
 Alpha  occ. eigenvalues --   -0.36717  -0.34765
 Alpha virt. eigenvalues --    0.03074   0.04941   0.05773   0.07005   0.08867
 Alpha virt. eigenvalues --    0.10938   0.11521   0.13104   0.13466   0.14319
 Alpha virt. eigenvalues --    0.15453   0.16198   0.17890   0.18834   0.20598

 Mulliken charges:
               1
     1  C   -0.172169
     2  C   -0.221196
     3  H    0.019729
     4  H    0.016832
     5  H    0.092904
     6  C   -0.116359
     7  H   -0.020981
     8  H    0.258366
     9  C   -0.184366
    10  H    0.113643
    11  H    0.051466
    12  H    0.024994
    13  H    0.058591
    14  H    0.078546
 Sum of Mulliken charges =   0.00000

 Dipole moment (field-independent basis, Debye):
    X=              0.3720    Y=             -0.2935    Z=             -0.8988  Tot=              1.0161
 Quadrupole moment (field-independent basis, Debye-Ang):
   XX=            -30.9857   YY=            -30.3206   ZZ=            -29.2538
   XY=              0.4376   XZ=              0.9594   YZ=             -0.7306

 Normal termination of Gaussian 09 at Wed Aug 26 18:48:24 2020.
