 Gaussian 09, Revision D.01,
 Gaussian 09:  ES64L-G09RevD.01 24-Apr-2013

 --------------------
 #p B2PLYPD3/Def2QZVP
 --------------------

 ----------
 butane_opt
 ----------
 Symbolic Z-matrix:
 Charge =  0 Multiplicity = 1

                         Standard orientation:
 ---------------------------------------------------------------------
 Center     Atomic      Atomic             Coordinates (Angstroms)
 Number     Number       Type             X           Y           Z
 ---------------------------------------------------------------------
      1          6           0        2.092461   -0.196829   -0.104211
      2          6           0        0.546314    0.624320    0.025351
      3          1           0        2.802190    0.503929   -0.235513
      4          1           0        1.902075   -1.105894   -0.974336
      5          1           0        2.419917   -0.536194    0.717001
      6          6           0       -0.578434   -0.411002    0.406435
      7          1           0        0.175015    1.014507   -0.952471
      8          1           0        0.382775    1.563111    0.832998
      9          6           0       -1.947202    0.011058   -0.188973
     10          1           0       -0.795913   -0.909099    1.388663
     11          1           0       -0.393560   -1.229312   -0.394931
     12          1           0       -2.790512    1.034484    0.602985
     13          1           0       -2.759628   -1.061092   -0.652071
     14          1           0       -1.621197    0.560277   -1.163936
 ---------------------------------------------------------------------

 SCF Done:  E(RB2PLYPD3) =  -157.912135554     A.U. after   11 cycles
 E2(B2PLYPD3) =    -0.2561655691D+00 E(B2PLYPD3) =    -0.15816830112344D+03

 The electronic state is 1-A.
 Alpha  occ. eigenvalues --  -10.67783 -10.65348 -10.63194 -10.61900  -0.89244
 Alpha  occ. eigenvalues --   -0.82000  -0.71852  -0.64442  -0.52102  -0.48799
 Alpha  occ. eigenvalues --   -0.47157  -0.44184  -0.42741  -0.40087  -0.38542
 Alpha  occ. eigenvalues --   -0.36328  -0.33582
 Alpha virt. eigenvalues --    0.03399   0.05594   0.07446   0.08146   0.08593
 Alpha virt. eigenvalues --    0.09697   0.11516   0.13515   0.13988   0.14486
 Alpha virt. eigenvalues --    0.15213   0.15703   0.17903   0.18867   0.20138

 Mulliken charges:
               1
     1  C   -0.136426
     2  C   -0.105164
     3  H    0.056861
     4  H    0.044635
     5  H    0.069809
     6  C   -0.039666
     7  H    0.063278
     8  H    0.030710
     9  C   -0.180847
    10  H    0.064068
    11  H    0.041169
    12  H   -0.000968
    13  H    0.037001
    14  H    0.055540
 Sum of Mulliken charges =   0.00000

 Dipole moment (field-independent basis, Debye):
    X=              1.0117    Y=             -0.2995    Z=             -0.1174  Tot=              1.0616
 Quadrupole moment (field-independent basis, Debye-Ang):
   XX=            -31.7650   YY=            -29.9064   ZZ=            -29.1520
   XY=              0.6780   XZ=              0.7693   YZ=              0.2410

 Normal termination of Gaussian 09 at Wed Aug 26 11:14:48 2020.
