 Gaussian 09, Revision D.01,
 Gaussian 09:  ES64L-G09RevD.01 24-Apr-2013

 --------------------
 #p B2PLYPD3/Def2QZVP
 --------------------

 ----------
 butane_opt
 ----------
 Symbolic Z-matrix:
 Charge =  0 Multiplicity = 1

                         Standard orientation:
 ---------------------------------------------------------------------
 Center     Atomic      Atomic             Coordinates (Angstroms)
 Number     Number       Type             X           Y           Z
 ---------------------------------------------------------------------
      1          6           0        1.888405   -0.076186    0.080627
      2          6           0        0.614613    0.463403   -0.190582
      3          1           0        2.708159    0.664850   -0.104999
      4          1           0        2.027991   -0.610889   -0.527340
      5          1           0        1.967251   -0.754494    1.149462
      6          6           0       -0.525545   -0.519715   -0.001497
      7          1           0        0.487035    0.935205   -1.105307
      8          1           0        0.378936    1.078900    0.544690
      9          6           0       -1.981892    0.144074    0.066807
     10          1           0       -0.153081   -1.057836    0.973178
     11          1           0       -0.599964   -1.254355   -0.851468
     12          1           0       -2.192273    1.257058    1.127604
     13          1           0       -2.722021   -0.606549   -0.418669
     14          1           0       -1.875516    0.278658   -0.519281
 ---------------------------------------------------------------------

 SCF Done:  E(RB2PLYPD3) =  -157.446850615     A.U. after   12 cycles
 E2(B2PLYPD3) =    -0.2516434308D+00 E(B2PLYPD3) =    -0.15769849404549D+03

 The electronic state is 1-A.
 Alpha  occ. eigenvalues --  -10.62374 -10.61284 -10.58019 -10.57729  -0.95572
 Alpha  occ. eigenvalues --   -0.90438  -0.77044  -0.67363  -0.56235  -0.49936
 Alpha  occ. eigenvalues --   -0.49429  -0.46968  -0.42449  -0.40633  -0.39348
 Alpha  occ. eigenvalues --   -0.37728  -0.35397
 Alpha virt. eigenvalues --    0.03590   0.06017   0.06980   0.08263   0.10531
 Alpha virt. eigenvalues --    0.10954   0.12317   0.13194   0.14282   0.15368
 Alpha virt. eigenvalues --    0.16149   0.16476   0.18402   0.19667   0.21088

 Mulliken charges:
               1
     1  C   -0.282274
     2  C   -0.033813
     3  H    0.041506
     4  H    0.183466
     5  H    0.027713
     6  C   -0.000393
     7  H    0.024157
     8  H    0.060077
     9  C   -0.911757
    10  H    0.025486
    11  H    0.011483
    12  H    0.058248
    13  H    0.072428
    14  H    0.723671
 Sum of Mulliken charges =   0.00000

 Dipole moment (field-independent basis, Debye):
    X=              0.3362    Y=              0.1654    Z=             -0.8260  Tot=              0.9070
 Quadrupole moment (field-independent basis, Debye-Ang):
   XX=            -30.4507   YY=            -29.1058   ZZ=            -27.4743
   XY=             -0.1545   XZ=              0.6700   YZ=              0.9554

 Normal termination of Gaussian 09 at Wed Aug 26 23:48:05 2020.
