 Gaussian 09, Revision D.01,
 Gaussian 09:  ES64L-G09RevD.01 24-Apr-2013

 --------------------
 #p B2PLYPD3/Def2QZVP
 --------------------

 ----------
 butane_opt
 ----------
 Symbolic Z-matrix:
 Charge =  0 Multiplicity = 1

                         Standard orientation:
 ---------------------------------------------------------------------
 Center     Atomic      Atomic             Coordinates (Angstroms)
 Number     Number       Type             X           Y           Z
 ---------------------------------------------------------------------
      1          6           0        1.862332    0.028999   -0.227960
      2          6           0        0.585834   -0.388471    0.166628
      3          1           0        2.549326   -0.679894    0.220278
      4          1           0        2.098809    0.475185    0.445173
      5          1           0        1.993579    0.632943   -1.275835
      6          6           0       -0.476747    0.574075    0.177375
      7          1           0        0.721446   -1.210841    1.305848
      8          1           0        0.084365   -0.968323   -0.557561
      9          6           0       -1.921877   -0.164173   -0.127451
     10          1           0       -0.185797    0.832084   -0.458302
     11          1           0       -0.422540    1.697761    1.314353
     12          1           0       -1.724914   -0.804982   -0.948203
     13          1           0       -2.736566    0.590679   -0.764909
     14          1           0       -2.674961   -0.867191    0.787609
 ---------------------------------------------------------------------

 SCF Done:  E(RB2PLYPD3) =  -157.644572585     A.U. after   12 cycles
 E2(B2PLYPD3) =    -0.2556950905D+00 E(B2PLYPD3) =    -0.15790026767555D+03

 The electronic state is 1-A.
 Alpha  occ. eigenvalues --  -10.65942 -10.62741 -10.62664 -10.58274  -0.99014
 Alpha  occ. eigenvalues --   -0.87347  -0.75110  -0.67716  -0.55096  -0.51003
 Alpha  occ. eigenvalues --   -0.49372  -0.47644  -0.41264  -0.39956  -0.39457
 Alpha  occ. eigenvalues --   -0.35494  -0.33857
 Alpha virt. eigenvalues --    0.03595   0.05141   0.06342   0.06786   0.10055
 Alpha virt. eigenvalues --    0.10333   0.11988   0.13782   0.14278   0.14613
 Alpha virt. eigenvalues --    0.15342   0.15794   0.17676   0.19167   0.20125

 Mulliken charges:
               1
     1  C   -0.278449
     2  C    0.003185
     3  H    0.051158
     4  H    0.185097
     5  H    0.052734
     6  C   -0.475574
     7  H   -0.028984
     8  H    0.047780
     9  C   -0.154727
    10  H    0.470459
    11  H   -0.021430
    12  H    0.067881
    13  H    0.027338
    14  H    0.053531
 Sum of Mulliken charges =   0.00000

 Dipole moment (field-independent basis, Debye):
    X=              0.4971    Y=             -0.2278    Z=             -0.7879  Tot=              0.9590
 Quadrupole moment (field-independent basis, Debye-Ang):
   XX=            -29.0631   YY=            -31.1455   ZZ=            -28.8406
   XY=              1.4417   XZ=              1.3878   YZ=             -0.8782

 Normal termination of Gaussian 09 at Wed Aug 26 14:26:06 2020.
