 Gaussian 09, Revision D.01,
 Gaussian 09:  ES64L-G09RevD.01 24-Apr-2013

 --------------------
 #p B2PLYPD3/Def2QZVP
 --------------------

 ----------
 butane_opt
 ----------
 Symbolic Z-matrix:
 Charge =  0 Multiplicity = 1

                         Standard orientation:
 ---------------------------------------------------------------------
 Center     Atomic      Atomic             Coordinates (Angstroms)
 Number     Number       Type             X           Y           Z
 ---------------------------------------------------------------------
      1          6           0       -1.937786    0.171001   -0.103321
      2          6           0       -0.550467   -0.559052    0.179596
      3          1           0       -2.740411   -0.594633   -0.353327
      4          1           0       -2.015078    1.242266   -1.097450
      5          1           0       -2.148782    0.514840    0.667667
      6          6           0        0.568949    0.361636    0.209389
      7          1           0        0.005827   -1.041912   -0.705355
      8          1           0       -0.605047   -1.091878    0.790966
      9          6           0        1.831680   -0.081254   -0.177017
     10          1           0        0.811440    1.151207    1.366999
     11          1           0        0.360139    0.873115   -0.460231
     12          1           0        2.208478   -0.781322    0.579887
     13          1           0        2.845007    0.890867   -0.253754
     14          1           0        1.804168   -0.516534   -1.187283
 ---------------------------------------------------------------------

 SCF Done:  E(RB2PLYPD3) =  -157.777755569     A.U. after   11 cycles
 E2(B2PLYPD3) =    -0.2511551696D+00 E(B2PLYPD3) =    -0.15802891073874D+03

 The electronic state is 1-A.
 Alpha  occ. eigenvalues --  -10.62457 -10.62445 -10.59674 -10.59409  -0.96855
 Alpha  occ. eigenvalues --   -0.85599  -0.75633  -0.69704  -0.56611  -0.52032
 Alpha  occ. eigenvalues --   -0.50431  -0.48844  -0.41868  -0.39726  -0.39153
 Alpha  occ. eigenvalues --   -0.37957  -0.33471
 Alpha virt. eigenvalues --    0.04589   0.05465   0.06790   0.08481   0.10225
 Alpha virt. eigenvalues --    0.11449   0.11680   0.13152   0.13586   0.14836
 Alpha virt. eigenvalues --    0.15822   0.16215   0.19276   0.19392   0.21276

 Mulliken charges:
               1
     1  C   -0.230129
     2  C   -0.187894
     3  H    0.049292
     4  H    0.012798
     5  H    0.158496
     6  C   -0.121522
     7  H    0.019367
     8  H    0.190314
     9  C   -0.148860
    10  H   -0.033176
    11  H    0.177581
    12  H    0.048539
    13  H    0.015924
    14  H    0.049270
 Sum of Mulliken charges =   0.00000

 Dipole moment (field-independent basis, Debye):
    X=             -0.4168    Y=             -0.6234    Z=             -0.0177  Tot=              0.7501
 Quadrupole moment (field-independent basis, Debye-Ang):
   XX=            -29.9727   YY=            -29.8521   ZZ=            -28.9079
   XY=              0.0463   XZ=             -1.0231   YZ=             -1.0244

 Normal termination of Gaussian 09 at Wed Aug 26 14:48:03 2020.
