 Gaussian 09, Revision D.01,
 Gaussian 09:  ES64L-G09RevD.01 24-Apr-2013

 --------------------
 #p B2PLYPD3/Def2QZVP
 --------------------

 ----------
 butane_opt
 ----------
 Symbolic Z-matrix:
 Charge =  0 Multiplicity = 1

                         Standard orientation:
 ---------------------------------------------------------------------
 Center     Atomic      Atomic             Coordinates (Angstroms)
 Number     Number       Type             X           Y           Z
 ---------------------------------------------------------------------
      1          6           0        1.880144    0.066245   -0.171754
      2          6           0        0.571620   -0.469103    0.076125
      3          1           0        2.710259   -0.743267    0.288478
      4          1           0        1.768257    0.543201    0.596520
      5          1           0        2.153400    0.962354   -1.236471
      6          6           0       -0.453129    0.579727    0.253041
      7          1           0        0.491983   -1.316332    1.029312
      8          1           0        0.442010   -0.929251   -0.827650
      9          6           0       -1.947274   -0.172740   -0.157140
     10          1           0       -0.226246    0.775296   -0.242409
     11          1           0       -0.451922    1.416752    1.212108
     12          1           0       -1.942025   -0.598485   -0.978873
     13          1           0       -2.775629    0.745936   -0.658243
     14          1           0       -2.478251   -0.880980    0.815598
 ---------------------------------------------------------------------

 SCF Done:  E(RB2PLYPD3) =  -157.300572135     A.U. after   12 cycles
 E2(B2PLYPD3) =    -0.2549841513D+00 E(B2PLYPD3) =    -0.15755555628584D+03

 The electronic state is 1-A.
 Alpha  occ. eigenvalues --  -10.64054 -10.61782 -10.61656 -10.60869  -0.99183
 Alpha  occ. eigenvalues --   -0.85241  -0.76334  -0.67521  -0.56362  -0.50297
 Alpha  occ. eigenvalues --   -0.46345  -0.45845  -0.43472  -0.40090  -0.38524
 Alpha  occ. eigenvalues --   -0.36130  -0.34189
 Alpha virt. eigenvalues --    0.04561   0.05101   0.06582   0.07754   0.10167
 Alpha virt. eigenvalues --    0.10658   0.12241   0.13339   0.13632   0.14547
 Alpha virt. eigenvalues --    0.15489   0.16033   0.18056   0.19503   0.20494

 Mulliken charges:
               1
     1  C   -0.272896
     2  C    0.014128
     3  H    0.053237
     4  H    0.140086
     5  H    0.044304
     6  C   -0.919594
     7  H    0.013916
     8  H    0.059280
     9  C   -0.195471
    10  H    0.812678
    11  H    0.072854
    12  H    0.117634
    13  H    0.004815
    14  H    0.055029
 Sum of Mulliken charges =   0.00000

 Dipole moment (field-independent basis, Debye):
    X=              0.2906    Y=              0.0173    Z=             -0.1184  Tot=              0.3142
 Quadrupole moment (field-independent basis, Debye-Ang):
   XX=            -32.0205   YY=            -29.3171   ZZ=            -27.5535
   XY=              0.6555   XZ=              0.6739   YZ=             -0.4454

 Normal termination of Gaussian 09 at Wed Aug 26 15:35:33 2020.
