 Gaussian 09, Revision D.01,
 Gaussian 09:  ES64L-G09RevD.01 24-Apr-2013

 --------------------
 #p B2PLYPD3/Def2QZVP
 --------------------

 ----------
 butane_opt
 ----------
 Symbolic Z-matrix:
 Charge =  0 Multiplicity = 1

                         Standard orientation:
 ---------------------------------------------------------------------
 Center     Atomic      Atomic             Coordinates (Angstroms)
 Number     Number       Type             X           Y           Z
 ---------------------------------------------------------------------
      1          6           0        1.996786   -0.180180   -0.209425
      2          6           0        0.552861    0.595034    0.153151
      3          1           0        2.642765    0.361936   -0.521751
      4          1           0        1.788316   -0.641444   -0.970723
      5          1           0        2.726591   -0.829543    0.892937
      6          6           0       -0.552102   -0.445165    0.237616
      7          1           0        0.417070    0.911432   -0.412984
      8          1           0        0.418872    1.625923    1.108412
      9          6           0       -2.011096    0.033214   -0.207574
     10          1           0       -0.842190   -1.198455    1.327889
     11          1           0       -0.401482   -0.844944   -0.451703
     12          1           0       -2.109335    0.704174    0.511839
     13          1           0       -2.669687   -0.561185   -0.232761
     14          1           0       -1.889618    0.454691   -1.093764
 ---------------------------------------------------------------------

 SCF Done:  E(RB2PLYPD3) =  -157.473555906     A.U. after   11 cycles
 E2(B2PLYPD3) =    -0.2493747228D+00 E(B2PLYPD3) =    -0.15772293062837D+03

 The electronic state is 1-A.
 Alpha  occ. eigenvalues --  -10.61609 -10.60969 -10.60058 -10.55392  -0.95382
 Alpha  occ. eigenvalues --   -0.86381  -0.79503  -0.72582  -0.55383  -0.52522
 Alpha  occ. eigenvalues --   -0.51522  -0.49658  -0.43257  -0.40906  -0.38784
 Alpha  occ. eigenvalues --   -0.37723  -0.34479
 Alpha virt. eigenvalues --    0.04478   0.05944   0.07805   0.08483   0.10231
 Alpha virt. eigenvalues --    0.11656   0.12426   0.13374   0.14659   0.15812
 Alpha virt. eigenvalues --    0.16328   0.17113   0.18611   0.19283   0.20008

 Mulliken charges:
               1
     1  C   -0.184071
     2  C   -0.685630
     3  H    0.091757
     4  H    0.091260
     5  H    0.028198
     6  C   -0.268590
     7  H    0.597569
     8  H    0.022524
     9  C   -0.158953
    10  H    0.022344
    11  H    0.281937
    12  H    0.065691
    13  H    0.072355
    14  H    0.023608
 Sum of Mulliken charges =   0.00000

 Dipole moment (field-independent basis, Debye):
    X=             -0.1050    Y=              0.0928    Z=             -1.1289  Tot=              1.1376
 Quadrupole moment (field-independent basis, Debye-Ang):
   XX=            -28.2994   YY=            -29.6218   ZZ=            -27.4988
   XY=              0.9872   XZ=             -1.0962   YZ=             -0.0076

 Normal termination of Gaussian 09 at Wed Aug 26 20:29:07 2020.
