 Gaussian 09, Revision D.01,
 Gaussian 09:  ES64L-G09RevD.01 24-Apr-2013

 --------------------
 #p B2PLYPD3/Def2QZVP
 --------------------

 ----------
 butane_opt
 ----------
 Symbolic Z-matrix:
 Charge =  0 Multiplicity = 1

                         Standard orientation:
 ---------------------------------------------------------------------
 Center     Atomic      Atomic             Coordinates (Angstroms)
 Number     Number       Type             X           Y           Z
 ---------------------------------------------------------------------
      1          6           0       -1.913119    0.008458    0.160310
      2          6           0       -0.657321   -0.453085   -0.362357
      3          1           0       -2.713160   -0.667167    0.840990
      4          1           0       -2.580778    0.921289   -0.593143
      5          1           0       -1.310777    0.389122    1.162044
      6          6           0        0.502827    0.644468   -0.039720
      7          1           0       -0.717115   -1.097549   -1.343625
      8          1           0       -0.405821   -0.960762    0.228107
      9          6           0        2.020739   -0.171281    0.133221
     10          1           0        0.147364    1.099906    0.780511
     11          1           0        0.492664    1.386326   -0.856057
     12          1           0        2.093381   -1.251430    1.065750
     13          1           0        2.729764    0.516567    0.036723
     14          1           0        2.545728   -0.507658   -0.670025
 ---------------------------------------------------------------------

 SCF Done:  E(RB2PLYPD3) =  -157.817448717     A.U. after   11 cycles
 E2(B2PLYPD3) =    -0.2545915614D+00 E(B2PLYPD3) =    -0.15807204027882D+03

 The electronic state is 1-A.
 Alpha  occ. eigenvalues --  -10.64738 -10.63093 -10.62875 -10.58587  -0.93376
 Alpha  occ. eigenvalues --   -0.83192  -0.74279  -0.68006  -0.54851  -0.49358
 Alpha  occ. eigenvalues --   -0.46676  -0.45725  -0.42236  -0.41120  -0.37777
 Alpha  occ. eigenvalues --   -0.36628  -0.33238
 Alpha virt. eigenvalues --    0.04665   0.05364   0.08141   0.08252   0.09929
 Alpha virt. eigenvalues --    0.10354   0.10910   0.13285   0.14170   0.14552
 Alpha virt. eigenvalues --    0.16114   0.16598   0.18803   0.18924   0.20165

 Mulliken charges:
               1
     1  C   -0.171485
     2  C   -0.287363
     3  H    0.053644
     4  H    0.034762
     5  H    0.013999
     6  C   -0.046194
     7  H    0.037294
     8  H    0.282315
     9  C   -0.181725
    10  H    0.085853
    11  H    0.034716
    12  H    0.034284
    13  H    0.059201
    14  H    0.050700
 Sum of Mulliken charges =   0.00000

 Dipole moment (field-independent basis, Debye):
    X=              0.5947    Y=             -0.0359    Z=             -0.0929  Tot=              0.6030
 Quadrupole moment (field-independent basis, Debye-Ang):
   XX=            -29.6260   YY=            -29.3169   ZZ=            -29.2249
   XY=              0.4624   XZ=             -1.3801   YZ=             -1.2122

 Normal termination of Gaussian 09 at Wed Aug 26 11:31:33 2020.
