 Gaussian 09, Revision D.01,
 Gaussian 09:  ES64L-G09RevD.01 24-Apr-2013

 --------------------
 #p B2PLYPD3/Def2QZVP
 --------------------

 ----------
 butane_opt
 ----------
 Symbolic Z-matrix:
 Charge =  0 Multiplicity = 1

                         Standard orientation:
 ---------------------------------------------------------------------
 Center     Atomic      Atomic             Coordinates (Angstroms)
 Number     Number       Type             X           Y           Z
 ---------------------------------------------------------------------
      1          6           0       -1.928132   -0.151260   -0.039283
      2          6           0       -0.537552    0.540059    0.050632
      3          1           0       -2.753105    0.589720   -0.153899
      4          1           0       -2.215181   -0.709834    0.848077
      5          1           0       -1.620780   -0.900899   -0.860883
      6          6           0        0.522796   -0.517423    0.124388
      7          1           0       -0.336771    1.203436    0.888774
      8          1           0       -0.393782    1.492463   -1.011287
      9          6           0        1.872388    0.088161   -0.066256
     10          1           0        0.430046   -0.964360   -0.653111
     11          1           0        0.779785   -1.309846    1.023057
     12          1           0        1.412139    0.369718   -0.777676
     13          1           0        2.617084   -0.529015   -0.846632
     14          1           0        2.503561    1.001393    1.126690
 ---------------------------------------------------------------------

 SCF Done:  E(RB2PLYPD3) =  -157.813346473     A.U. after   11 cycles
 E2(B2PLYPD3) =    -0.2564587627D+00 E(B2PLYPD3) =    -0.15806980523599D+03

 The electronic state is 1-A.
 Alpha  occ. eigenvalues --  -10.64534 -10.62458 -10.62025 -10.61024  -0.96348
 Alpha  occ. eigenvalues --   -0.84807  -0.71834  -0.66970  -0.55804  -0.49972
 Alpha  occ. eigenvalues --   -0.49434  -0.46642  -0.41412  -0.39671  -0.37723
 Alpha  occ. eigenvalues --   -0.35644  -0.33435
 Alpha virt. eigenvalues --    0.02645   0.04689   0.06364   0.07589   0.09872
 Alpha virt. eigenvalues --    0.10510   0.11603   0.12728   0.14055   0.14736
 Alpha virt. eigenvalues --    0.15785   0.16888   0.18140   0.19310   0.20729

 Mulliken charges:
               1
     1  C   -0.152374
     2  C   -0.036057
     3  H    0.052758
     4  H    0.058908
     5  H    0.050061
     6  C   -0.149870
     7  H    0.051491
     8  H   -0.004743
     9  C   -0.281149
    10  H    0.147495
    11  H    0.038504
    12  H    0.156997
    13  H    0.035448
    14  H    0.032530
 Sum of Mulliken charges =   0.00000

 Dipole moment (field-independent basis, Debye):
    X=             -0.6690    Y=             -0.2765    Z=             -0.1798  Tot=              0.7459
 Quadrupole moment (field-independent basis, Debye-Ang):
   XX=            -31.6111   YY=            -30.0960   ZZ=            -28.5795
   XY=             -1.0424   XZ=             -0.8409   YZ=              0.9277

 Normal termination of Gaussian 09 at Wed Aug 26 20:55:36 2020.
