 Gaussian 09, Revision D.01,
 Gaussian 09:  ES64L-G09RevD.01 24-Apr-2013

 --------------------
 #p B2PLYPD3/Def2QZVP
 --------------------

 ----------
 butane_opt
 ----------
 Symbolic Z-matrix:
 Charge =  0 Multiplicity = 1

                         Standard orientation:
 ---------------------------------------------------------------------
 Center     Atomic      Atomic             Coordinates (Angstroms)
 Number     Number       Type             X           Y           Z
 ---------------------------------------------------------------------
      1          6           0        1.961496    0.145784    0.013155
      2          6           0        0.552404   -0.567050   -0.052741
      3          1           0        2.621105   -0.358529   -0.301733
      4          1           0        2.172447    1.084448    1.016663
      5          1           0        2.124593    0.400513   -0.523939
      6          6           0       -0.636230    0.404562   -0.029430
      7          1           0        0.579824   -1.226421    0.870565
      8          1           0        0.333003   -0.825829   -0.832880
      9          6           0       -1.896972   -0.118207   -0.001617
     10          1           0       -0.516295    1.119383   -1.003658
     11          1           0       -0.359983    1.011193    0.765467
     12          1           0       -2.060897   -0.451177   -0.692238
     13          1           0       -2.833788    0.896526    0.139112
     14          1           0       -1.944197   -0.840640    0.986444
 ---------------------------------------------------------------------

 SCF Done:  E(RB2PLYPD3) =  -157.342522353     A.U. after   12 cycles
 E2(B2PLYPD3) =    -0.2495855320D+00 E(B2PLYPD3) =    -0.15759210788517D+03

 The electronic state is 1-A.
 Alpha  occ. eigenvalues --  -10.59919 -10.59625 -10.58936 -10.57225  -0.96962
 Alpha  occ. eigenvalues --   -0.92763  -0.80980  -0.68548  -0.57886  -0.53774
 Alpha  occ. eigenvalues --   -0.48640  -0.47046  -0.44447  -0.41245  -0.39361
 Alpha  occ. eigenvalues --   -0.37125  -0.33718
 Alpha virt. eigenvalues --    0.04920   0.06118   0.07701   0.08450   0.10153
 Alpha virt. eigenvalues --    0.11203   0.11749   0.13428   0.14549   0.15851
 Alpha virt. eigenvalues --    0.16108   0.16540   0.18965   0.19908   0.22706

 Mulliken charges:
               1
     1  C   -0.667845
     2  C   -0.164615
     3  H    0.021192
     4  H    0.053030
     5  H    0.539034
     6  C    0.001288
     7  H    0.045584
     8  H    0.177862
     9  C   -0.360882
    10  H   -0.002667
    11  H    0.047983
    12  H    0.240729
    13  H    0.018937
    14  H    0.050369
 Sum of Mulliken charges =   0.00000

 Dipole moment (field-independent basis, Debye):
    X=              0.4035    Y=             -0.1608    Z=             -0.6635  Tot=              0.7930
 Quadrupole moment (field-independent basis, Debye-Ang):
   XX=            -29.6588   YY=            -29.3886   ZZ=            -27.1763
   XY=              0.4474   XZ=             -0.8481   YZ=              0.4439

 Normal termination of Gaussian 09 at Wed Aug 26 23:32:58 2020.
