 Gaussian 09, Revision D.01,
 Gaussian 09:  ES64L-G09RevD.01 24-Apr-2013

 --------------------
 #p B2PLYPD3/Def2QZVP
 --------------------

 ----------
 butane_opt
 ----------
 Symbolic Z-matrix:
 Charge =  0 Multiplicity = 1

                         Standard orientation:
 ---------------------------------------------------------------------
 Center     Atomic      Atomic             Coordinates (Angstroms)
 Number     Number       Type             X           Y           Z
 ---------------------------------------------------------------------
      1          6           0       -1.917087   -0.158339   -0.054075
      2          6           0       -0.558850    0.572469    0.065289
      3          1           0       -2.644997    0.538041   -0.376471
      4          1           0       -2.288989   -0.861288    0.845102
      5          1           0       -1.830836   -0.634730   -0.850237
      6          6           0        0.580416   -0.487056    0.105801
      7          1           0       -0.364291    1.354080    1.002493
      8          1           0       -0.523817    1.025940   -0.646938
      9          6           0        1.895668    0.116524   -0.092398
     10          1           0        0.370967   -1.154755   -0.759716
     11          1           0        0.412424   -1.125441    1.002431
     12          1           0        1.798216    0.607266   -0.969259
     13          1           0        2.800523   -0.727228   -0.139397
     14          1           0        2.269918    0.716527    0.744287
 ---------------------------------------------------------------------

 SCF Done:  E(RB2PLYPD3) =  -158.000311070     A.U. after   11 cycles
 E2(B2PLYPD3) =    -0.2467140427D+00 E(B2PLYPD3) =    -0.15824702511300D+03

 The electronic state is 1-A.
 Alpha  occ. eigenvalues --  -10.60386 -10.60087 -10.59326 -10.58894  -0.92691
 Alpha  occ. eigenvalues --   -0.84897  -0.73636  -0.68090  -0.54981  -0.50483
 Alpha  occ. eigenvalues --   -0.49029  -0.47516  -0.43069  -0.41160  -0.40282
 Alpha  occ. eigenvalues --   -0.38590  -0.35341
 Alpha virt. eigenvalues --    0.05665   0.06859   0.08222   0.08812   0.10846
 Alpha virt. eigenvalues --    0.11840   0.12964   0.13337   0.15312   0.15594
 Alpha virt. eigenvalues --    0.16154   0.16653   0.19125   0.19419   0.21907

 Mulliken charges:
               1
     1  C   -0.166155
     2  C   -0.183097
     3  H    0.033339
     4  H    0.041952
     5  H    0.080019
     6  C   -0.031535
     7  H    0.014167
     8  H    0.161609
     9  C   -0.146534
    10  H    0.028554
    11  H    0.038650
    12  H    0.068004
    13  H    0.016816
    14  H    0.044209
 Sum of Mulliken charges =   0.00000

 Dipole moment (field-independent basis, Debye):
    X=             -0.1216    Y=              0.0682    Z=             -0.4484  Tot=              0.4696
 Quadrupole moment (field-independent basis, Debye-Ang):
   XX=            -30.0139   YY=            -29.0959   ZZ=            -27.7865
   XY=              0.2143   XZ=              1.0175   YZ=             -0.5714

 Normal termination of Gaussian 09 at Wed Aug 26 15:41:24 2020.
