 Gaussian 09, Revision D.01,
 Gaussian 09:  ES64L-G09RevD.01 24-Apr-2013

 --------------------
 #p B2PLYPD3/Def2QZVP
 --------------------

 ----------
 butane_opt
 ----------
 Symbolic Z-matrix:
 Charge =  0 Multiplicity = 1

                         Standard orientation:
 ---------------------------------------------------------------------
 Center     Atomic      Atomic             Coordinates (Angstroms)
 Number     Number       Type             X           Y           Z
 ---------------------------------------------------------------------
      1          6           0        1.952421    0.056199    0.141841
      2          6           0        0.626335   -0.484963   -0.282335
      3          1           0        2.790035   -0.841795    0.841702
      4          1           0        1.540872    0.577344    1.112530
      5          1           0        2.740342    0.999931   -0.752942
      6          6           0       -0.595114    0.621225   -0.095822
      7          1           0        0.481248   -1.048692    0.290050
      8          1           0        0.469809   -1.093971   -1.332192
      9          6           0       -1.957900   -0.173363    0.064510
     10          1           0       -0.695670    1.289947   -0.820655
     11          1           0       -0.271670    1.084352    0.809314
     12          1           0       -2.364216   -0.537835   -0.577192
     13          1           0       -2.617616    0.532830    0.412309
     14          1           0       -2.227590   -1.076700    1.047915
 ---------------------------------------------------------------------

 SCF Done:  E(RB2PLYPD3) =  -157.794790582     A.U. after   11 cycles
 E2(B2PLYPD3) =    -0.2529923013D+00 E(B2PLYPD3) =    -0.15804778288357D+03

 The electronic state is 1-A.
 Alpha  occ. eigenvalues --  -10.67658 -10.61778 -10.60199 -10.59740  -0.92044
 Alpha  occ. eigenvalues --   -0.84997  -0.74073  -0.68003  -0.54529  -0.50415
 Alpha  occ. eigenvalues --   -0.48515  -0.46757  -0.42103  -0.40521  -0.38842
 Alpha  occ. eigenvalues --   -0.36903  -0.33959
 Alpha virt. eigenvalues --    0.03397   0.05553   0.07725   0.08382   0.08893
 Alpha virt. eigenvalues --    0.10008   0.12301   0.13100   0.14411   0.14590
 Alpha virt. eigenvalues --    0.15386   0.16993   0.18420   0.19144   0.20472

 Mulliken charges:
               1
     1  C   -0.184775
     2  C   -0.248483
     3  H    0.028908
     4  H    0.052633
     5  H    0.034434
     6  C   -0.021851
     7  H    0.266093
     8  H    0.020255
     9  C   -0.247269
    10  H    0.065236
    11  H    0.054752
    12  H    0.141282
    13  H    0.043253
    14  H   -0.004467
 Sum of Mulliken charges =   0.00000

 Dipole moment (field-independent basis, Debye):
    X=             -0.8242    Y=              0.2778    Z=              0.0726  Tot=              0.8728
 Quadrupole moment (field-independent basis, Debye-Ang):
   XX=            -30.9817   YY=            -29.2828   ZZ=            -28.7990
   XY=             -0.3256   XZ=              1.0318   YZ=             -0.5334

 Normal termination of Gaussian 09 at Wed Aug 26 11:14:58 2020.
