 Gaussian 09, Revision D.01,
 Gaussian 09:  ES64L-G09RevD.01 24-Apr-2013

 --------------------
 #p B2PLYPD3/Def2QZVP
 --------------------

 ----------
 butane_opt
 ----------
 Symbolic Z-matrix:
 Charge =  0 Multiplicity = 1

                         Standard orientation:
 ---------------------------------------------------------------------
 Center     Atomic      Atomic             Coordinates (Angstroms)
 Number     Number       Type             X           Y           Z
 ---------------------------------------------------------------------
      1          6           0        1.904014   -0.202743   -0.051642
      2          6           0        0.487443    0.607841   -0.066607
      3          1           0        2.544934    0.473401    0.016721
      4          1           0        2.206425   -1.085960   -0.769443
      5          1           0        1.971048   -0.544056    0.773437
      6          6           0       -0.554122   -0.399273    0.315367
      7          1           0        0.292009    1.072042   -1.119320
      8          1           0        0.618308    1.406904    0.611312
      9          6           0       -1.890739    0.029042   -0.104463
     10          1           0       -0.707745   -0.821921    1.248990
     11          1           0       -0.257768   -1.267134   -0.453252
     12          1           0       -2.195780    1.153771    0.896869
     13          1           0       -2.713949   -1.088105   -0.730862
     14          1           0       -1.437053    0.491858   -1.030376
 ---------------------------------------------------------------------

 SCF Done:  E(RB2PLYPD3) =  -157.868593379     A.U. after   12 cycles
 E2(B2PLYPD3) =    -0.2554558524D+00 E(B2PLYPD3) =    -0.15812404923170D+03

 The electronic state is 1-A.
 Alpha  occ. eigenvalues --  -10.66755 -10.62590 -10.61054 -10.57363  -0.93040
 Alpha  occ. eigenvalues --   -0.84894  -0.72755  -0.65354  -0.55729  -0.50543
 Alpha  occ. eigenvalues --   -0.46680  -0.46110  -0.42820  -0.41238  -0.38231
 Alpha  occ. eigenvalues --   -0.35436  -0.34163
 Alpha virt. eigenvalues --    0.01229   0.06116   0.06695   0.07963   0.09555
 Alpha virt. eigenvalues --    0.10121   0.11657   0.13562   0.14334   0.14686
 Alpha virt. eigenvalues --    0.15463   0.16231   0.19101   0.19863   0.20131

 Mulliken charges:
               1
     1  C   -0.204579
     2  C   -0.012970
     3  H    0.049616
     4  H    0.038858
     5  H    0.096410
     6  C   -0.038969
     7  H    0.031122
     8  H    0.036748
     9  C   -0.173950
    10  H    0.062038
    11  H    0.028834
    12  H    0.010130
    13  H    0.030107
    14  H    0.046605
 Sum of Mulliken charges =   0.00000

 Dipole moment (field-independent basis, Debye):
    X=              1.0964    Y=             -0.0451    Z=              0.1457  Tot=              1.1070
 Quadrupole moment (field-independent basis, Debye-Ang):
   XX=            -33.0839   YY=            -28.9257   ZZ=            -28.4735
   XY=              0.9479   XZ=              0.5233   YZ=              0.8820

 Normal termination of Gaussian 09 at Wed Aug 26 09:58:51 2020.
