 Gaussian 09, Revision D.01,
 Gaussian 09:  ES64L-G09RevD.01 24-Apr-2013

 --------------------
 #p B2PLYPD3/Def2QZVP
 --------------------

 ----------
 butane_opt
 ----------
 Symbolic Z-matrix:
 Charge =  0 Multiplicity = 1

                         Standard orientation:
 ---------------------------------------------------------------------
 Center     Atomic      Atomic             Coordinates (Angstroms)
 Number     Number       Type             X           Y           Z
 ---------------------------------------------------------------------
      1          6           0       -1.901254   -0.073025   -0.098118
      2          6           0       -0.660416    0.342876    0.086382
      3          1           0       -2.868151    0.936600    0.115288
      4          1           0       -1.983493   -0.478245    0.621423
      5          1           0       -2.036566   -0.744718   -1.036970
      6          6           0        0.563923   -0.580355   -0.018549
      7          1           0       -0.573853    1.251149    1.239179
      8          1           0       -0.235249    1.039540   -0.680973
      9          6           0        1.974457    0.181811   -0.050370
     10          1           0        0.338595   -1.088585   -0.659633
     11          1           0        0.544321   -1.386386    0.927949
     12          1           0        2.484058    1.209432   -0.964020
     13          1           0        2.699337   -0.453569    0.393763
     14          1           0        1.770743    0.486934    0.527925
 ---------------------------------------------------------------------

 SCF Done:  E(RB2PLYPD3) =  -157.517399328     A.U. after   12 cycles
 E2(B2PLYPD3) =    -0.2533675933D+00 E(B2PLYPD3) =    -0.15777076692152D+03

 The electronic state is 1-A.
 Alpha  occ. eigenvalues --  -10.63266 -10.61596 -10.60268 -10.59785  -0.96487
 Alpha  occ. eigenvalues --   -0.90236  -0.78912  -0.66963  -0.55381  -0.51964
 Alpha  occ. eigenvalues --   -0.48723  -0.47346  -0.45888  -0.41236  -0.39857
 Alpha  occ. eigenvalues --   -0.34258  -0.33662
 Alpha virt. eigenvalues --    0.03635   0.04755   0.06565   0.07212   0.10297
 Alpha virt. eigenvalues --    0.10880   0.12078   0.12557   0.14495   0.15447
 Alpha virt. eigenvalues --    0.15752   0.16058   0.18124   0.18680   0.20710

 Mulliken charges:
               1
     1  C   -0.295337
     2  C   -0.003863
     3  H    0.033084
     4  H    0.203782
     5  H    0.055158
     6  C   -0.123081
     7  H   -0.038711
     8  H    0.033991
     9  C   -0.689053
    10  H    0.153871
    11  H   -0.009979
    12  H    0.051796
    13  H    0.077191
    14  H    0.551152
 Sum of Mulliken charges =   0.00000

 Dipole moment (field-independent basis, Debye):
    X=             -0.0142    Y=             -0.5672    Z=             -0.0058  Tot=              0.5674
 Quadrupole moment (field-independent basis, Debye-Ang):
   XX=            -29.8531   YY=            -29.3043   ZZ=            -28.9757
   XY=              0.9392   XZ=              0.5046   YZ=             -0.2825

 Normal termination of Gaussian 09 at Wed Aug 26 16:13:44 2020.
