 Gaussian 09, Revision D.01,
 Gaussian 09:  ES64L-G09RevD.01 24-Apr-2013

 --------------------
 #p B2PLYPD3/Def2QZVP
 --------------------

 ----------
 butane_opt
 ----------
 Symbolic Z-matrix:
 Charge =  0 Multiplicity = 1

                         Standard orientation:
 ---------------------------------------------------------------------
 Center     Atomic      Atomic             Coordinates (Angstroms)
 Number     Number       Type             X           Y           Z
 ---------------------------------------------------------------------
      1          6           0        1.958897   -0.163277   -0.145984
      2          6           0        0.476122    0.468277    0.310817
      3          1           0        2.826381    0.686143   -0.879662
      4          1           0        1.490671   -0.606003   -0.848763
      5          1           0        2.784267   -0.811067    0.569138
      6          6           0       -0.600296   -0.434792    0.132040
      7          1           0        0.193082    1.205862   -0.435428
      8          1           0        0.603498    1.293944    1.396078
      9          6           0       -1.859913    0.090820   -0.155658
     10          1           0       -0.614270   -1.262239    1.014469
     11          1           0       -0.417357   -1.098300   -0.780596
     12          1           0       -2.340446    0.537073    0.542014
     13          1           0       -2.698842   -0.727239   -0.149952
     14          1           0       -1.675847    1.015663   -1.274593
 ---------------------------------------------------------------------

 SCF Done:  E(RB2PLYPD3) =  -157.880429886     A.U. after   11 cycles
 E2(B2PLYPD3) =    -0.2558300424D+00 E(B2PLYPD3) =    -0.15813625992864D+03

 The electronic state is 1-A.
 Alpha  occ. eigenvalues --  -10.64429 -10.64352 -10.62667 -10.62245  -0.94831
 Alpha  occ. eigenvalues --   -0.83371  -0.73389  -0.65714  -0.54974  -0.51130
 Alpha  occ. eigenvalues --   -0.49387  -0.45137  -0.40941  -0.39196  -0.37286
 Alpha  occ. eigenvalues --   -0.36618  -0.34313
 Alpha virt. eigenvalues --    0.04284   0.05238   0.06314   0.06736   0.09475
 Alpha virt. eigenvalues --    0.09985   0.11594   0.12750   0.14276   0.15055
 Alpha virt. eigenvalues --    0.15810   0.16063   0.17349   0.19699   0.20228

 Mulliken charges:
               1
     1  C   -0.224367
     2  C   -0.057349
     3  H    0.009008
     4  H    0.113608
     5  H    0.065910
     6  C    0.012517
     7  H    0.057338
     8  H    0.009551
     9  C   -0.145201
    10  H    0.009673
    11  H    0.040332
    12  H    0.068326
    13  H    0.036538
    14  H    0.004117
 Sum of Mulliken charges =   0.00000

 Dipole moment (field-independent basis, Debye):
    X=             -0.5461    Y=             -0.4695    Z=              0.1357  Tot=              0.7329
 Quadrupole moment (field-independent basis, Debye-Ang):
   XX=            -29.8486   YY=            -30.1865   ZZ=            -30.0721
   XY=             -0.0942   XZ=             -0.9052   YZ=             -0.4391

 Normal termination of Gaussian 09 at Wed Aug 26 09:43:49 2020.
