 Gaussian 09, Revision D.01,
 Gaussian 09:  ES64L-G09RevD.01 24-Apr-2013

 --------------------
 #p B2PLYPD3/Def2QZVP
 --------------------

 ----------
 butane_opt
 ----------
 Symbolic Z-matrix:
 Charge =  0 Multiplicity = 1

                         Standard orientation:
 ---------------------------------------------------------------------
 Center     Atomic      Atomic             Coordinates (Angstroms)
 Number     Number       Type             X           Y           Z
 ---------------------------------------------------------------------
      1          6           0        1.871235   -0.173268   -0.019139
      2          6           0        0.590974    0.581361    0.021450
      3          1           0        2.699894    0.554317    0.169159
      4          1           0        2.293716   -1.213201   -1.106486
      5          1           0        2.056731   -0.379068    0.657513
      6          6           0       -0.579886   -0.473080    0.064538
      7          1           0        0.371187    1.362784   -0.861989
      8          1           0        0.333263    1.100342    0.897049
      9          6           0       -1.924154    0.123812   -0.070238
     10          1           0       -0.361357   -1.234961    1.196423
     11          1           0       -0.615073   -0.899299   -0.720344
     12          1           0       -2.036462    0.569378    0.710758
     13          1           0       -2.655855   -0.766796   -0.058058
     14          1           0       -1.835056    0.553556   -0.863688
 ---------------------------------------------------------------------

 SCF Done:  E(RB2PLYPD3) =  -157.695984966     A.U. after   11 cycles
 E2(B2PLYPD3) =    -0.2506344061D+00 E(B2PLYPD3) =    -0.15794661937174D+03

 The electronic state is 1-A.
 Alpha  occ. eigenvalues --  -10.61940 -10.60477 -10.60056 -10.55988  -0.94309
 Alpha  occ. eigenvalues --   -0.88971  -0.76222  -0.68324  -0.57598  -0.52740
 Alpha  occ. eigenvalues --   -0.49013  -0.47707  -0.42312  -0.40671  -0.38247
 Alpha  occ. eigenvalues --   -0.37284  -0.34627
 Alpha virt. eigenvalues --    0.04016   0.05829   0.07258   0.07668   0.10560
 Alpha virt. eigenvalues --    0.10815   0.12639   0.13085   0.15133   0.15367
 Alpha virt. eigenvalues --    0.15914   0.17062   0.18544   0.19338   0.21170

 Mulliken charges:
               1
     1  C   -0.488133
     2  C   -0.022271
     3  H    0.038737
     4  H    0.037282
     5  H    0.359611
     6  C   -0.120905
     7  H    0.011376
     8  H    0.056966
     9  C   -0.197022
    10  H   -0.009080
    11  H    0.125771
    12  H    0.077945
    13  H    0.035956
    14  H    0.093768
 Sum of Mulliken charges =   0.00000

 Dipole moment (field-independent basis, Debye):
    X=             -0.0829    Y=              0.3313    Z=              0.2764  Tot=              0.4394
 Quadrupole moment (field-independent basis, Debye-Ang):
   XX=            -29.8948   YY=            -29.5037   ZZ=            -27.6574
   XY=              0.0909   XZ=              1.2908   YZ=              0.6975

 Normal termination of Gaussian 09 at Wed Aug 26 23:16:01 2020.
