 Gaussian 09, Revision D.01,
 Gaussian 09:  ES64L-G09RevD.01 24-Apr-2013

 --------------------
 #p B2PLYPD3/Def2QZVP
 --------------------

 ----------
 butane_opt
 ----------
 Symbolic Z-matrix:
 Charge =  0 Multiplicity = 1

                         Standard orientation:
 ---------------------------------------------------------------------
 Center     Atomic      Atomic             Coordinates (Angstroms)
 Number     Number       Type             X           Y           Z
 ---------------------------------------------------------------------
      1          6           0       -1.908756    0.108271   -0.007214
      2          6           0       -0.569138   -0.455003    0.024159
      3          1           0       -2.697057   -0.667607    0.032847
      4          1           0       -1.999795    0.741727   -0.938641
      5          1           0       -2.011577    0.648210    0.792619
      6          6           0        0.552860    0.491463   -0.006865
      7          1           0       -0.607436   -1.079127   -0.878898
      8          1           0       -0.519269   -1.112112    0.947079
      9          6           0        1.934541   -0.162580   -0.033950
     10          1           0        0.456401    1.419154    1.087047
     11          1           0        0.318962    1.005491   -0.810507
     12          1           0        2.249733   -0.822549    0.919777
     13          1           0        2.851505    0.661503   -0.220437
     14          1           0        1.901489   -0.687592   -0.787666
 ---------------------------------------------------------------------

 SCF Done:  E(RB2PLYPD3) =  -158.010972413     A.U. after   11 cycles
 E2(B2PLYPD3) =    -0.2480803787D+00 E(B2PLYPD3) =    -0.15825905279170D+03

 The electronic state is 1-A.
 Alpha  occ. eigenvalues --  -10.62529 -10.61213 -10.60161 -10.58532  -0.93600
 Alpha  occ. eigenvalues --   -0.84906  -0.73819  -0.65935  -0.55826  -0.50592
 Alpha  occ. eigenvalues --   -0.49237  -0.48152  -0.42607  -0.41528  -0.39457
 Alpha  occ. eigenvalues --   -0.37522  -0.35083
 Alpha virt. eigenvalues --    0.05311   0.06559   0.07224   0.08380   0.10442
 Alpha virt. eigenvalues --    0.11635   0.12708   0.13691   0.14415   0.15258
 Alpha virt. eigenvalues --    0.15524   0.16234   0.19167   0.20037   0.21881

 Mulliken charges:
               1
     1  C   -0.131979
     2  C   -0.029569
     3  H    0.042347
     4  H    0.025891
     5  H    0.062119
     6  C   -0.054109
     7  H    0.026272
     8  H    0.020170
     9  C   -0.181786
    10  H   -0.033605
    11  H    0.076798
    12  H    0.044098
    13  H    0.029999
    14  H    0.103356
 Sum of Mulliken charges =   0.00000

 Dipole moment (field-independent basis, Debye):
    X=             -0.1528    Y=             -0.4018    Z=             -0.4547  Tot=              0.6257
 Quadrupole moment (field-independent basis, Debye-Ang):
   XX=            -29.6154   YY=            -29.8854   ZZ=            -28.2444
   XY=              0.1571   XZ=             -0.3395   YZ=             -0.5183

 Normal termination of Gaussian 09 at Wed Aug 26 23:35:38 2020.
