 Gaussian 09, Revision D.01,
 Gaussian 09:  ES64L-G09RevD.01 24-Apr-2013

 --------------------
 #p B2PLYPD3/Def2QZVP
 --------------------

 ----------
 butane_opt
 ----------
 Symbolic Z-matrix:
 Charge =  0 Multiplicity = 1

                         Standard orientation:
 ---------------------------------------------------------------------
 Center     Atomic      Atomic             Coordinates (Angstroms)
 Number     Number       Type             X           Y           Z
 ---------------------------------------------------------------------
      1          6           0        2.004913    0.080627   -0.101009
      2          6           0        0.566664   -0.470407    0.097263
      3          1           0        2.790604   -0.726424   -0.114428
      4          1           0        1.944515    0.639883    0.724174
      5          1           0        2.111344    0.768947   -1.020868
      6          6           0       -0.561924    0.564710    0.134489
      7          1           0        0.729482   -1.180363    1.057980
      8          1           0        0.348433   -0.943134   -0.748616
      9          6           0       -1.993129   -0.139976   -0.116967
     10          1           0       -0.352115    0.982900   -0.543430
     11          1           0       -0.525913    1.346077    1.098000
     12          1           0       -1.937159   -0.741051   -0.920888
     13          1           0       -2.675364    0.534589   -0.513500
     14          1           0       -2.532969   -0.891145    0.898918
 ---------------------------------------------------------------------

 SCF Done:  E(RB2PLYPD3) =  -157.949281280     A.U. after   11 cycles
 E2(B2PLYPD3) =    -0.2482458690D+00 E(B2PLYPD3) =    -0.15819752714892D+03

 The electronic state is 1-A.
 Alpha  occ. eigenvalues --  -10.61844 -10.60624 -10.60324 -10.59805  -0.92504
 Alpha  occ. eigenvalues --   -0.83302  -0.74766  -0.67524  -0.54884  -0.50328
 Alpha  occ. eigenvalues --   -0.48859  -0.46314  -0.42565  -0.40524  -0.38870
 Alpha  occ. eigenvalues --   -0.38381  -0.36253
 Alpha virt. eigenvalues --    0.05372   0.06440   0.08347   0.08714   0.10865
 Alpha virt. eigenvalues --    0.11458   0.12685   0.12983   0.14629   0.15333
 Alpha virt. eigenvalues --    0.15538   0.16688   0.19214   0.19589   0.21300

 Mulliken charges:
               1
     1  C   -0.170113
     2  C   -0.060078
     3  H    0.055407
     4  H    0.076843
     5  H    0.019698
     6  C   -0.260531
     7  H    0.020796
     8  H    0.064302
     9  C   -0.144665
    10  H    0.243274
    11  H    0.020714
    12  H    0.056710
    13  H    0.049261
    14  H    0.028382
 Sum of Mulliken charges =   0.00000

 Dipole moment (field-independent basis, Debye):
    X=              0.0161    Y=              0.0888    Z=             -0.5869  Tot=              0.5938
 Quadrupole moment (field-independent basis, Debye-Ang):
   XX=            -30.0949   YY=            -29.2761   ZZ=            -27.9738
   XY=             -0.7062   XZ=              0.8938   YZ=             -0.2591

 Normal termination of Gaussian 09 at Wed Aug 26 23:37:46 2020.
