 Gaussian 09, Revision D.01,
 Gaussian 09:  ES64L-G09RevD.01 24-Apr-2013

 --------------------
 #p B2PLYPD3/Def2QZVP
 --------------------

 ----------
 butane_opt
 ----------
 Symbolic Z-matrix:
 Charge =  0 Multiplicity = 1

                         Standard orientation:
 ---------------------------------------------------------------------
 Center     Atomic      Atomic             Coordinates (Angstroms)
 Number     Number       Type             X           Y           Z
 ---------------------------------------------------------------------
      1          6           0       -1.956616    0.174574   -0.003065
      2          6           0       -0.569842   -0.543579    0.005922
      3          1           0       -2.750493   -0.694856   -0.091644
      4          1           0       -1.989235    0.784632   -0.880164
      5          1           0       -2.048167    0.710499    0.763972
      6          6           0        0.586395    0.466188    0.027206
      7          1           0       -0.378487   -1.097021   -0.808359
      8          1           0       -0.339866   -1.152394    0.911885
      9          6           0        1.899526   -0.124981   -0.028283
     10          1           0        0.549057    1.291645    1.065183
     11          1           0        0.438668    1.003742   -0.768085
     12          1           0        2.108960   -0.794145    0.892536
     13          1           0        2.717923    0.736238   -0.297462
     14          1           0        1.934864   -0.621552   -0.798541
 ---------------------------------------------------------------------

 SCF Done:  E(RB2PLYPD3) =  -158.018850720     A.U. after   11 cycles
 E2(B2PLYPD3) =    -0.2467866515D+00 E(B2PLYPD3) =    -0.15826563737104D+03

 The electronic state is 1-A.
 Alpha  occ. eigenvalues --  -10.60300 -10.59879 -10.59348 -10.59307  -0.92871
 Alpha  occ. eigenvalues --   -0.84665  -0.73935  -0.67163  -0.55930  -0.50754
 Alpha  occ. eigenvalues --   -0.48683  -0.47289  -0.44399  -0.42647  -0.39429
 Alpha  occ. eigenvalues --   -0.36853  -0.35615
 Alpha virt. eigenvalues --    0.05454   0.06893   0.07994   0.08645   0.10862
 Alpha virt. eigenvalues --    0.11755   0.12876   0.13838   0.14950   0.15315
 Alpha virt. eigenvalues --    0.15790   0.16250   0.19358   0.19908   0.21699

 Mulliken charges:
               1
     1  C   -0.166770
     2  C   -0.063634
     3  H    0.036122
     4  H    0.043368
     5  H    0.083734
     6  C   -0.040741
     7  H    0.059140
     8  H    0.025727
     9  C   -0.174504
    10  H   -0.018592
    11  H    0.060858
    12  H    0.042398
    13  H    0.031705
    14  H    0.081189
 Sum of Mulliken charges =   0.00000

 Dipole moment (field-independent basis, Debye):
    X=             -0.0461    Y=             -0.1828    Z=             -0.5223  Tot=              0.5553
 Quadrupole moment (field-independent basis, Debye-Ang):
   XX=            -30.4413   YY=            -29.0789   ZZ=            -27.9000
   XY=             -0.2616   XZ=             -0.5257   YZ=             -0.3137

 Normal termination of Gaussian 09 at Wed Aug 26 16:28:04 2020.
