 Gaussian 09, Revision D.01,
 Gaussian 09:  ES64L-G09RevD.01 24-Apr-2013

 --------------------
 #p B2PLYPD3/Def2QZVP
 --------------------

 ----------
 butane_opt
 ----------
 Symbolic Z-matrix:
 Charge =  0 Multiplicity = 1

                         Standard orientation:
 ---------------------------------------------------------------------
 Center     Atomic      Atomic             Coordinates (Angstroms)
 Number     Number       Type             X           Y           Z
 ---------------------------------------------------------------------
      1          6           0        1.970498   -0.021102    0.058125
      2          6           0        0.570953    0.475846   -0.116588
      3          1           0        2.741867    0.624666    0.122498
      4          1           0        2.013967   -0.693493   -0.824018
      5          1           0        2.274145   -0.765511    0.985673
      6          6           0       -0.508413   -0.643223   -0.053135
      7          1           0        0.667703    1.224110   -0.975619
      8          1           0        0.327463    1.040981    0.682592
      9          6           0       -2.014082    0.107408    0.033522
     10          1           0       -0.367594   -1.307477    0.871765
     11          1           0       -0.654142   -0.965312   -0.630296
     12          1           0       -2.348509    1.275607    1.122846
     13          1           0       -2.648238   -0.412181   -0.245528
     14          1           0       -2.120394    0.465039   -0.641462
 ---------------------------------------------------------------------

 SCF Done:  E(RB2PLYPD3) =  -157.532170948     A.U. after   11 cycles
 E2(B2PLYPD3) =    -0.2494036092D+00 E(B2PLYPD3) =    -0.15778157455729D+03

 The electronic state is 1-A.
 Alpha  occ. eigenvalues --  -10.60390 -10.60026 -10.59772 -10.58878  -0.94240
 Alpha  occ. eigenvalues --   -0.87624  -0.80382  -0.70192  -0.55869  -0.52512
 Alpha  occ. eigenvalues --   -0.49571  -0.46117  -0.43061  -0.40381  -0.38864
 Alpha  occ. eigenvalues --   -0.37194  -0.35759
 Alpha virt. eigenvalues --    0.03536   0.06020   0.07908   0.08228   0.10369
 Alpha virt. eigenvalues --    0.10949   0.12577   0.13203   0.14630   0.15368
 Alpha virt. eigenvalues --    0.15693   0.17266   0.18975   0.19609   0.21410

 Mulliken charges:
               1
     1  C   -0.138111
     2  C   -0.010096
     3  H    0.055312
     4  H    0.036890
     5  H    0.006007
     6  C   -0.579753
     7  H    0.021223
     8  H    0.063229
     9  C   -0.418228
    10  H    0.078192
    11  H    0.501790
    12  H    0.005802
    13  H    0.095935
    14  H    0.281809
 Sum of Mulliken charges =   0.00000

 Dipole moment (field-independent basis, Debye):
    X=              0.0803    Y=             -0.1657    Z=             -0.8404  Tot=              0.8604
 Quadrupole moment (field-independent basis, Debye-Ang):
   XX=            -29.5077   YY=            -28.3968   ZZ=            -28.1549
   XY=              1.3386   XZ=              2.2626   YZ=              0.2580

 Normal termination of Gaussian 09 at Wed Aug 26 12:31:56 2020.
