 Gaussian 09, Revision D.01,
 Gaussian 09:  ES64L-G09RevD.01 24-Apr-2013

 --------------------
 #p B2PLYPD3/Def2QZVP
 --------------------

 ----------
 butane_opt
 ----------
 Symbolic Z-matrix:
 Charge =  0 Multiplicity = 1

                         Standard orientation:
 ---------------------------------------------------------------------
 Center     Atomic      Atomic             Coordinates (Angstroms)
 Number     Number       Type             X           Y           Z
 ---------------------------------------------------------------------
      1          6           0        1.881876    0.075046    0.044082
      2          6           0        0.559030   -0.447550    0.049052
      3          1           0        2.761205   -0.856721   -0.285322
      4          1           0        1.982266    1.226353    1.135099
      5          1           0        1.683010    0.332483   -0.646069
      6          6           0       -0.499721    0.576348   -0.124221
      7          1           0        0.451316   -0.778043    0.885538
      8          1           0        0.723418   -1.473266   -1.016872
      9          6           0       -1.870422   -0.135951    0.047570
     10          1           0       -0.255667    1.211021   -1.085736
     11          1           0       -0.592432    1.160334    0.653945
     12          1           0       -2.294132   -0.496669   -0.683250
     13          1           0       -2.641854    0.342571   -0.295426
     14          1           0       -2.241709   -1.075422    1.239190
 ---------------------------------------------------------------------

 SCF Done:  E(RB2PLYPD3) =  -157.563453362     A.U. after   12 cycles
 E2(B2PLYPD3) =    -0.2569973996D+00 E(B2PLYPD3) =    -0.15782045076136D+03

 The electronic state is 1-A.
 Alpha  occ. eigenvalues --  -10.62050 -10.61620 -10.61442 -10.61232  -0.97128
 Alpha  occ. eigenvalues --   -0.89670  -0.79491  -0.69391  -0.55740  -0.51116
 Alpha  occ. eigenvalues --   -0.48230  -0.44610  -0.40201  -0.39647  -0.38394
 Alpha  occ. eigenvalues --   -0.35606  -0.33383
 Alpha virt. eigenvalues --    0.03147   0.03418   0.03855   0.06963   0.09977
 Alpha virt. eigenvalues --    0.10596   0.11501   0.12088   0.13310   0.15667
 Alpha virt. eigenvalues --    0.15871   0.16254   0.17535   0.19920   0.21284

 Mulliken charges:
               1
     1  C   -0.477206
     2  C   -0.071734
     3  H    0.057614
     4  H   -0.001794
     5  H    0.371369
     6  C   -0.077809
     7  H    0.124961
     8  H   -0.015517
     9  C   -0.238056
    10  H    0.033772
    11  H    0.089467
    12  H    0.096444
    13  H    0.077376
    14  H    0.031113
 Sum of Mulliken charges =   0.00000

 Dipole moment (field-independent basis, Debye):
    X=             -0.8686    Y=              0.1733    Z=             -0.6695  Tot=              1.1103
 Quadrupole moment (field-independent basis, Debye-Ang):
   XX=            -30.4169   YY=            -30.2633   ZZ=            -28.4189
   XY=             -1.0786   XZ=              0.4079   YZ=             -0.3732

 Normal termination of Gaussian 09 at Wed Aug 26 21:33:00 2020.
