 Gaussian 09, Revision D.01,
 Gaussian 09:  ES64L-G09RevD.01 24-Apr-2013

 --------------------
 #p B2PLYPD3/Def2QZVP
 --------------------

 ----------
 butane_opt
 ----------
 Symbolic Z-matrix:
 Charge =  0 Multiplicity = 1

                         Standard orientation:
 ---------------------------------------------------------------------
 Center     Atomic      Atomic             Coordinates (Angstroms)
 Number     Number       Type             X           Y           Z
 ---------------------------------------------------------------------
      1          6           0       -1.921465   -0.146945   -0.038157
      2          6           0       -0.517614    0.513605   -0.018778
      3          1           0       -2.760776    0.599076   -0.118933
      4          1           0       -2.060279   -0.610091    0.827918
      5          1           0       -2.177343   -0.893407   -0.957107
      6          6           0        0.549168   -0.488089    0.162082
      7          1           0       -0.367739    1.360620    0.927978
      8          1           0       -0.482025    0.978218   -0.786249
      9          6           0        1.924599    0.117441   -0.097833
     10          1           0        0.486346   -0.960932   -0.535235
     11          1           0        0.470845   -1.058506    1.151517
     12          1           0        1.672938    0.587614   -0.969105
     13          1           0        2.788982   -0.859089   -0.404679
     14          1           0        2.220916    0.880425    0.820014
 ---------------------------------------------------------------------

 SCF Done:  E(RB2PLYPD3) =  -157.943860585     A.U. after   11 cycles
 E2(B2PLYPD3) =    -0.2483325964D+00 E(B2PLYPD3) =    -0.15819219318146D+03

 The electronic state is 1-A.
 Alpha  occ. eigenvalues --  -10.62858 -10.60557 -10.60214 -10.57802  -0.94232
 Alpha  occ. eigenvalues --   -0.83551  -0.72482  -0.68907  -0.57060  -0.50361
 Alpha  occ. eigenvalues --   -0.47219  -0.46380  -0.43194  -0.41239  -0.39547
 Alpha  occ. eigenvalues --   -0.37573  -0.36253
 Alpha virt. eigenvalues --    0.05125   0.06426   0.08036   0.08562   0.10732
 Alpha virt. eigenvalues --    0.11246   0.12633   0.13449   0.14521   0.15325
 Alpha virt. eigenvalues --    0.15463   0.16313   0.19142   0.19857   0.21186

 Mulliken charges:
               1
     1  C   -0.131071
     2  C   -0.096567
     3  H    0.032840
     4  H    0.066278
     5  H    0.019184
     6  C   -0.180191
     7  H   -0.006311
     8  H    0.095832
     9  C   -0.171670
    10  H    0.192939
    11  H    0.036416
    12  H    0.074805
    13  H    0.024096
    14  H    0.043419
 Sum of Mulliken charges =   0.00000

 Dipole moment (field-independent basis, Debye):
    X=             -0.3645    Y=             -0.1044    Z=             -0.3210  Tot=              0.4968
 Quadrupole moment (field-independent basis, Debye-Ang):
   XX=            -31.0765   YY=            -29.3890   ZZ=            -27.8317
   XY=             -0.3249   XZ=              0.1564   YZ=              0.0819

 Normal termination of Gaussian 09 at Wed Aug 26 15:42:07 2020.
