 Gaussian 09, Revision D.01,
 Gaussian 09:  ES64L-G09RevD.01 24-Apr-2013

 --------------------
 #p B2PLYPD3/Def2QZVP
 --------------------

 ----------
 butane_opt
 ----------
 Symbolic Z-matrix:
 Charge =  0 Multiplicity = 1

                         Standard orientation:
 ---------------------------------------------------------------------
 Center     Atomic      Atomic             Coordinates (Angstroms)
 Number     Number       Type             X           Y           Z
 ---------------------------------------------------------------------
      1          6           0       -2.039397   -0.150528   -0.172106
      2          6           0       -0.511710    0.632445    0.105332
      3          1           0       -2.730953    0.458821   -0.079360
      4          1           0       -2.284646   -0.572914    0.625693
      5          1           0       -2.147017   -1.284583   -1.069668
      6          6           0        0.556861   -0.379076    0.310730
      7          1           0       -0.470056    1.433129    0.866217
      8          1           0       -0.112914    1.080259   -0.847787
      9          6           0        1.914818    0.005980   -0.220784
     10          1           0        0.516349   -0.853326   -0.164047
     11          1           0        0.847057   -1.480115    1.707661
     12          1           0        1.803348    0.258712   -1.050263
     13          1           0        2.660861   -0.856526   -0.822887
     14          1           0        2.394543    1.163613    0.695417
 ---------------------------------------------------------------------

 SCF Done:  E(RB2PLYPD3) =  -157.443208137     A.U. after   12 cycles
 E2(B2PLYPD3) =    -0.2577481899D+00 E(B2PLYPD3) =    -0.15770095632648D+03

 The electronic state is 1-A.
 Alpha  occ. eigenvalues --  -10.64855 -10.64437 -10.62513 -10.61941  -0.96871
 Alpha  occ. eigenvalues --   -0.85344  -0.77669  -0.72531  -0.53869  -0.50705
 Alpha  occ. eigenvalues --   -0.49428  -0.45123  -0.44184  -0.39831  -0.38836
 Alpha  occ. eigenvalues --   -0.35852  -0.31810
 Alpha virt. eigenvalues --    0.00947   0.03404   0.04346   0.07552   0.08499
 Alpha virt. eigenvalues --    0.10395   0.11036   0.12414   0.13540   0.14516
 Alpha virt. eigenvalues --    0.15724   0.16392   0.17681   0.18028   0.19392

 Mulliken charges:
               1
     1  C   -0.191452
     2  C   -0.009593
     3  H    0.069561
     4  H    0.088128
     5  H    0.034123
     6  C   -0.632424
     7  H    0.061616
     8  H    0.044974
     9  C   -0.225473
    10  H    0.599866
    11  H   -0.062817
    12  H    0.174494
    13  H    0.038512
    14  H    0.010483
 Sum of Mulliken charges =   0.00000

 Dipole moment (field-independent basis, Debye):
    X=             -0.8465    Y=              0.5330    Z=             -1.2029  Tot=              1.5645
 Quadrupole moment (field-independent basis, Debye-Ang):
   XX=            -30.5901   YY=            -29.7355   ZZ=            -29.9517
   XY=             -0.2286   XZ=             -3.3956   YZ=              2.4587

 Normal termination of Gaussian 09 at Wed Aug 26 10:56:04 2020.
