 Gaussian 09, Revision D.01,
 Gaussian 09:  ES64L-G09RevD.01 24-Apr-2013

 --------------------
 #p B2PLYPD3/Def2QZVP
 --------------------

 ----------
 butane_opt
 ----------
 Symbolic Z-matrix:
 Charge =  0 Multiplicity = 1

                         Standard orientation:
 ---------------------------------------------------------------------
 Center     Atomic      Atomic             Coordinates (Angstroms)
 Number     Number       Type             X           Y           Z
 ---------------------------------------------------------------------
      1          6           0        2.026590   -0.125364    0.073924
      2          6           0        0.537563    0.621920   -0.220520
      3          1           0        2.666330    0.519294    0.796176
      4          1           0        2.600045   -0.827938   -0.799086
      5          1           0        1.801948   -0.931064    0.998964
      6          6           0       -0.636890   -0.453106   -0.124829
      7          1           0        0.327290    1.341619   -1.105536
      8          1           0        0.446798    1.032766    0.556715
      9          6           0       -1.906655    0.046148    0.147105
     10          1           0       -0.269548   -1.233334    0.848455
     11          1           0       -0.761585   -1.198621   -1.200553
     12          1           0       -2.181083    0.894867    1.345030
     13          1           0       -2.570172   -0.702368   -0.046678
     14          1           0       -2.183670    0.567194   -0.647567
 ---------------------------------------------------------------------

 SCF Done:  E(RB2PLYPD3) =  -157.895194922     A.U. after   11 cycles
 E2(B2PLYPD3) =    -0.2541048069D+00 E(B2PLYPD3) =    -0.15814929972861D+03

 The electronic state is 1-A.
 Alpha  occ. eigenvalues --  -10.65128 -10.64765 -10.61439 -10.61055  -0.92270
 Alpha  occ. eigenvalues --   -0.83624  -0.71769  -0.64867  -0.53305  -0.50040
 Alpha  occ. eigenvalues --   -0.47574  -0.46211  -0.42232  -0.39546  -0.37874
 Alpha  occ. eigenvalues --   -0.35823  -0.34507
 Alpha virt. eigenvalues --    0.04792   0.05365   0.06077   0.07733   0.10110
 Alpha virt. eigenvalues --    0.11034   0.11585   0.12898   0.13502   0.14594
 Alpha virt. eigenvalues --    0.15495   0.16537   0.18669   0.18982   0.20188

 Mulliken charges:
               1
     1  C   -0.161960
     2  C   -0.171637
     3  H    0.049932
     4  H    0.059574
     5  H    0.024271
     6  C   -0.037140
     7  H    0.040495
     8  H    0.177883
     9  C   -0.138009
    10  H    0.013826
    11  H    0.014802
    12  H    0.007640
    13  H    0.065904
    14  H    0.054421
 Sum of Mulliken charges =   0.00000

 Dipole moment (field-independent basis, Debye):
    X=             -0.2987    Y=              0.1437    Z=             -0.2215  Tot=              0.3986
 Quadrupole moment (field-independent basis, Debye-Ang):
   XX=            -30.4101   YY=            -29.9864   ZZ=            -28.6506
   XY=              0.0391   XZ=              1.9324   YZ=              0.6090

 Normal termination of Gaussian 09 at Wed Aug 26 15:50:04 2020.
