 Gaussian 09, Revision D.01,
 Gaussian 09:  ES64L-G09RevD.01 24-Apr-2013

 --------------------
 #p B2PLYPD3/Def2QZVP
 --------------------

 ----------
 butane_opt
 ----------
 Symbolic Z-matrix:
 Charge =  0 Multiplicity = 1

                         Standard orientation:
 ---------------------------------------------------------------------
 Center     Atomic      Atomic             Coordinates (Angstroms)
 Number     Number       Type             X           Y           Z
 ---------------------------------------------------------------------
      1          6           0        1.834333    0.065425    0.092151
      2          6           0        0.595598   -0.433057    0.007251
      3          1           0        2.653036   -0.763192   -0.448497
      4          1           0        2.415173    1.212603    1.127550
      5          1           0        1.944678    0.160629   -0.512665
      6          6           0       -0.451635    0.554828   -0.230153
      7          1           0        0.410873   -1.243072    1.099268
      8          1           0        0.616805   -1.295172   -0.873692
      9          6           0       -2.002948   -0.110647    0.049567
     10          1           0       -0.150059    1.161907   -1.081189
     11          1           0       -0.559062    1.320019    0.538140
     12          1           0       -2.388085   -0.708555   -0.627450
     13          1           0       -2.719160    0.493550    0.387683
     14          1           0       -2.076288   -0.798013    0.877951
 ---------------------------------------------------------------------

 SCF Done:  E(RB2PLYPD3) =  -157.452617385     A.U. after   12 cycles
 E2(B2PLYPD3) =    -0.2559073976D+00 E(B2PLYPD3) =    -0.15770852478224D+03

 The electronic state is 1-A.
 Alpha  occ. eigenvalues --  -10.64071 -10.62435 -10.61454 -10.58701  -0.98889
 Alpha  occ. eigenvalues --   -0.86229  -0.78286  -0.67438  -0.54742  -0.51091
 Alpha  occ. eigenvalues --   -0.49356  -0.47662  -0.42169  -0.41669  -0.37500
 Alpha  occ. eigenvalues --   -0.34751  -0.32818
 Alpha virt. eigenvalues --    0.01988   0.03915   0.06366   0.07466   0.09778
 Alpha virt. eigenvalues --    0.10801   0.12245   0.14178   0.14640   0.14814
 Alpha virt. eigenvalues --    0.15838   0.16323   0.17953   0.19940   0.20789

 Mulliken charges:
               1
     1  C   -0.786929
     2  C    0.002840
     3  H    0.019947
     4  H    0.041215
     5  H    0.670335
     6  C   -0.066353
     7  H   -0.001233
     8  H    0.023467
     9  C   -0.111169
    10  H    0.050319
    11  H    0.034731
    12  H    0.047091
    13  H    0.041148
    14  H    0.034590
 Sum of Mulliken charges =   0.00000

 Dipole moment (field-independent basis, Debye):
    X=             -0.3393    Y=              0.3318    Z=             -0.7214  Tot=              0.8635
 Quadrupole moment (field-independent basis, Debye-Ang):
   XX=            -29.7040   YY=            -29.1181   ZZ=            -28.7353
   XY=              0.7341   XZ=             -2.3556   YZ=              1.2069

 Normal termination of Gaussian 09 at Wed Aug 26 23:35:21 2020.
