 Gaussian 09, Revision D.01,
 Gaussian 09:  ES64L-G09RevD.01 24-Apr-2013

 --------------------
 #p B2PLYPD3/Def2QZVP
 --------------------

 ----------
 butane_opt
 ----------
 Symbolic Z-matrix:
 Charge =  0 Multiplicity = 1

                         Standard orientation:
 ---------------------------------------------------------------------
 Center     Atomic      Atomic             Coordinates (Angstroms)
 Number     Number       Type             X           Y           Z
 ---------------------------------------------------------------------
      1          6           0        1.959535   -0.168808   -0.101093
      2          6           0        0.580146    0.573864    0.136238
      3          1           0        2.689416    0.502970   -0.408175
      4          1           0        2.007501   -0.543276   -0.818797
      5          1           0        2.441194   -0.841348    0.820264
      6          6           0       -0.595277   -0.489148    0.040963
      7          1           0        0.306764    1.135210   -0.625804
      8          1           0        0.434563    1.259939    1.008416
      9          6           0       -1.919267    0.076967   -0.065153
     10          1           0       -0.579291   -1.180917    0.958742
     11          1           0       -0.561613   -1.044743   -0.718321
     12          1           0       -2.061393    0.643101    0.836720
     13          1           0       -2.661679   -0.645012   -0.113881
     14          1           0       -2.166279    0.756825   -1.004885
 ---------------------------------------------------------------------

 SCF Done:  E(RB2PLYPD3) =  -157.964878051     A.U. after   11 cycles
 E2(B2PLYPD3) =    -0.2460178212D+00 E(B2PLYPD3) =    -0.15821089587225D+03

 The electronic state is 1-A.
 Alpha  occ. eigenvalues --  -10.60462 -10.59019 -10.58536 -10.58075  -0.92058
 Alpha  occ. eigenvalues --   -0.85830  -0.75556  -0.68223  -0.54340  -0.51622
 Alpha  occ. eigenvalues --   -0.48243  -0.47213  -0.43712  -0.41456  -0.39654
 Alpha  occ. eigenvalues --   -0.39108  -0.35479
 Alpha virt. eigenvalues --    0.05833   0.06843   0.08568   0.08956   0.10993
 Alpha virt. eigenvalues --    0.12012   0.13119   0.13261   0.15339   0.15669
 Alpha virt. eigenvalues --    0.16187   0.16884   0.19115   0.20215   0.21809

 Mulliken charges:
               1
     1  C   -0.288331
     2  C   -0.062056
     3  H    0.026787
     4  H    0.181439
     5  H    0.046028
     6  C   -0.044207
     7  H    0.062194
     8  H    0.036327
     9  C   -0.133511
    10  H    0.009718
    11  H    0.063234
    12  H    0.042391
    13  H    0.046639
    14  H    0.013348
 Sum of Mulliken charges =   0.00000

 Dipole moment (field-independent basis, Debye):
    X=              0.0119    Y=             -0.0651    Z=             -0.4212  Tot=              0.4264
 Quadrupole moment (field-independent basis, Debye-Ang):
   XX=            -29.0019   YY=            -28.7924   ZZ=            -27.6170
   XY=              0.3005   XZ=             -0.5127   YZ=              0.0772

 Normal termination of Gaussian 09 at Wed Aug 26 21:14:07 2020.
