 Gaussian 09, Revision D.01,
 Gaussian 09:  ES64L-G09RevD.01 24-Apr-2013

 --------------------
 #p B2PLYPD3/Def2QZVP
 --------------------

 ----------
 butane_opt
 ----------
 Symbolic Z-matrix:
 Charge =  0 Multiplicity = 1

                         Standard orientation:
 ---------------------------------------------------------------------
 Center     Atomic      Atomic             Coordinates (Angstroms)
 Number     Number       Type             X           Y           Z
 ---------------------------------------------------------------------
      1          6           0       -1.989482    0.110880    0.078575
      2          6           0       -0.541597   -0.518342   -0.013653
      3          1           0       -2.773981   -0.653024   -0.440008
      4          1           0       -1.891734    0.287455   -0.597076
      5          1           0       -2.296193    1.127549    1.128001
      6          6           0        0.567604    0.529730   -0.109920
      7          1           0       -0.558915   -1.193085   -0.889131
      8          1           0       -0.435273   -0.964614    0.791979
      9          6           0        1.958163   -0.139835    0.110219
     10          1           0        0.495939    1.019508    0.629985
     11          1           0        0.416189    1.283936   -1.152416
     12          1           0        2.185861   -0.764675    1.047693
     13          1           0        2.799467    0.596504   -0.224372
     14          1           0        2.090512   -0.634149   -0.685976
 ---------------------------------------------------------------------

 SCF Done:  E(RB2PLYPD3) =  -157.677945354     A.U. after   11 cycles
 E2(B2PLYPD3) =    -0.2509143527D+00 E(B2PLYPD3) =    -0.15792885970690D+03

 The electronic state is 1-A.
 Alpha  occ. eigenvalues --  -10.60610 -10.60231 -10.59910 -10.59554  -0.93824
 Alpha  occ. eigenvalues --   -0.86703  -0.76260  -0.69374  -0.55353  -0.49162
 Alpha  occ. eigenvalues --   -0.47519  -0.46493  -0.42855  -0.40199  -0.39629
 Alpha  occ. eigenvalues --   -0.37110  -0.35708
 Alpha virt. eigenvalues --    0.04383   0.05921   0.07167   0.08054   0.10498
 Alpha virt. eigenvalues --    0.11344   0.12424   0.12542   0.14247   0.15653
 Alpha virt. eigenvalues --    0.16304   0.16516   0.18329   0.19226   0.21306

 Mulliken charges:
               1
     1  C   -0.698769
     2  C   -0.035300
     3  H    0.042587
     4  H    0.527777
     5  H    0.060480
     6  C   -0.131854
     7  H    0.024783
     8  H    0.082400
     9  C   -0.167818
    10  H    0.133402
    11  H    0.009288
    12  H    0.056802
    13  H    0.025860
    14  H    0.070364
 Sum of Mulliken charges =   0.00000

 Dipole moment (field-independent basis, Debye):
    X=              0.3930    Y=             -0.1217    Z=             -0.3103  Tot=              0.5154
 Quadrupole moment (field-independent basis, Debye-Ang):
   XX=            -30.9768   YY=            -29.2530   ZZ=            -27.1740
   XY=             -0.5439   XZ=              0.7875   YZ=              0.6122

 Normal termination of Gaussian 09 at Wed Aug 26 13:38:36 2020.
