 Gaussian 09, Revision D.01,
 Gaussian 09:  ES64L-G09RevD.01 24-Apr-2013

 --------------------
 #p B2PLYPD3/Def2QZVP
 --------------------

 ----------
 butane_opt
 ----------
 Symbolic Z-matrix:
 Charge =  0 Multiplicity = 1

                         Standard orientation:
 ---------------------------------------------------------------------
 Center     Atomic      Atomic             Coordinates (Angstroms)
 Number     Number       Type             X           Y           Z
 ---------------------------------------------------------------------
      1          6           0        1.930502    0.085180    0.016225
      2          6           0        0.609743   -0.466359   -0.001513
      3          1           0        2.747926   -0.772805   -0.306595
      4          1           0        2.129254    1.119227    1.075404
      5          1           0        2.128178    0.394204   -0.599312
      6          6           0       -0.519074    0.525812   -0.077104
      7          1           0        0.473482   -1.134797    1.000056
      8          1           0        0.560317   -1.001119   -0.801895
      9          6           0       -2.034323   -0.154303    0.039132
     10          1           0       -0.448088    1.204870   -1.087496
     11          1           0       -0.446436    1.090980    0.650836
     12          1           0       -2.274579   -0.675474   -0.774329
     13          1           0       -2.749144    0.533281    0.129932
     14          1           0       -2.042002   -0.700345    0.852967
 ---------------------------------------------------------------------

 SCF Done:  E(RB2PLYPD3) =  -157.769157744     A.U. after   11 cycles
 E2(B2PLYPD3) =    -0.2477613256D+00 E(B2PLYPD3) =    -0.15801691906961D+03

 The electronic state is 1-A.
 Alpha  occ. eigenvalues --  -10.60463 -10.60408 -10.59904 -10.57147  -0.93900
 Alpha  occ. eigenvalues --   -0.85759  -0.77572  -0.69431  -0.55941  -0.51348
 Alpha  occ. eigenvalues --   -0.49461  -0.47177  -0.44439  -0.42279  -0.37428
 Alpha  occ. eigenvalues --   -0.37252  -0.36322
 Alpha virt. eigenvalues --    0.04050   0.06682   0.07874   0.08046   0.10567
 Alpha virt. eigenvalues --    0.11384   0.12341   0.13946   0.14771   0.15054
 Alpha virt. eigenvalues --    0.15580   0.16795   0.18968   0.19642   0.21620

 Mulliken charges:
               1
     1  C   -0.519663
     2  C    0.013377
     3  H    0.034964
     4  H    0.011648
     5  H    0.381677
     6  C   -0.096484
     7  H    0.019738
     8  H    0.062460
     9  C   -0.127547
    10  H   -0.001110
    11  H    0.087307
    12  H    0.042137
    13  H    0.037932
    14  H    0.053564
 Sum of Mulliken charges =   0.00000

 Dipole moment (field-independent basis, Debye):
    X=             -0.3559    Y=             -0.0708    Z=             -0.5619  Tot=              0.6689
 Quadrupole moment (field-independent basis, Debye-Ang):
   XX=            -29.7198   YY=            -29.0868   ZZ=            -27.7558
   XY=             -0.2898   XZ=             -1.9088   YZ=              0.6439

 Normal termination of Gaussian 09 at Wed Aug 26 14:35:20 2020.
