 Gaussian 09, Revision D.01,
 Gaussian 09:  ES64L-G09RevD.01 24-Apr-2013

 --------------------
 #p B2PLYPD3/Def2QZVP
 --------------------

 ----------
 butane_opt
 ----------
 Symbolic Z-matrix:
 Charge =  0 Multiplicity = 1

                         Standard orientation:
 ---------------------------------------------------------------------
 Center     Atomic      Atomic             Coordinates (Angstroms)
 Number     Number       Type             X           Y           Z
 ---------------------------------------------------------------------
      1          6           0        1.904340    0.125942    0.061013
      2          6           0        0.630838   -0.480239   -0.070336
      3          1           0        2.711494   -0.781116   -0.273365
      4          1           0        2.217197    1.020468    1.169309
      5          1           0        1.870728    0.341891   -0.510615
      6          6           0       -0.538613    0.540677   -0.058035
      7          1           0        0.491512   -1.114712    0.825905
      8          1           0        0.476815   -1.163381   -1.018774
      9          6           0       -1.986231   -0.150903    0.079086
     10          1           0       -0.301071    1.491156   -1.162904
     11          1           0       -0.468796    0.952277    0.616304
     12          1           0       -2.131741   -0.767624   -0.769135
     13          1           0       -2.835003    0.669200   -0.014586
     14          1           0       -2.093138   -0.861023    1.067496
 ---------------------------------------------------------------------

 SCF Done:  E(RB2PLYPD3) =  -157.430602663     A.U. after   12 cycles
 E2(B2PLYPD3) =    -0.2522963919D+00 E(B2PLYPD3) =    -0.15768289905452D+03

 The electronic state is 1-A.
 Alpha  occ. eigenvalues --  -10.62947 -10.61657 -10.61596 -10.60532  -0.96515
 Alpha  occ. eigenvalues --   -0.86769  -0.74314  -0.68896  -0.55040  -0.48683
 Alpha  occ. eigenvalues --   -0.47203  -0.46887  -0.42549  -0.41141  -0.39935
 Alpha  occ. eigenvalues --   -0.36399  -0.35115
 Alpha virt. eigenvalues --    0.04554   0.05545   0.05993   0.07150   0.10402
 Alpha virt. eigenvalues --    0.11283   0.12084   0.12650   0.14192   0.14848
 Alpha virt. eigenvalues --    0.15313   0.16183   0.18439   0.19350   0.20807

 Mulliken charges:
               1
     1  C   -0.853081
     2  C    0.056494
     3  H    0.066172
     4  H    0.056425
     5  H    0.653367
     6  C   -0.319968
     7  H    0.032907
     8  H    0.026973
     9  C   -0.146230
    10  H   -0.017727
    11  H    0.291621
    12  H    0.058263
    13  H    0.050540
    14  H    0.044244
 Sum of Mulliken charges =   0.00000

 Dipole moment (field-independent basis, Debye):
    X=             -0.1599    Y=             -0.2106    Z=              0.1186  Tot=              0.2898
 Quadrupole moment (field-independent basis, Debye-Ang):
   XX=            -30.5586   YY=            -29.4006   ZZ=            -28.1388
   XY=              0.2431   XZ=             -0.4122   YZ=              0.9602

 Normal termination of Gaussian 09 at Wed Aug 26 18:48:42 2020.
