 Gaussian 09, Revision D.01,
 Gaussian 09:  ES64L-G09RevD.01 24-Apr-2013

 --------------------
 #p B2PLYPD3/Def2QZVP
 --------------------

 ----------
 butane_opt
 ----------
 Symbolic Z-matrix:
 Charge =  0 Multiplicity = 1

                         Standard orientation:
 ---------------------------------------------------------------------
 Center     Atomic      Atomic             Coordinates (Angstroms)
 Number     Number       Type             X           Y           Z
 ---------------------------------------------------------------------
      1          6           0        1.932052    0.046833   -0.175302
      2          6           0        0.657693   -0.482599    0.171540
      3          1           0        2.638141   -0.553024    0.067005
      4          1           0        2.225235    0.499783    0.649729
      5          1           0        1.929412    0.739241   -1.091245
      6          6           0       -0.544867    0.698223    0.153967
      7          1           0        0.809970   -1.010312    1.075678
      8          1           0        0.377085   -1.451722   -0.898560
      9          6           0       -2.025710   -0.240955   -0.107868
     10          1           0       -0.318199    1.061986   -0.636350
     11          1           0       -0.465984    1.525307    1.018702
     12          1           0       -1.990866   -0.567102   -0.703307
     13          1           0       -2.706819    0.571614   -0.646805
     14          1           0       -2.612988   -0.944783    0.911136
 ---------------------------------------------------------------------

 SCF Done:  E(RB2PLYPD3) =  -157.629326868     A.U. after   11 cycles
 E2(B2PLYPD3) =    -0.2522527557D+00 E(B2PLYPD3) =    -0.15788157962417D+03

 The electronic state is 1-A.
 Alpha  occ. eigenvalues --  -10.63814 -10.62879 -10.61169 -10.57440  -0.92159
 Alpha  occ. eigenvalues --   -0.86620  -0.77760  -0.67380  -0.55484  -0.49661
 Alpha  occ. eigenvalues --   -0.47827  -0.45518  -0.44225  -0.42124  -0.39995
 Alpha  occ. eigenvalues --   -0.34632  -0.32989
 Alpha virt. eigenvalues --    0.05082   0.06062   0.06922   0.08418   0.09778
 Alpha virt. eigenvalues --    0.10940   0.12104   0.12947   0.14672   0.15000
 Alpha virt. eigenvalues --    0.16241   0.16844   0.18111   0.18709   0.20197

 Mulliken charges:
               1
     1  C   -0.133414
     2  C   -0.025144
     3  H    0.055537
     4  H    0.037607
     5  H    0.048713
     6  C   -0.158650
     7  H    0.051647
     8  H   -0.043616
     9  C   -0.624318
    10  H    0.151773
    11  H    0.046023
    12  H    0.489561
    13  H    0.037297
    14  H    0.066981
 Sum of Mulliken charges =   0.00000

 Dipole moment (field-independent basis, Debye):
    X=              0.7407    Y=              0.4480    Z=              0.2686  Tot=              0.9064
 Quadrupole moment (field-independent basis, Debye-Ang):
   XX=            -29.4067   YY=            -29.5250   ZZ=            -27.6549
   XY=              0.3922   XZ=              1.7642   YZ=             -1.1089

 Normal termination of Gaussian 09 at Wed Aug 26 22:40:35 2020.
