 Gaussian 09, Revision D.01,
 Gaussian 09:  ES64L-G09RevD.01 24-Apr-2013

 --------------------
 #p B2PLYPD3/Def2QZVP
 --------------------

 ----------
 butane_opt
 ----------
 Symbolic Z-matrix:
 Charge =  0 Multiplicity = 1

                         Standard orientation:
 ---------------------------------------------------------------------
 Center     Atomic      Atomic             Coordinates (Angstroms)
 Number     Number       Type             X           Y           Z
 ---------------------------------------------------------------------
      1          6           0       -1.860000    0.069351   -0.142073
      2          6           0       -0.603989   -0.423546    0.048162
      3          1           0       -2.663009   -0.670262   -0.204782
      4          1           0       -1.870270    0.690676   -0.939361
      5          1           0       -1.876887    0.672283    0.822813
      6          6           0        0.464856    0.449045    0.252439
      7          1           0       -0.484132   -0.762126   -0.700303
      8          1           0       -0.653045   -1.308785    0.934847
      9          6           0        1.961481   -0.177101   -0.145068
     10          1           0        0.497037    1.394607    1.301102
     11          1           0        0.216140    1.136185   -0.508643
     12          1           0        2.569897   -1.072280    0.880351
     13          1           0        2.755927    0.700948   -0.785722
     14          1           0        1.734249   -0.287733   -0.881061
 ---------------------------------------------------------------------

 SCF Done:  E(RB2PLYPD3) =  -157.694029717     A.U. after   12 cycles
 E2(B2PLYPD3) =    -0.2543200562D+00 E(B2PLYPD3) =    -0.15794834977281D+03

 The electronic state is 1-A.
 Alpha  occ. eigenvalues --  -10.64044 -10.63836 -10.58764 -10.57777  -0.98304
 Alpha  occ. eigenvalues --   -0.86456  -0.75922  -0.67815  -0.57873  -0.52422
 Alpha  occ. eigenvalues --   -0.49488  -0.47607  -0.40864  -0.40210  -0.38019
 Alpha  occ. eigenvalues --   -0.35229  -0.34855
 Alpha virt. eigenvalues --    0.03606   0.05972   0.06575   0.07565   0.08790
 Alpha virt. eigenvalues --    0.10822   0.11941   0.12576   0.13856   0.15304
 Alpha virt. eigenvalues --    0.16368   0.16556   0.18340   0.19483   0.19903

 Mulliken charges:
               1
     1  C   -0.142228
     2  C   -0.187547
     3  H    0.058382
     4  H    0.041445
     5  H    0.042691
     6  C   -0.042539
     7  H    0.210067
     8  H   -0.001338
     9  C   -0.494457
    10  H    0.002230
    11  H    0.045192
    12  H    0.083315
    13  H    0.015355
    14  H    0.369432
 Sum of Mulliken charges =   0.00000

 Dipole moment (field-independent basis, Debye):
    X=             -0.3655    Y=             -0.3478    Z=             -0.9800  Tot=              1.1022
 Quadrupole moment (field-independent basis, Debye-Ang):
   XX=            -30.7845   YY=            -30.1613   ZZ=            -28.0791
   XY=              0.0691   XZ=              0.4379   YZ=             -1.0317

 Normal termination of Gaussian 09 at Wed Aug 26 16:36:46 2020.
