 Gaussian 09, Revision D.01,
 Gaussian 09:  ES64L-G09RevD.01 24-Apr-2013

 --------------------
 #p B2PLYPD3/Def2QZVP
 --------------------

 ----------
 butane_opt
 ----------
 Symbolic Z-matrix:
 Charge =  0 Multiplicity = 1

                         Standard orientation:
 ---------------------------------------------------------------------
 Center     Atomic      Atomic             Coordinates (Angstroms)
 Number     Number       Type             X           Y           Z
 ---------------------------------------------------------------------
      1          6           0       -1.979489   -0.105538   -0.115119
      2          6           0       -0.553392    0.583535    0.196605
      3          1           0       -2.653443    0.415551   -0.760430
      4          1           0       -2.596324   -0.785290    0.846244
      5          1           0       -1.893494   -1.002925   -1.205095
      6          6           0        0.572061   -0.478304    0.149764
      7          1           0       -0.491841    1.717197    1.187790
      8          1           0       -0.288306    0.974723   -0.561213
      9          6           0        1.988054    0.060951   -0.153780
     10          1           0        0.317535   -0.911392   -0.506610
     11          1           0        0.490909   -1.379093    1.247229
     12          1           0        2.110488    0.863305   -1.256769
     13          1           0        2.701772   -0.744868   -0.065951
     14          1           0        2.139300    0.488928    0.609982
 ---------------------------------------------------------------------

 SCF Done:  E(RB2PLYPD3) =  -157.753560697     A.U. after   11 cycles
 E2(B2PLYPD3) =    -0.2544414805D+00 E(B2PLYPD3) =    -0.15800800217728D+03

 The electronic state is 1-A.
 Alpha  occ. eigenvalues --  -10.66537 -10.64107 -10.61625 -10.60821  -0.93349
 Alpha  occ. eigenvalues --   -0.83220  -0.74377  -0.68643  -0.52993  -0.50426
 Alpha  occ. eigenvalues --   -0.46376  -0.45252  -0.41474  -0.41049  -0.39158
 Alpha  occ. eigenvalues --   -0.35858  -0.34967
 Alpha virt. eigenvalues --    0.04070   0.04685   0.05640   0.07070   0.10097
 Alpha virt. eigenvalues --    0.10891   0.11528   0.12914   0.13870   0.13996
 Alpha virt. eigenvalues --    0.15379   0.16257   0.18543   0.18967   0.20116

 Mulliken charges:
               1
     1  C   -0.168122
     2  C   -0.156161
     3  H    0.073777
     4  H    0.059939
     5  H   -0.013104
     6  C   -0.241855
     7  H    0.003926
     8  H    0.183776
     9  C   -0.210052
    10  H    0.257299
    11  H   -0.011754
    12  H    0.028507
    13  H    0.056539
    14  H    0.137285
 Sum of Mulliken charges =   0.00000

 Dipole moment (field-independent basis, Debye):
    X=              0.1243    Y=              0.1692    Z=             -0.5471  Tot=              0.5860
 Quadrupole moment (field-independent basis, Debye-Ang):
   XX=            -29.2772   YY=            -30.4155   ZZ=            -29.0742
   XY=             -0.0509   XZ=              0.8131   YZ=             -0.6990

 Normal termination of Gaussian 09 at Wed Aug 26 12:07:13 2020.
