 Gaussian 09, Revision D.01,
 Gaussian 09:  ES64L-G09RevD.01 24-Apr-2013

 --------------------
 #p B2PLYPD3/Def2QZVP
 --------------------

 ----------
 butane_opt
 ----------
 Symbolic Z-matrix:
 Charge =  0 Multiplicity = 1

                         Standard orientation:
 ---------------------------------------------------------------------
 Center     Atomic      Atomic             Coordinates (Angstroms)
 Number     Number       Type             X           Y           Z
 ---------------------------------------------------------------------
      1          6           0       -1.862623    0.028607   -0.168801
      2          6           0       -0.536919   -0.502385    0.189727
      3          1           0       -2.559435   -0.781007   -0.448538
      4          1           0       -1.731014    0.699436   -1.167974
      5          1           0       -2.007530    0.837962    0.643421
      6          6           0        0.436256    0.594629    0.155244
      7          1           0       -0.403465   -0.885569   -0.329535
      8          1           0       -0.831541   -1.081946    1.218480
      9          6           0        1.952381   -0.132304   -0.098966
     10          1           0        0.175259    1.557543    1.217430
     11          1           0        0.351303    0.874005   -0.663151
     12          1           0        2.724100   -0.862230    0.841103
     13          1           0        2.742290    0.497202   -0.829459
     14          1           0        1.605465   -0.786682   -0.945004
 ---------------------------------------------------------------------

 SCF Done:  E(RB2PLYPD3) =  -157.600217862     A.U. after   12 cycles
 E2(B2PLYPD3) =    -0.2542234216D+00 E(B2PLYPD3) =    -0.15785444128329D+03

 The electronic state is 1-A.
 Alpha  occ. eigenvalues --  -10.66263 -10.63605 -10.61673 -10.57498  -0.97294
 Alpha  occ. eigenvalues --   -0.82432  -0.72222  -0.70248  -0.57810  -0.49879
 Alpha  occ. eigenvalues --   -0.48154  -0.44539  -0.42063  -0.39345  -0.37781
 Alpha  occ. eigenvalues --   -0.37345  -0.36511
 Alpha virt. eigenvalues --    0.04416   0.05044   0.07165   0.08209   0.10011
 Alpha virt. eigenvalues --    0.11108   0.11714   0.12450   0.13553   0.15029
 Alpha virt. eigenvalues --    0.15539   0.17353   0.17731   0.18933   0.20186

 Mulliken charges:
               1
     1  C   -0.109487
     2  C   -0.662060
     3  H    0.058622
     4  H    0.002850
     5  H    0.060659
     6  C   -0.160696
     7  H    0.579282
     8  H    0.051547
     9  C   -0.191483
    10  H    0.019604
    11  H    0.211432
    12  H    0.048655
    13  H    0.035768
    14  H    0.055309
 Sum of Mulliken charges =   0.00000

 Dipole moment (field-independent basis, Debye):
    X=             -0.2982    Y=             -0.4017    Z=             -0.6066  Tot=              0.7863
 Quadrupole moment (field-independent basis, Debye-Ang):
   XX=            -31.2720   YY=            -29.7987   ZZ=            -28.3268
   XY=              0.4328   XZ=             -0.8114   YZ=              0.2339

 Normal termination of Gaussian 09 at Wed Aug 26 22:15:49 2020.
