 Gaussian 09, Revision D.01,
 Gaussian 09:  ES64L-G09RevD.01 24-Apr-2013

 --------------------
 #p B2PLYPD3/Def2QZVP
 --------------------

 ----------
 butane_opt
 ----------
 Symbolic Z-matrix:
 Charge =  0 Multiplicity = 1

                         Standard orientation:
 ---------------------------------------------------------------------
 Center     Atomic      Atomic             Coordinates (Angstroms)
 Number     Number       Type             X           Y           Z
 ---------------------------------------------------------------------
      1          6           0       -1.869105   -0.144603    0.042642
      2          6           0       -0.552021    0.568928   -0.060986
      3          1           0       -2.623022    0.490054   -0.054585
      4          1           0       -2.132105   -0.698366    0.969553
      5          1           0       -2.045432   -0.679381   -0.851027
      6          6           0        0.516875   -0.490758    0.020241
      7          1           0       -0.366581    0.999199    0.758213
      8          1           0       -0.176080    1.476331   -1.191765
      9          6           0        1.891557    0.054523   -0.036788
     10          1           0        0.446941   -1.210980   -0.841349
     11          1           0        0.393594   -1.117424    0.994303
     12          1           0        1.807880    0.233836   -0.561796
     13          1           0        2.711960   -0.663621   -0.231563
     14          1           0        2.059008    1.241814    1.219366
 ---------------------------------------------------------------------

 SCF Done:  E(RB2PLYPD3) =  -157.309473156     A.U. after   12 cycles
 E2(B2PLYPD3) =    -0.2531836446D+00 E(B2PLYPD3) =    -0.15756265680056D+03

 The electronic state is 1-A.
 Alpha  occ. eigenvalues --  -10.62721 -10.62163 -10.61865 -10.59061  -0.96663
 Alpha  occ. eigenvalues --   -0.88812  -0.76753  -0.67206  -0.55313  -0.51643
 Alpha  occ. eigenvalues --   -0.49771  -0.47217  -0.43381  -0.41152  -0.39053
 Alpha  occ. eigenvalues --   -0.36343  -0.34232
 Alpha virt. eigenvalues --    0.01968   0.04922   0.06094   0.07258   0.10234
 Alpha virt. eigenvalues --    0.10826   0.12555   0.12753   0.13928   0.15494
 Alpha virt. eigenvalues --    0.15884   0.16794   0.18578   0.19421   0.20929

 Mulliken charges:
               1
     1  C   -0.114642
     2  C   -0.116708
     3  H    0.040079
     4  H    0.050144
     5  H    0.040032
     6  C    0.046064
     7  H    0.112419
     8  H   -0.002131
     9  C   -0.895258
    10  H    0.022824
    11  H    0.028176
    12  H    0.703155
    13  H    0.110039
    14  H   -0.024194
 Sum of Mulliken charges =   0.00000

 Dipole moment (field-independent basis, Debye):
    X=             -0.5949    Y=             -0.6372    Z=             -0.3019  Tot=              0.9225
 Quadrupole moment (field-independent basis, Debye-Ang):
   XX=            -29.5621   YY=            -30.0969   ZZ=            -28.0548
   XY=             -1.1557   XZ=             -1.8547   YZ=              0.3730

 Normal termination of Gaussian 09 at Wed Aug 26 20:49:57 2020.
