 Gaussian 09, Revision D.01,
 Gaussian 09:  ES64L-G09RevD.01 24-Apr-2013

 --------------------
 #p B2PLYPD3/Def2QZVP
 --------------------

 ----------
 butane_opt
 ----------
 Symbolic Z-matrix:
 Charge =  0 Multiplicity = 1

                         Standard orientation:
 ---------------------------------------------------------------------
 Center     Atomic      Atomic             Coordinates (Angstroms)
 Number     Number       Type             X           Y           Z
 ---------------------------------------------------------------------
      1          6           0       -1.941362   -0.047889    0.001088
      2          6           0       -0.619398    0.453553   -0.114308
      3          1           0       -2.676935    0.548773    0.161761
      4          1           0       -1.893538   -0.747013    1.045989
      5          1           0       -2.301147   -0.468921   -0.749573
      6          6           0        0.508505   -0.670873    0.044805
      7          1           0       -0.709006    1.102174    0.660047
      8          1           0       -0.474990    1.255275   -1.044514
      9          6           0        2.070757    0.180084    0.028496
     10          1           0        0.635123   -1.098340   -0.676215
     11          1           0        0.346505   -1.201740    0.852721
     12          1           0        1.918269    0.260481   -0.466766
     13          1           0        2.696073   -0.331952   -0.817404
     14          1           0        2.348629    1.192016    1.273467
 ---------------------------------------------------------------------

 SCF Done:  E(RB2PLYPD3) =  -156.991269917     A.U. after   13 cycles
 E2(B2PLYPD3) =    -0.2544878157D+00 E(B2PLYPD3) =    -0.15724575773271D+03

 The electronic state is 1-A.
 Alpha  occ. eigenvalues --  -10.64417 -10.60929 -10.59901 -10.57797  -0.95450
 Alpha  occ. eigenvalues --   -0.90872  -0.79945  -0.70316  -0.55910  -0.52300
 Alpha  occ. eigenvalues --   -0.50242  -0.45851  -0.43525  -0.39191  -0.38196
 Alpha  occ. eigenvalues --   -0.36401  -0.33268
 Alpha virt. eigenvalues --    0.01735   0.05931   0.06382   0.08103   0.09912
 Alpha virt. eigenvalues --    0.10349   0.11880   0.12970   0.14220   0.15900
 Alpha virt. eigenvalues --    0.16219   0.17280   0.18011   0.19005   0.21413

 Mulliken charges:
               1
     1  C   -0.114942
     2  C   -0.031506
     3  H    0.032976
     4  H    0.011933
     5  H    0.041858
     6  C   -0.171341
     7  H    0.058335
     8  H   -0.007258
     9  C   -1.107057
    10  H    0.156980
    11  H    0.081799
    12  H    0.948572
    13  H    0.022179
    14  H    0.077471
 Sum of Mulliken charges =   0.00000

 Dipole moment (field-independent basis, Debye):
    X=             -0.9394    Y=              0.2496    Z=             -0.4662  Tot=              1.0780
 Quadrupole moment (field-independent basis, Debye-Ang):
   XX=            -31.0633   YY=            -28.9864   ZZ=            -26.5264
   XY=             -0.0580   XZ=             -0.9815   YZ=              1.1621

 Normal termination of Gaussian 09 at Wed Aug 26 11:00:21 2020.
