 Gaussian 09, Revision D.01,
 Gaussian 09:  ES64L-G09RevD.01 24-Apr-2013

 --------------------
 #p B2PLYPD3/Def2QZVP
 --------------------

 ----------
 butane_opt
 ----------
 Symbolic Z-matrix:
 Charge =  0 Multiplicity = 1

                         Standard orientation:
 ---------------------------------------------------------------------
 Center     Atomic      Atomic             Coordinates (Angstroms)
 Number     Number       Type             X           Y           Z
 ---------------------------------------------------------------------
      1          6           0       -2.024448   -0.230031   -0.130986
      2          6           0       -0.606503    0.548988    0.026305
      3          1           0       -2.666606    0.517426   -0.110189
      4          1           0       -2.209235   -0.388868    0.584109
      5          1           0       -2.118499   -1.107521   -0.856105
      6          6           0        0.626590   -0.347302    0.366038
      7          1           0       -0.418313    1.556946    0.805356
      8          1           0       -0.094477    0.944775   -0.949354
      9          6           0        1.922491    0.015980   -0.164721
     10          1           0        0.613980   -1.220578   -0.351449
     11          1           0        0.649006   -0.740089    1.502807
     12          1           0        1.764743    0.450033   -1.286452
     13          1           0        2.758042   -0.846635   -0.386430
     14          1           0        2.212568    0.908703    0.467888
 ---------------------------------------------------------------------

 SCF Done:  E(RB2PLYPD3) =  -157.857321494     A.U. after   11 cycles
 E2(B2PLYPD3) =    -0.2521688747D+00 E(B2PLYPD3) =    -0.15810949036914D+03

 The electronic state is 1-A.
 Alpha  occ. eigenvalues --  -10.64426 -10.62648 -10.61409 -10.57441  -0.91692
 Alpha  occ. eigenvalues --   -0.87361  -0.73676  -0.63349  -0.53890  -0.50614
 Alpha  occ. eigenvalues --   -0.48793  -0.48672  -0.42603  -0.41402  -0.38022
 Alpha  occ. eigenvalues --   -0.35799  -0.33816
 Alpha virt. eigenvalues --    0.05331   0.06511   0.07502   0.08203   0.10478
 Alpha virt. eigenvalues --    0.11241   0.12369   0.14229   0.14690   0.15209
 Alpha virt. eigenvalues --    0.15247   0.15949   0.18781   0.19491   0.20528

 Mulliken charges:
               1
     1  C   -0.408523
     2  C   -0.048128
     3  H    0.049736
     4  H    0.302210
     5  H    0.079500
     6  C   -0.013100
     7  H    0.007698
     8  H    0.026606
     9  C   -0.149902
    10  H    0.017745
    11  H    0.020691
    12  H    0.021508
    13  H    0.057660
    14  H    0.036299
 Sum of Mulliken charges =   0.00000

 Dipole moment (field-independent basis, Debye):
    X=             -0.4087    Y=             -0.3160    Z=              0.0342  Tot=              0.5177
 Quadrupole moment (field-independent basis, Debye-Ang):
   XX=            -28.8638   YY=            -29.4865   ZZ=            -28.8110
   XY=             -0.1419   XZ=             -1.0213   YZ=              1.2426

 Normal termination of Gaussian 09 at Wed Aug 26 13:49:19 2020.
