 Gaussian 09, Revision D.01,
 Gaussian 09:  ES64L-G09RevD.01 24-Apr-2013

 --------------------
 #p B2PLYPD3/Def2QZVP
 --------------------

 ----------
 butane_opt
 ----------
 Symbolic Z-matrix:
 Charge =  0 Multiplicity = 1

                         Standard orientation:
 ---------------------------------------------------------------------
 Center     Atomic      Atomic             Coordinates (Angstroms)
 Number     Number       Type             X           Y           Z
 ---------------------------------------------------------------------
      1          6           0       -1.913013   -0.123903    0.151321
      2          6           0       -0.516665    0.522515   -0.323354
      3          1           0       -2.575762    0.548095    0.889783
      4          1           0       -1.827744   -0.552991    1.007765
      5          1           0       -2.653357   -0.868003   -0.779697
      6          6           0        0.598293   -0.488360   -0.163766
      7          1           0       -0.226209    1.161079    0.446619
      8          1           0       -0.524321    1.235813   -1.322477
      9          6           0        1.885230    0.068594    0.162786
     10          1           0        0.861979   -1.208216   -1.051523
     11          1           0        0.023471   -1.125651    0.903194
     12          1           0        2.067589    0.616898   -0.615940
     13          1           0        2.670833   -0.764359    0.258387
     14          1           0        1.860455    1.084255    1.301963
 ---------------------------------------------------------------------

 SCF Done:  E(RB2PLYPD3) =  -157.894616045     A.U. after   11 cycles
 E2(B2PLYPD3) =    -0.2553205117D+00 E(B2PLYPD3) =    -0.15814993655705D+03

 The electronic state is 1-A.
 Alpha  occ. eigenvalues --  -10.64216 -10.63274 -10.63153 -10.63126  -0.92756
 Alpha  occ. eigenvalues --   -0.83914  -0.73764  -0.64323  -0.53345  -0.51303
 Alpha  occ. eigenvalues --   -0.48735  -0.45104  -0.42180  -0.38221  -0.37580
 Alpha  occ. eigenvalues --   -0.36704  -0.33954
 Alpha virt. eigenvalues --    0.04016   0.05425   0.06704   0.07175   0.09844
 Alpha virt. eigenvalues --    0.10234   0.11544   0.12368   0.13584   0.14444
 Alpha virt. eigenvalues --    0.16262   0.16733   0.18197   0.18998   0.19585

 Mulliken charges:
               1
     1  C   -0.198883
     2  C   -0.062520
     3  H    0.021545
     4  H    0.101431
     5  H    0.041088
     6  C   -0.030030
     7  H    0.075880
     8  H    0.026941
     9  C   -0.169648
    10  H    0.045613
    11  H    0.001504
    12  H    0.098808
    13  H    0.067068
    14  H   -0.018797
 Sum of Mulliken charges =   0.00000

 Dipole moment (field-independent basis, Debye):
    X=              0.3399    Y=             -0.1006    Z=             -0.2110  Tot=              0.4125
 Quadrupole moment (field-independent basis, Debye-Ang):
   XX=            -31.1428   YY=            -30.5765   ZZ=            -28.6288
   XY=             -0.3059   XZ=             -2.5440   YZ=              0.3208

 Normal termination of Gaussian 09 at Wed Aug 26 16:39:39 2020.
