 Gaussian 09, Revision D.01,
 Gaussian 09:  ES64L-G09RevD.01 24-Apr-2013

 --------------------
 #p B2PLYPD3/Def2QZVP
 --------------------

 ----------
 butane_opt
 ----------
 Symbolic Z-matrix:
 Charge =  0 Multiplicity = 1

                         Standard orientation:
 ---------------------------------------------------------------------
 Center     Atomic      Atomic             Coordinates (Angstroms)
 Number     Number       Type             X           Y           Z
 ---------------------------------------------------------------------
      1          6           0       -1.881882   -0.159908   -0.103213
      2          6           0       -0.564059    0.480497    0.189760
      3          1           0       -2.791707    0.697594   -0.900579
      4          1           0       -2.511281   -1.057630    0.915798
      5          1           0       -1.757681   -0.273403   -0.703390
      6          6           0        0.556321   -0.503888    0.082104
      7          1           0       -0.211627    1.409353    1.383971
      8          1           0       -0.398109    1.101193   -0.550246
      9          6           0        1.851738    0.094367   -0.170333
     10          1           0        0.407598   -1.012522   -0.830328
     11          1           0        0.769033   -1.149462    1.028740
     12          1           0        1.981812    0.663515   -0.892112
     13          1           0        2.662036   -0.578830   -0.215277
     14          1           0        2.077225    0.733784    0.773512
 ---------------------------------------------------------------------

 SCF Done:  E(RB2PLYPD3) =  -157.474533227     A.U. after   12 cycles
 E2(B2PLYPD3) =    -0.2547680061D+00 E(B2PLYPD3) =    -0.15772930123279D+03

 The electronic state is 1-A.
 Alpha  occ. eigenvalues --  -10.64459 -10.64217 -10.61208 -10.57988  -0.96733
 Alpha  occ. eigenvalues --   -0.89326  -0.76384  -0.67661  -0.55903  -0.53386
 Alpha  occ. eigenvalues --   -0.50595  -0.46789  -0.41742  -0.41149  -0.38614
 Alpha  occ. eigenvalues --   -0.35744  -0.33602
 Alpha virt. eigenvalues --    0.02387   0.05080   0.05791   0.06903   0.09059
 Alpha virt. eigenvalues --    0.10261   0.11896   0.12603   0.14308   0.15046
 Alpha virt. eigenvalues --    0.16122   0.16902   0.17109   0.19226   0.20258

 Mulliken charges:
               1
     1  C   -0.871579
     2  C   -0.011886
     3  H   -0.010343
     4  H    0.081921
     5  H    0.719758
     6  C   -0.024094
     7  H   -0.031973
     8  H    0.092547
     9  C   -0.135255
    10  H    0.043825
    11  H    0.039851
    12  H    0.048152
    13  H    0.037480
    14  H    0.021597
 Sum of Mulliken charges =   0.00000

 Dipole moment (field-independent basis, Debye):
    X=              0.7081    Y=             -0.6918    Z=             -0.8537  Tot=              1.3072
 Quadrupole moment (field-independent basis, Debye-Ang):
   XX=            -31.1897   YY=            -30.3898   ZZ=            -28.1339
   XY=              1.0351   XZ=             -0.0953   YZ=             -1.4606

 Normal termination of Gaussian 09 at Wed Aug 26 15:20:57 2020.
