 Gaussian 09, Revision D.01,
 Gaussian 09:  ES64L-G09RevD.01 24-Apr-2013

 --------------------
 #p B2PLYPD3/Def2QZVP
 --------------------

 ----------
 butane_opt
 ----------
 Symbolic Z-matrix:
 Charge =  0 Multiplicity = 1

                         Standard orientation:
 ---------------------------------------------------------------------
 Center     Atomic      Atomic             Coordinates (Angstroms)
 Number     Number       Type             X           Y           Z
 ---------------------------------------------------------------------
      1          6           0       -1.985566   -0.213075   -0.082974
      2          6           0       -0.545207    0.592075    0.200659
      3          1           0       -2.723771    0.441600   -0.606534
      4          1           0       -2.631831   -0.624906    0.714907
      5          1           0       -1.921668   -0.649718   -0.791644
      6          6           0        0.671047   -0.444996    0.092257
      7          1           0       -0.339898    1.100941    1.143731
      8          1           0       -0.487347    1.365185   -0.758597
      9          6           0        1.897938    0.038304   -0.119448
     10          1           0        0.628645   -1.101621   -0.762784
     11          1           0        0.550244   -1.206616    1.035323
     12          1           0        1.844635    0.803690   -1.070774
     13          1           0        2.503852   -0.713681   -0.194754
     14          1           0        2.347864    0.751281    0.748161
 ---------------------------------------------------------------------

 SCF Done:  E(RB2PLYPD3) =  -157.948929869     A.U. after   11 cycles
 E2(B2PLYPD3) =    -0.2491966161D+00 E(B2PLYPD3) =    -0.15819812648528D+03

 The electronic state is 1-A.
 Alpha  occ. eigenvalues --  -10.63926 -10.60742 -10.59865 -10.58480  -0.93058
 Alpha  occ. eigenvalues --   -0.85245  -0.74498  -0.64721  -0.53587  -0.52642
 Alpha  occ. eigenvalues --   -0.50272  -0.46950  -0.43765  -0.40865  -0.38423
 Alpha  occ. eigenvalues --   -0.36157  -0.34603
 Alpha virt. eigenvalues --    0.05687   0.06701   0.07430   0.08422   0.10353
 Alpha virt. eigenvalues --    0.11806   0.12520   0.13074   0.14740   0.15615
 Alpha virt. eigenvalues --    0.15975   0.16789   0.18669   0.18946   0.21729

 Mulliken charges:
               1
     1  C   -0.260093
     2  C   -0.085758
     3  H    0.012994
     4  H    0.063945
     5  H    0.175981
     6  C   -0.007363
     7  H    0.069700
     8  H    0.011845
     9  C   -0.133186
    10  H    0.032281
    11  H    0.008524
    12  H    0.032976
    13  H    0.074640
    14  H    0.003514
 Sum of Mulliken charges =   0.00000

 Dipole moment (field-independent basis, Debye):
    X=             -0.0601    Y=             -0.3372    Z=             -0.2699  Tot=              0.4361
 Quadrupole moment (field-independent basis, Debye-Ang):
   XX=            -29.3648   YY=            -29.4923   ZZ=            -28.0923
   XY=             -0.4038   XZ=              0.3860   YZ=              0.1129

 Normal termination of Gaussian 09 at Wed Aug 26 12:37:14 2020.
