 Gaussian 09, Revision D.01,
 Gaussian 09:  ES64L-G09RevD.01 24-Apr-2013

 --------------------
 #p B2PLYPD3/Def2QZVP
 --------------------

 ----------
 butane_opt
 ----------
 Symbolic Z-matrix:
 Charge =  0 Multiplicity = 1

                         Standard orientation:
 ---------------------------------------------------------------------
 Center     Atomic      Atomic             Coordinates (Angstroms)
 Number     Number       Type             X           Y           Z
 ---------------------------------------------------------------------
      1          6           0       -2.029355   -0.128234   -0.099925
      2          6           0       -0.528644    0.525134    0.164053
      3          1           0       -2.723186    0.543457   -0.318244
      4          1           0       -2.249357   -0.882470    0.744069
      5          1           0       -2.085873   -0.654583   -0.938869
      6          6           0        0.628378   -0.466465    0.060100
      7          1           0       -0.358773    1.339014    1.156970
      8          1           0       -0.424420    1.045052   -0.629490
      9          6           0        1.944795    0.084812   -0.117241
     10          1           0        0.321214   -0.942857   -0.605237
     11          1           0        0.590799   -1.235967    0.966897
     12          1           0        2.077473    0.812649   -1.052836
     13          1           0        2.732132   -0.701764   -0.051040
     14          1           0        2.028948    0.585991    0.685859
 ---------------------------------------------------------------------

 SCF Done:  E(RB2PLYPD3) =  -157.977939755     A.U. after   11 cycles
 E2(B2PLYPD3) =    -0.2466725207D+00 E(B2PLYPD3) =    -0.15822461227579D+03

 The electronic state is 1-A.
 Alpha  occ. eigenvalues --  -10.61542 -10.59417 -10.58954 -10.58146  -0.93016
 Alpha  occ. eigenvalues --   -0.84113  -0.75625  -0.68406  -0.54336  -0.50318
 Alpha  occ. eigenvalues --   -0.49422  -0.46903  -0.44704  -0.42177  -0.38399
 Alpha  occ. eigenvalues --   -0.37281  -0.37067
 Alpha virt. eigenvalues --    0.05749   0.06838   0.08218   0.08657   0.11173
 Alpha virt. eigenvalues --    0.12211   0.12827   0.13854   0.14943   0.15273
 Alpha virt. eigenvalues --    0.15720   0.16545   0.19716   0.19877   0.21009

 Mulliken charges:
               1
     1  C   -0.135620
     2  C   -0.099221
     3  H    0.054053
     4  H    0.042761
     5  H    0.041817
     6  C   -0.110997
     7  H    0.001282
     8  H    0.081287
     9  C   -0.146476
    10  H    0.120177
    11  H    0.000558
    12  H    0.027334
    13  H    0.044239
    14  H    0.078807
 Sum of Mulliken charges =   0.00000

 Dipole moment (field-independent basis, Debye):
    X=             -0.0708    Y=             -0.1225    Z=             -0.5053  Tot=              0.5247
 Quadrupole moment (field-independent basis, Debye-Ang):
   XX=            -28.9235   YY=            -28.8877   ZZ=            -28.1721
   XY=             -0.1050   XZ=              1.3752   YZ=             -0.4281

 Normal termination of Gaussian 09 at Wed Aug 26 22:48:28 2020.
