 Gaussian 09, Revision D.01,
 Gaussian 09:  ES64L-G09RevD.01 24-Apr-2013

 --------------------
 #p B2PLYPD3/Def2QZVP
 --------------------

 ----------
 butane_opt
 ----------
 Symbolic Z-matrix:
 Charge =  0 Multiplicity = 1

                         Standard orientation:
 ---------------------------------------------------------------------
 Center     Atomic      Atomic             Coordinates (Angstroms)
 Number     Number       Type             X           Y           Z
 ---------------------------------------------------------------------
      1          6           0        1.935517   -0.061511   -0.131474
      2          6           0        0.638236    0.481657    0.140326
      3          1           0        2.521615    0.494015   -0.762814
      4          1           0        1.687077   -0.311377   -0.822123
      5          1           0        2.541262   -0.925660    0.733831
      6          6           0       -0.598910   -0.598310    0.073467
      7          1           0        0.382901    0.764212   -0.492270
      8          1           0        0.799953    1.641714    1.405742
      9          6           0       -2.011758    0.139260   -0.044128
     10          1           0       -0.330005   -1.370276    0.993012
     11          1           0       -0.424405   -1.310662   -0.723118
     12          1           0       -2.205244    0.593208    0.741564
     13          1           0       -2.561276   -0.454054   -0.087715
     14          1           0       -2.190391    1.112307   -1.215256
 ---------------------------------------------------------------------

 SCF Done:  E(RB2PLYPD3) =  -157.456364708     A.U. after   12 cycles
 E2(B2PLYPD3) =    -0.2543572763D+00 E(B2PLYPD3) =    -0.15771072198447D+03

 The electronic state is 1-A.
 Alpha  occ. eigenvalues --  -10.64574 -10.62479 -10.60598 -10.58661  -0.97872
 Alpha  occ. eigenvalues --   -0.88424  -0.79159  -0.69753  -0.55634  -0.54245
 Alpha  occ. eigenvalues --   -0.48774  -0.45601  -0.44208  -0.42851  -0.38963
 Alpha  occ. eigenvalues --   -0.35134  -0.31672
 Alpha virt. eigenvalues --    0.02847   0.04046   0.05667   0.07833   0.09498
 Alpha virt. eigenvalues --    0.10813   0.11522   0.13174   0.13869   0.14737
 Alpha virt. eigenvalues --    0.15492   0.16997   0.17709   0.18537   0.20133

 Mulliken charges:
               1
     1  C   -0.412647
     2  C   -0.495385
     3  H    0.052282
     4  H    0.342585
     5  H    0.057678
     6  C   -0.045595
     7  H    0.483786
     8  H   -0.056136
     9  C   -0.299209
    10  H    0.025371
    11  H    0.042735
    12  H    0.093554
    13  H    0.211327
    14  H   -0.000346
 Sum of Mulliken charges =   0.00000

 Dipole moment (field-independent basis, Debye):
    X=             -0.2425    Y=             -1.0648    Z=             -1.0949  Tot=              1.5464
 Quadrupole moment (field-independent basis, Debye-Ang):
   XX=            -28.4582   YY=            -30.4509   ZZ=            -28.7708
   XY=             -0.2303   XZ=             -1.8200   YZ=             -1.3408

 Normal termination of Gaussian 09 at Wed Aug 26 21:53:39 2020.
