 Gaussian 09, Revision D.01,
 Gaussian 09:  ES64L-G09RevD.01 24-Apr-2013

 --------------------
 #p B2PLYPD3/Def2QZVP
 --------------------

 ----------
 butane_opt
 ----------
 Symbolic Z-matrix:
 Charge =  0 Multiplicity = 1

                         Standard orientation:
 ---------------------------------------------------------------------
 Center     Atomic      Atomic             Coordinates (Angstroms)
 Number     Number       Type             X           Y           Z
 ---------------------------------------------------------------------
      1          6           0       -1.894853   -0.124797    0.079314
      2          6           0       -0.546084    0.547951   -0.226432
      3          1           0       -2.729728    0.482715    0.428529
      4          1           0       -1.719383   -0.618415    1.030807
      5          1           0       -2.778873   -0.796436   -0.716038
      6          6           0        0.511479   -0.480424    0.016049
      7          1           0       -0.333352    1.290194    0.458168
      8          1           0       -0.366238    1.008609   -1.010086
      9          6           0        1.916041    0.068754    0.050537
     10          1           0        0.553812   -1.137448   -0.822065
     11          1           0        0.409174   -1.030099    0.864083
     12          1           0        2.170135    0.387920   -0.758993
     13          1           0        2.806050   -0.815437   -0.099754
     14          1           0        2.068902    1.159500    1.108541
 ---------------------------------------------------------------------

 SCF Done:  E(RB2PLYPD3) =  -157.922239024     A.U. after   11 cycles
 E2(B2PLYPD3) =    -0.2507296357D+00 E(B2PLYPD3) =    -0.15817296866013D+03

 The electronic state is 1-A.
 Alpha  occ. eigenvalues --  -10.63140 -10.62636 -10.59416 -10.58976  -0.93530
 Alpha  occ. eigenvalues --   -0.83620  -0.73874  -0.70088  -0.55313  -0.52047
 Alpha  occ. eigenvalues --   -0.48153  -0.44895  -0.42470  -0.41465  -0.38283
 Alpha  occ. eigenvalues --   -0.36653  -0.35817
 Alpha virt. eigenvalues --    0.04076   0.05597   0.07611   0.08755   0.09351
 Alpha virt. eigenvalues --    0.10757   0.12081   0.13390   0.14411   0.15257
 Alpha virt. eigenvalues --    0.15788   0.16498   0.18745   0.19569   0.21383

 Mulliken charges:
               1
     1  C   -0.158722
     2  C   -0.058092
     3  H    0.025756
     4  H    0.051947
     5  H    0.033326
     6  C    0.007391
     7  H    0.036868
     8  H    0.057300
     9  C   -0.208137
    10  H    0.024006
    11  H    0.060344
    12  H    0.104850
    13  H    0.024019
    14  H   -0.000858
 Sum of Mulliken charges =   0.00000

 Dipole moment (field-independent basis, Debye):
    X=             -0.1947    Y=              0.1209    Z=             -0.3906  Tot=              0.4528
 Quadrupole moment (field-independent basis, Debye-Ang):
   XX=            -30.2069   YY=            -29.6386   ZZ=            -28.5322
   XY=             -0.8008   XZ=             -2.0960   YZ=             -0.0098

 Normal termination of Gaussian 09 at Wed Aug 26 15:52:16 2020.
