 Gaussian 09, Revision D.01,
 Gaussian 09:  ES64L-G09RevD.01 24-Apr-2013

 --------------------
 #p B2PLYPD3/Def2QZVP
 --------------------

 ----------
 butane_opt
 ----------
 Symbolic Z-matrix:
 Charge =  0 Multiplicity = 1

                         Standard orientation:
 ---------------------------------------------------------------------
 Center     Atomic      Atomic             Coordinates (Angstroms)
 Number     Number       Type             X           Y           Z
 ---------------------------------------------------------------------
      1          6           0        1.949466    0.064564   -0.184793
      2          6           0        0.609953   -0.544242    0.178455
      3          1           0        2.560980   -0.668275   -0.394904
      4          1           0        2.694247    0.861519    0.674311
      5          1           0        1.750044    0.657741   -1.091339
      6          6           0       -0.547652    0.640849    0.102827
      7          1           0        0.727090   -1.480215    1.292366
      8          1           0        0.303688   -0.828750   -0.459117
      9          6           0       -2.018501   -0.201654   -0.141107
     10          1           0       -0.194718    0.997882   -0.572869
     11          1           0       -0.494310    1.451189    1.190730
     12          1           0       -2.294617   -0.747921   -0.940854
     13          1           0       -2.799399    0.575790   -0.033269
     14          1           0       -2.212608   -0.576058    0.602654
 ---------------------------------------------------------------------

 SCF Done:  E(RB2PLYPD3) =  -157.695940374     A.U. after   11 cycles
 E2(B2PLYPD3) =    -0.2512159994D+00 E(B2PLYPD3) =    -0.15794715637354D+03

 The electronic state is 1-A.
 Alpha  occ. eigenvalues --  -10.63064 -10.61864 -10.61258 -10.58053  -0.93356
 Alpha  occ. eigenvalues --   -0.84519  -0.77024  -0.70440  -0.53700  -0.50356
 Alpha  occ. eigenvalues --   -0.50317  -0.46239  -0.44827  -0.40625  -0.38784
 Alpha  occ. eigenvalues --   -0.36969  -0.34157
 Alpha virt. eigenvalues --    0.04792   0.06526   0.07041   0.07965   0.10421
 Alpha virt. eigenvalues --    0.11870   0.12155   0.13676   0.14438   0.15001
 Alpha virt. eigenvalues --    0.15516   0.16648   0.18165   0.19596   0.20112

 Mulliken charges:
               1
     1  C   -0.124305
     2  C   -0.467296
     3  H    0.076976
     4  H    0.018316
     5  H    0.038257
     6  C   -0.247964
     7  H    0.013651
     8  H    0.424851
     9  C   -0.208521
    10  H    0.227096
    11  H    0.030301
    12  H    0.051159
    13  H    0.023588
    14  H    0.143891
 Sum of Mulliken charges =   0.00000

 Dipole moment (field-independent basis, Debye):
    X=             -0.2276    Y=             -0.2409    Z=             -0.6640  Tot=              0.7422
 Quadrupole moment (field-independent basis, Debye-Ang):
   XX=            -28.6961   YY=            -29.4174   ZZ=            -28.3284
   XY=              0.2711   XZ=             -0.3631   YZ=              0.3719

 Normal termination of Gaussian 09 at Wed Aug 26 15:12:53 2020.
