 Gaussian 09, Revision D.01,
 Gaussian 09:  ES64L-G09RevD.01 24-Apr-2013

 --------------------
 #p B2PLYPD3/Def2QZVP
 --------------------

 ----------
 butane_opt
 ----------
 Symbolic Z-matrix:
 Charge =  0 Multiplicity = 1

                         Standard orientation:
 ---------------------------------------------------------------------
 Center     Atomic      Atomic             Coordinates (Angstroms)
 Number     Number       Type             X           Y           Z
 ---------------------------------------------------------------------
      1          6           0        1.964164   -0.127550   -0.090147
      2          6           0        0.571163    0.551464    0.066831
      3          1           0        2.781586    0.721102   -0.201272
      4          1           0        1.940983   -0.941916   -1.009488
      5          1           0        2.243960   -0.696915    0.752426
      6          6           0       -0.576859   -0.538046    0.170119
      7          1           0        0.330170    0.972321   -0.709686
      8          1           0        0.613589    1.370155    0.969252
      9          6           0       -1.943059    0.107141   -0.103817
     10          1           0       -0.461530   -1.238550    1.156928
     11          1           0       -0.400759   -1.041492   -0.606639
     12          1           0       -2.559279    0.804628    0.733950
     13          1           0       -2.712911   -0.554043   -0.404549
     14          1           0       -1.868264    0.646658   -0.938831
 ---------------------------------------------------------------------

 SCF Done:  E(RB2PLYPD3) =  -158.020426088     A.U. after   11 cycles
 E2(B2PLYPD3) =    -0.2477127673D+00 E(B2PLYPD3) =    -0.15826813885569D+03

 The electronic state is 1-A.
 Alpha  occ. eigenvalues --  -10.62126 -10.60929 -10.60442 -10.60189  -0.91484
 Alpha  occ. eigenvalues --   -0.82876  -0.73045  -0.68271  -0.53666  -0.48888
 Alpha  occ. eigenvalues --   -0.48078  -0.46622  -0.43346  -0.40414  -0.39954
 Alpha  occ. eigenvalues --   -0.38129  -0.36397
 Alpha virt. eigenvalues --    0.05646   0.06556   0.08254   0.08731   0.10716
 Alpha virt. eigenvalues --    0.11736   0.12720   0.13254   0.14915   0.15358
 Alpha virt. eigenvalues --    0.15822   0.16408   0.19239   0.19555   0.21570

 Mulliken charges:
               1
     1  C   -0.153757
     2  C   -0.093086
     3  H    0.043229
     4  H    0.021275
     5  H    0.061619
     6  C   -0.104236
     7  H    0.109304
     8  H    0.015249
     9  C   -0.137237
    10  H    0.025150
    11  H    0.103488
    12  H    0.024082
    13  H    0.033567
    14  H    0.051352
 Sum of Mulliken charges =   0.00000

 Dipole moment (field-independent basis, Debye):
    X=             -0.0658    Y=             -0.0790    Z=             -0.3955  Tot=              0.4087
 Quadrupole moment (field-independent basis, Debye-Ang):
   XX=            -29.7349   YY=            -29.0634   ZZ=            -28.4368
   XY=              0.1749   XZ=              1.1367   YZ=              0.0461

 Normal termination of Gaussian 09 at Wed Aug 26 11:24:23 2020.
