 Gaussian 09, Revision D.01,
 Gaussian 09:  ES64L-G09RevD.01 24-Apr-2013

 --------------------
 #p B2PLYPD3/Def2QZVP
 --------------------

 ----------
 butane_opt
 ----------
 Symbolic Z-matrix:
 Charge =  0 Multiplicity = 1

                         Standard orientation:
 ---------------------------------------------------------------------
 Center     Atomic      Atomic             Coordinates (Angstroms)
 Number     Number       Type             X           Y           Z
 ---------------------------------------------------------------------
      1          6           0        1.986585    0.003417   -0.205494
      2          6           0        0.634945   -0.491627    0.246236
      3          1           0        2.744945   -0.804189   -0.483019
      4          1           0        2.368816    1.002429    0.697009
      5          1           0        1.542215    0.469626   -1.017265
      6          6           0       -0.509452    0.657255    0.077455
      7          1           0        0.373267   -1.330711    1.488019
      8          1           0        0.522367   -0.680794   -0.346717
      9          6           0       -2.025983   -0.172417   -0.081782
     10          1           0       -0.327321    1.132349   -0.711106
     11          1           0       -0.447161    1.371351    0.872272
     12          1           0       -2.420479   -1.090112   -1.146330
     13          1           0       -2.542938    0.302289   -0.022216
     14          1           0       -2.330283   -0.352012    0.450862
 ---------------------------------------------------------------------

 SCF Done:  E(RB2PLYPD3) =  -156.918849893     A.U. after   12 cycles
 E2(B2PLYPD3) =    -0.2534328986D+00 E(B2PLYPD3) =    -0.15717228279205D+03

 The electronic state is 1-A.
 Alpha  occ. eigenvalues --  -10.63574 -10.62078 -10.60798 -10.57229  -0.98808
 Alpha  occ. eigenvalues --   -0.95680  -0.78515  -0.70451  -0.54041  -0.50542
 Alpha  occ. eigenvalues --   -0.47946  -0.46845  -0.45202  -0.40498  -0.37961
 Alpha  occ. eigenvalues --   -0.37848  -0.34684
 Alpha virt. eigenvalues --    0.04808   0.05185   0.06210   0.08258   0.10386
 Alpha virt. eigenvalues --    0.10857   0.11957   0.12587   0.14356   0.15257
 Alpha virt. eigenvalues --    0.15965   0.16984   0.18450   0.18838   0.20451

 Mulliken charges:
               1
     1  C   -0.141404
     2  C   -0.896576
     3  H    0.073589
     4  H    0.013126
     5  H    0.071599
     6  C   -0.034817
     7  H    0.020536
     8  H    0.828082
     9  C   -0.870684
    10  H    0.096940
    11  H    0.041477
    12  H    0.044594
    13  H    0.318488
    14  H    0.435050
 Sum of Mulliken charges =   0.00000

 Dipole moment (field-independent basis, Debye):
    X=             -0.5253    Y=              0.3805    Z=             -0.3001  Tot=              0.7147
 Quadrupole moment (field-independent basis, Debye-Ang):
   XX=            -28.4121   YY=            -28.9131   ZZ=            -27.9874
   XY=             -1.3410   XZ=             -1.7703   YZ=              0.8830

 Normal termination of Gaussian 09 at Wed Aug 26 23:20:25 2020.
