 Gaussian 09, Revision D.01,
 Gaussian 09:  ES64L-G09RevD.01 24-Apr-2013

 --------------------
 #p B2PLYPD3/Def2QZVP
 --------------------

 ----------
 butane_opt
 ----------
 Symbolic Z-matrix:
 Charge =  0 Multiplicity = 1

                         Standard orientation:
 ---------------------------------------------------------------------
 Center     Atomic      Atomic             Coordinates (Angstroms)
 Number     Number       Type             X           Y           Z
 ---------------------------------------------------------------------
      1          6           0       -1.846933   -0.108675    0.071990
      2          6           0       -0.581418    0.463185   -0.095263
      3          1           0       -2.594118    0.808452    0.001353
      4          1           0       -1.917097   -0.608628    1.007683
      5          1           0       -1.797958   -0.637800   -0.694851
      6          6           0        0.482515   -0.583564    0.007788
      7          1           0       -0.577906    0.925554    0.432217
      8          1           0       -0.812498    1.246715   -1.227006
      9          6           0        1.936023    0.154732    0.051464
     10          1           0        0.465840   -1.078051   -0.643616
     11          1           0        0.160687   -1.308211    0.972817
     12          1           0        1.956568    0.305635   -0.542440
     13          1           0        2.719513   -0.743932   -0.701819
     14          1           0        2.455854    1.536199    1.179784
 ---------------------------------------------------------------------

 SCF Done:  E(RB2PLYPD3) =  -157.077883499     A.U. after   13 cycles
 E2(B2PLYPD3) =    -0.2575288583D+00 E(B2PLYPD3) =    -0.15733541235714D+03

 The electronic state is 1-A.
 Alpha  occ. eigenvalues --  -10.65457 -10.61725 -10.58227 -10.57813  -0.97901
 Alpha  occ. eigenvalues --   -0.90645  -0.78601  -0.73902  -0.56562  -0.54036
 Alpha  occ. eigenvalues --   -0.49494  -0.45997  -0.42492  -0.39934  -0.37139
 Alpha  occ. eigenvalues --   -0.36522  -0.34742
 Alpha virt. eigenvalues --   -0.03182   0.05060   0.05470   0.06605   0.10053
 Alpha virt. eigenvalues --    0.10713   0.11925   0.12657   0.13857   0.15290
 Alpha virt. eigenvalues --    0.16096   0.16741   0.17960   0.18497   0.20372

 Mulliken charges:
               1
     1  C   -0.132052
     2  C   -0.512341
     3  H    0.034120
     4  H    0.043555
     5  H    0.090008
     6  C   -0.148668
     7  H    0.453466
     8  H   -0.001212
     9  C   -0.875184
    10  H    0.225609
    11  H    0.031923
    12  H    0.749239
    13  H   -0.012364
    14  H    0.053900
 Sum of Mulliken charges =   0.00000

 Dipole moment (field-independent basis, Debye):
    X=             -0.5984    Y=              0.1155    Z=             -0.2758  Tot=              0.6689
 Quadrupole moment (field-independent basis, Debye-Ang):
   XX=            -33.3299   YY=            -28.3661   ZZ=            -27.8936
   XY=              0.7005   XZ=             -1.4230   YZ=              1.5369

 Normal termination of Gaussian 09 at Wed Aug 26 15:35:46 2020.
