 Gaussian 09, Revision D.01,
 Gaussian 09:  ES64L-G09RevD.01 24-Apr-2013

 --------------------
 #p B2PLYPD3/Def2QZVP
 --------------------

 ----------
 butane_opt
 ----------
 Symbolic Z-matrix:
 Charge =  0 Multiplicity = 1

                         Standard orientation:
 ---------------------------------------------------------------------
 Center     Atomic      Atomic             Coordinates (Angstroms)
 Number     Number       Type             X           Y           Z
 ---------------------------------------------------------------------
      1          6           0       -1.846917    0.028996   -0.264054
      2          6           0       -0.607733   -0.413555    0.293108
      3          1           0       -2.766693   -0.777547   -0.701154
      4          1           0       -1.361418    0.262618   -0.889879
      5          1           0       -2.180832    1.228935    0.859179
      6          6           0        0.457556    0.588038    0.077591
      7          1           0       -0.292422   -0.922673   -0.305367
      8          1           0       -0.808966   -1.294218    1.588777
      9          6           0        1.977264   -0.214307   -0.151206
     10          1           0        0.337098    1.436600    0.962642
     11          1           0        0.297735    1.007539   -0.974708
     12          1           0        2.228515   -0.520922    0.689416
     13          1           0        2.736216    0.463036   -0.090919
     14          1           0        1.929746   -0.818405   -0.870618
 ---------------------------------------------------------------------

 SCF Done:  E(RB2PLYPD3) =  -157.666133395     A.U. after   12 cycles
 E2(B2PLYPD3) =    -0.2564418993D+00 E(B2PLYPD3) =    -0.15792257529469D+03

 The electronic state is 1-A.
 Alpha  occ. eigenvalues --  -10.64884 -10.63702 -10.62044 -10.57971  -0.98822
 Alpha  occ. eigenvalues --   -0.86132  -0.76182  -0.67147  -0.57076  -0.53278
 Alpha  occ. eigenvalues --   -0.50106  -0.47969  -0.42359  -0.40654  -0.38131
 Alpha  occ. eigenvalues --   -0.34340  -0.33311
 Alpha virt. eigenvalues --    0.01428   0.05185   0.06192   0.07712   0.08973
 Alpha virt. eigenvalues --    0.09940   0.11861   0.13330   0.14163   0.15090
 Alpha virt. eigenvalues --    0.15327   0.16660   0.17816   0.19039   0.19971

 Mulliken charges:
               1
     1  C   -0.303351
     2  C   -0.205236
     3  H    0.063404
     4  H    0.236118
     5  H   -0.020393
     6  C   -0.108813
     7  H    0.226719
     8  H   -0.026608
     9  C   -0.140358
    10  H    0.042242
    11  H    0.050638
    12  H    0.071976
    13  H    0.039995
    14  H    0.073667
 Sum of Mulliken charges =   0.00000

 Dipole moment (field-independent basis, Debye):
    X=              1.0506    Y=             -0.4687    Z=             -1.0832  Tot=              1.5801
 Quadrupole moment (field-independent basis, Debye-Ang):
   XX=            -30.2863   YY=            -30.6581   ZZ=            -28.8526
   XY=              1.5576   XZ=              1.3644   YZ=              1.6568

 Normal termination of Gaussian 09 at Wed Aug 26 11:34:50 2020.
