 Gaussian 09, Revision D.01,
 Gaussian 09:  ES64L-G09RevD.01 24-Apr-2013

 --------------------
 #p B2PLYPD3/Def2QZVP
 --------------------

 ----------
 butane_opt
 ----------
 Symbolic Z-matrix:
 Charge =  0 Multiplicity = 1

                         Standard orientation:
 ---------------------------------------------------------------------
 Center     Atomic      Atomic             Coordinates (Angstroms)
 Number     Number       Type             X           Y           Z
 ---------------------------------------------------------------------
      1          6           0       -1.803046    0.044020    0.102579
      2          6           0       -0.577375   -0.448858   -0.171270
      3          1           0       -2.737429   -0.759943    0.195858
      4          1           0       -2.143684    0.578125   -0.592417
      5          1           0       -1.998291    0.654876    1.035806
      6          6           0        0.469218    0.618204   -0.150679
      7          1           0       -0.518513   -1.206173   -1.087949
      8          1           0       -0.269258   -0.991858    0.699736
      9          6           0        1.944045   -0.169405    0.071117
     10          1           0       -0.033029    1.291688    0.769121
     11          1           0        0.516500    1.143260   -0.790033
     12          1           0        2.145314   -1.026116    1.072879
     13          1           0        2.691836    0.503262    0.169622
     14          1           0        2.149503   -0.450890   -0.583103
 ---------------------------------------------------------------------

 SCF Done:  E(RB2PLYPD3) =  -157.767211912     A.U. after   11 cycles
 E2(B2PLYPD3) =    -0.2487000656D+00 E(B2PLYPD3) =    -0.15801591197742D+03

 The electronic state is 1-A.
 Alpha  occ. eigenvalues --  -10.60279 -10.59508 -10.58537 -10.58446  -0.94470
 Alpha  occ. eigenvalues --   -0.86556  -0.77560  -0.69069  -0.55699  -0.51103
 Alpha  occ. eigenvalues --   -0.50293  -0.49939  -0.41861  -0.40921  -0.38734
 Alpha  occ. eigenvalues --   -0.37266  -0.35547
 Alpha virt. eigenvalues --    0.05571   0.06481   0.07640   0.09000   0.10589
 Alpha virt. eigenvalues --    0.12176   0.12474   0.14117   0.14729   0.15298
 Alpha virt. eigenvalues --    0.16400   0.16699   0.19293   0.20134   0.21706

 Mulliken charges:
               1
     1  C   -0.143336
     2  C   -0.003074
     3  H    0.005365
     4  H    0.060630
     5  H    0.030431
     6  C   -0.181806
     7  H    0.018938
     8  H    0.060484
     9  C   -0.427650
    10  H    0.013796
    11  H    0.170466
    12  H    0.034338
    13  H    0.045734
    14  H    0.315683
 Sum of Mulliken charges =   0.00000

 Dipole moment (field-independent basis, Debye):
    X=              0.1963    Y=              0.2860    Z=             -0.4984  Tot=              0.6072
 Quadrupole moment (field-independent basis, Debye-Ang):
   XX=            -28.7027   YY=            -28.9909   ZZ=            -27.9789
   XY=             -0.6088   XZ=             -0.7368   YZ=             -0.4368

 Normal termination of Gaussian 09 at Wed Aug 26 10:52:16 2020.
