 Gaussian 09, Revision D.01,
 Gaussian 09:  ES64L-G09RevD.01 24-Apr-2013

 --------------------
 #p B2PLYPD3/Def2QZVP
 --------------------

 ----------
 butane_opt
 ----------
 Symbolic Z-matrix:
 Charge =  0 Multiplicity = 1

                         Standard orientation:
 ---------------------------------------------------------------------
 Center     Atomic      Atomic             Coordinates (Angstroms)
 Number     Number       Type             X           Y           Z
 ---------------------------------------------------------------------
      1          6           0        1.997721    0.105949    0.060851
      2          6           0        0.592519   -0.508492   -0.097560
      3          1           0        2.783527   -0.754029   -0.243389
      4          1           0        2.192558    1.034836    1.131592
      5          1           0        1.955722    0.523955   -0.608484
      6          6           0       -0.571317    0.549075   -0.072311
      7          1           0        0.422705   -1.105661    0.729167
      8          1           0        0.541474   -1.029473   -0.878617
      9          6           0       -2.001346   -0.147163    0.044407
     10          1           0       -0.731471    1.286977   -0.963988
     11          1           0       -0.379884    1.123067    0.847651
     12          1           0       -1.939393   -0.549457   -0.693649
     13          1           0       -2.784419    0.574524   -0.065796
     14          1           0       -2.166283   -1.100951    1.133188
 ---------------------------------------------------------------------

 SCF Done:  E(RB2PLYPD3) =  -157.810902141     A.U. after   11 cycles
 E2(B2PLYPD3) =    -0.2497172672D+00 E(B2PLYPD3) =    -0.15806061940811D+03

 The electronic state is 1-A.
 Alpha  occ. eigenvalues --  -10.62296 -10.60693 -10.60470 -10.58997  -0.92281
 Alpha  occ. eigenvalues --   -0.85713  -0.75037  -0.67984  -0.54894  -0.50953
 Alpha  occ. eigenvalues --   -0.48474  -0.46282  -0.41780  -0.40318  -0.38408
 Alpha  occ. eigenvalues --   -0.37800  -0.36788
 Alpha virt. eigenvalues --    0.04903   0.05577   0.07673   0.08222   0.10599
 Alpha virt. eigenvalues --    0.11416   0.11868   0.13005   0.13772   0.15033
 Alpha virt. eigenvalues --    0.15771   0.16211   0.18927   0.19294   0.21263

 Mulliken charges:
               1
     1  C   -0.415364
     2  C   -0.045850
     3  H    0.044526
     4  H    0.032111
     5  H    0.301190
     6  C   -0.053339
     7  H    0.053580
     8  H    0.056457
     9  C   -0.305144
    10  H    0.021124
    11  H    0.039202
    12  H    0.201389
    13  H    0.059707
    14  H    0.010410
 Sum of Mulliken charges =   0.00000

 Dipole moment (field-independent basis, Debye):
    X=             -0.0627    Y=              0.0398    Z=             -0.8146  Tot=              0.8180
 Quadrupole moment (field-independent basis, Debye-Ang):
   XX=            -30.9469   YY=            -28.7909   ZZ=            -28.1415
   XY=             -1.1273   XZ=              0.1064   YZ=              0.2815

 Normal termination of Gaussian 09 at Wed Aug 26 15:46:01 2020.
