 Gaussian 09, Revision D.01,
 Gaussian 09:  ES64L-G09RevD.01 24-Apr-2013

 --------------------
 #p B2PLYPD3/Def2QZVP
 --------------------

 ----------
 butane_opt
 ----------
 Symbolic Z-matrix:
 Charge =  0 Multiplicity = 1

                         Standard orientation:
 ---------------------------------------------------------------------
 Center     Atomic      Atomic             Coordinates (Angstroms)
 Number     Number       Type             X           Y           Z
 ---------------------------------------------------------------------
      1          6           0       -1.898172    0.030435    0.141346
      2          6           0       -0.614751   -0.454730   -0.158671
      3          1           0       -2.759251   -0.734963    0.021410
      4          1           0       -1.923935    0.444806   -0.540985
      5          1           0       -1.656069    1.083317    1.315770
      6          6           0        0.480353    0.594213   -0.225547
      7          1           0       -0.447557   -1.045471   -1.186623
      8          1           0       -0.595777   -1.105792    0.572143
      9          6           0        1.915291   -0.163346    0.190000
     10          1           0        0.395908    1.204313    0.554231
     11          1           0        0.583820    1.539010   -1.168103
     12          1           0        1.796274   -0.942118    1.115054
     13          1           0        2.599792    0.416181    0.461507
     14          1           0        2.710468   -0.898712   -0.827169
 ---------------------------------------------------------------------

 SCF Done:  E(RB2PLYPD3) =  -157.755144766     A.U. after   11 cycles
 E2(B2PLYPD3) =    -0.2546607769D+00 E(B2PLYPD3) =    -0.15800980554287D+03

 The electronic state is 1-A.
 Alpha  occ. eigenvalues --  -10.64164 -10.64120 -10.60729 -10.60258  -0.95414
 Alpha  occ. eigenvalues --   -0.84006  -0.73819  -0.68442  -0.56142  -0.51106
 Alpha  occ. eigenvalues --   -0.48808  -0.43023  -0.41698  -0.41132  -0.37661
 Alpha  occ. eigenvalues --   -0.35702  -0.34784
 Alpha virt. eigenvalues --    0.03043   0.04611   0.06377   0.07032   0.09990
 Alpha virt. eigenvalues --    0.10687   0.12048   0.12672   0.13619   0.14809
 Alpha virt. eigenvalues --    0.15020   0.15916   0.17946   0.20005   0.21025

 Mulliken charges:
               1
     1  C   -0.375044
     2  C   -0.042912
     3  H    0.063854
     4  H    0.281968
     5  H   -0.005146
     6  C   -0.081063
     7  H    0.030423
     8  H    0.073791
     9  C   -0.184946
    10  H    0.072067
    11  H    0.027891
    12  H    0.046160
    13  H    0.098168
    14  H   -0.005210
 Sum of Mulliken charges =   0.00000

 Dipole moment (field-independent basis, Debye):
    X=             -0.1574    Y=              0.1636    Z=              0.0542  Tot=              0.2335
 Quadrupole moment (field-independent basis, Debye-Ang):
   XX=            -30.8960   YY=            -29.2256   ZZ=            -29.4322
   XY=              2.3063   XZ=              2.1376   YZ=             -0.3449

 Normal termination of Gaussian 09 at Wed Aug 26 12:01:37 2020.
