 Gaussian 09, Revision D.01,
 Gaussian 09:  ES64L-G09RevD.01 24-Apr-2013

 --------------------
 #p B2PLYPD3/Def2QZVP
 --------------------

 ----------
 butane_opt
 ----------
 Symbolic Z-matrix:
 Charge =  0 Multiplicity = 1

                         Standard orientation:
 ---------------------------------------------------------------------
 Center     Atomic      Atomic             Coordinates (Angstroms)
 Number     Number       Type             X           Y           Z
 ---------------------------------------------------------------------
      1          6           0        2.053383    0.101362    0.015478
      2          6           0        0.555648   -0.563456    0.039166
      3          1           0        2.686128   -0.556098   -0.587503
      4          1           0        2.797601    1.441025    1.137049
      5          1           0        1.635113    0.553963   -0.695226
      6          6           0       -0.592181    0.421770   -0.060855
      7          1           0        0.360877   -1.087602    0.907265
      8          1           0        0.525022   -1.450354   -0.760528
      9          6           0       -1.994867   -0.058766    0.041925
     10          1           0       -0.461255    1.215682   -1.111688
     11          1           0       -0.734937    0.911180    0.660793
     12          1           0       -2.027488   -0.521084   -0.676618
     13          1           0       -2.761992    0.821230   -0.217948
     14          1           0       -2.150969   -0.733406    1.130124
 ---------------------------------------------------------------------

 SCF Done:  E(RB2PLYPD3) =  -157.745558491     A.U. after   12 cycles
 E2(B2PLYPD3) =    -0.2568673577D+00 E(B2PLYPD3) =    -0.15800242584894D+03

 The electronic state is 1-A.
 Alpha  occ. eigenvalues --  -10.64300 -10.63675 -10.60709 -10.60493  -0.94009
 Alpha  occ. eigenvalues --   -0.85981  -0.74453  -0.68697  -0.55589  -0.49724
 Alpha  occ. eigenvalues --   -0.48490  -0.46372  -0.41779  -0.39676  -0.37852
 Alpha  occ. eigenvalues --   -0.36196  -0.34211
 Alpha virt. eigenvalues --   -0.02131   0.05223   0.06762   0.07159   0.10028
 Alpha virt. eigenvalues --    0.11127   0.11749   0.12327   0.13670   0.15481
 Alpha virt. eigenvalues --    0.15816   0.16730   0.18165   0.19028   0.19768

 Mulliken charges:
               1
     1  C   -0.241600
     2  C   -0.025731
     3  H    0.064388
     4  H    0.011224
     5  H    0.125450
     6  C   -0.113809
     7  H    0.040088
     8  H    0.017916
     9  C   -0.270291
    10  H   -0.014560
    11  H    0.151025
    12  H    0.163481
    13  H    0.051245
    14  H    0.041174
 Sum of Mulliken charges =   0.00000

 Dipole moment (field-independent basis, Debye):
    X=             -0.8056    Y=             -0.4605    Z=             -0.5583  Tot=              1.0830
 Quadrupole moment (field-independent basis, Debye-Ang):
   XX=            -31.9062   YY=            -29.3845   ZZ=            -28.8492
   XY=             -1.0546   XZ=             -1.2277   YZ=              0.5540

 Normal termination of Gaussian 09 at Wed Aug 26 22:14:33 2020.
