 Gaussian 09, Revision D.01,
 Gaussian 09:  ES64L-G09RevD.01 24-Apr-2013

 --------------------
 #p B2PLYPD3/Def2QZVP
 --------------------

 ----------
 butane_opt
 ----------
 Symbolic Z-matrix:
 Charge =  0 Multiplicity = 1

                         Standard orientation:
 ---------------------------------------------------------------------
 Center     Atomic      Atomic             Coordinates (Angstroms)
 Number     Number       Type             X           Y           Z
 ---------------------------------------------------------------------
      1          6           0        1.948870   -0.190501   -0.159835
      2          6           0        0.567799    0.578873    0.167187
      3          1           0        2.605567    0.529350   -0.404028
      4          1           0        1.597507   -0.757269   -1.026035
      5          1           0        2.367592   -0.975393    0.931010
      6          6           0       -0.586737   -0.380291    0.108185
      7          1           0        0.240293    0.969007   -0.647881
      8          1           0        0.302659    1.634212    1.176803
      9          6           0       -1.880421    0.092128   -0.087542
     10          1           0       -0.331921   -1.247122    1.126592
     11          1           0       -0.577753   -1.038644   -0.692721
     12          1           0       -1.999208    0.387561    0.389716
     13          1           0       -2.771954   -0.912748    0.033021
     14          1           0       -1.729849    0.809793   -1.054445
 ---------------------------------------------------------------------

 SCF Done:  E(RB2PLYPD3) =  -157.339913280     A.U. after   12 cycles
 E2(B2PLYPD3) =    -0.2546500705D+00 E(B2PLYPD3) =    -0.15759456335011D+03

 The electronic state is 1-A.
 Alpha  occ. eigenvalues --  -10.63978 -10.63563 -10.61412 -10.60461  -0.96824
 Alpha  occ. eigenvalues --   -0.86910  -0.75946  -0.68030  -0.56356  -0.51243
 Alpha  occ. eigenvalues --   -0.47942  -0.46977  -0.43103  -0.39673  -0.39416
 Alpha  occ. eigenvalues --   -0.36801  -0.33179
 Alpha virt. eigenvalues --    0.04219   0.05476   0.06002   0.07080   0.10081
 Alpha virt. eigenvalues --    0.10815   0.12273   0.12878   0.14146   0.14663
 Alpha virt. eigenvalues --    0.15276   0.16335   0.17300   0.19719   0.20418

 Mulliken charges:
               1
     1  C   -0.168303
     2  C   -0.130933
     3  H    0.083777
     4  H    0.078103
     5  H    0.037218
     6  C    0.042784
     7  H    0.110216
     8  H    0.004006
     9  C   -0.793636
    10  H   -0.032340
    11  H    0.053600
    12  H    0.575265
    13  H    0.062554
    14  H    0.077687
 Sum of Mulliken charges =   0.00000

 Dipole moment (field-independent basis, Debye):
    X=              0.0238    Y=              0.2665    Z=             -0.7991  Tot=              0.8427
 Quadrupole moment (field-independent basis, Debye-Ang):
   XX=            -30.0490   YY=            -29.8924   ZZ=            -28.9977
   XY=              0.2497   XZ=             -0.7082   YZ=              0.0046

 Normal termination of Gaussian 09 at Wed Aug 26 21:57:42 2020.
