 Gaussian 09, Revision D.01,
 Gaussian 09:  ES64L-G09RevD.01 24-Apr-2013

 --------------------
 #p B2PLYPD3/Def2QZVP
 --------------------

 ----------
 butane_opt
 ----------
 Symbolic Z-matrix:
 Charge =  0 Multiplicity = 1

                         Standard orientation:
 ---------------------------------------------------------------------
 Center     Atomic      Atomic             Coordinates (Angstroms)
 Number     Number       Type             X           Y           Z
 ---------------------------------------------------------------------
      1          6           0       -1.914648    0.042889    0.068954
      2          6           0       -0.613539   -0.414633   -0.193117
      3          1           0       -2.706740   -0.815907    0.613155
      4          1           0       -2.554839    0.878882   -0.771292
      5          1           0       -1.636809    0.322096    0.813684
      6          6           0        0.557024    0.572903   -0.023036
      7          1           0       -0.643638   -0.996827   -1.071480
      8          1           0       -0.472772   -0.951060    0.334207
      9          6           0        2.015228   -0.190459    0.081862
     10          1           0       -0.113987    1.238343    1.061814
     11          1           0        0.595810    1.258890   -0.793210
     12          1           0        2.116191   -0.911404    0.897939
     13          1           0        2.860731    0.609982   -0.107535
     14          1           0        2.291665   -0.697195   -0.585261
 ---------------------------------------------------------------------

 SCF Done:  E(RB2PLYPD3) =  -157.722254795     A.U. after   11 cycles
 E2(B2PLYPD3) =    -0.2510204830D+00 E(B2PLYPD3) =    -0.15797327527772D+03

 The electronic state is 1-A.
 Alpha  occ. eigenvalues --  -10.64770 -10.60450 -10.60252 -10.56008  -0.96659
 Alpha  occ. eigenvalues --   -0.85324  -0.75639  -0.70429  -0.56784  -0.50667
 Alpha  occ. eigenvalues --   -0.49521  -0.46211  -0.43702  -0.41035  -0.38946
 Alpha  occ. eigenvalues --   -0.37031  -0.34877
 Alpha virt. eigenvalues --    0.04726   0.06158   0.07360   0.08839   0.10198
 Alpha virt. eigenvalues --    0.10544   0.12596   0.13527   0.14614   0.15060
 Alpha virt. eigenvalues --    0.15896   0.16291   0.18321   0.19431   0.20567

 Mulliken charges:
               1
     1  C   -0.297504
     2  C   -0.338203
     3  H    0.023108
     4  H    0.047200
     5  H    0.205787
     6  C   -0.042494
     7  H    0.026483
     8  H    0.324503
     9  C   -0.179651
    10  H   -0.010701
    11  H    0.062632
    12  H    0.041406
    13  H    0.030764
    14  H    0.106672
 Sum of Mulliken charges =   0.00000

 Dipole moment (field-independent basis, Debye):
    X=              0.5484    Y=             -0.5490    Z=             -0.2943  Tot=              0.8299
 Quadrupole moment (field-independent basis, Debye-Ang):
   XX=            -29.5785   YY=            -28.9585   ZZ=            -28.7511
   XY=             -0.8082   XZ=             -1.4825   YZ=             -1.5785

 Normal termination of Gaussian 09 at Wed Aug 26 23:54:30 2020.
