 Gaussian 09, Revision D.01,
 Gaussian 09:  ES64L-G09RevD.01 24-Apr-2013

 --------------------
 #p B2PLYPD3/Def2QZVP
 --------------------

 ----------
 butane_opt
 ----------
 Symbolic Z-matrix:
 Charge =  0 Multiplicity = 1

                         Standard orientation:
 ---------------------------------------------------------------------
 Center     Atomic      Atomic             Coordinates (Angstroms)
 Number     Number       Type             X           Y           Z
 ---------------------------------------------------------------------
      1          6           0       -1.928922   -0.150653   -0.036949
      2          6           0       -0.427747    0.585647    0.035984
      3          1           0       -2.625807    0.476872   -0.387636
      4          1           0       -2.200416   -0.566917    0.796707
      5          1           0       -2.096083   -0.867920   -0.922138
      6          6           0        0.538739   -0.475207    0.144692
      7          1           0       -0.548650    1.263324    0.792837
      8          1           0       -0.121038    1.020126   -0.799168
      9          6           0        1.884850    0.025470   -0.114826
     10          1           0        0.332141   -0.945020   -0.363174
     11          1           0        0.513231   -1.211288    1.189136
     12          1           0        1.550429    0.506735   -0.932487
     13          1           0        2.779827   -0.878135   -0.417614
     14          1           0        2.014849    1.290682    0.870129
 ---------------------------------------------------------------------

 SCF Done:  E(RB2PLYPD3) =  -157.744641125     A.U. after   11 cycles
 E2(B2PLYPD3) =    -0.2514400693D+00 E(B2PLYPD3) =    -0.15799608119467D+03

 The electronic state is 1-A.
 Alpha  occ. eigenvalues --  -10.65029 -10.59730 -10.58980 -10.57838  -0.96984
 Alpha  occ. eigenvalues --   -0.83532  -0.74435  -0.71884  -0.56630  -0.51266
 Alpha  occ. eigenvalues --   -0.50465  -0.45903  -0.44621  -0.40286  -0.37914
 Alpha  occ. eigenvalues --   -0.37481  -0.35074
 Alpha virt. eigenvalues --    0.02375   0.06238   0.07813   0.08510   0.10436
 Alpha virt. eigenvalues --    0.10910   0.12330   0.13246   0.13983   0.15516
 Alpha virt. eigenvalues --    0.15947   0.16628   0.19283   0.19780   0.21346

 Mulliken charges:
               1
     1  C   -0.147673
     2  C   -0.046258
     3  H    0.041769
     4  H    0.078987
     5  H    0.004381
     6  C   -0.446929
     7  H    0.047700
     8  H    0.066799
     9  C   -0.161976
    10  H    0.422740
    11  H    0.009481
    12  H    0.080643
    13  H    0.052823
    14  H   -0.002487
 Sum of Mulliken charges =   0.00000

 Dipole moment (field-independent basis, Debye):
    X=             -0.6580    Y=             -0.1726    Z=             -0.7364  Tot=              1.0025
 Quadrupole moment (field-independent basis, Debye-Ang):
   XX=            -30.7156   YY=            -28.9003   ZZ=            -28.5516
   XY=             -1.5493   XZ=             -1.1630   YZ=              0.5441

 Normal termination of Gaussian 09 at Wed Aug 26 19:34:31 2020.
