 Gaussian 09, Revision D.01,
 Gaussian 09:  ES64L-G09RevD.01 24-Apr-2013

 --------------------
 #p B2PLYPD3/Def2QZVP
 --------------------

 ----------
 butane_opt
 ----------
 Symbolic Z-matrix:
 Charge =  0 Multiplicity = 1

                         Standard orientation:
 ---------------------------------------------------------------------
 Center     Atomic      Atomic             Coordinates (Angstroms)
 Number     Number       Type             X           Y           Z
 ---------------------------------------------------------------------
      1          6           0        2.013988   -0.141801   -0.138580
      2          6           0        0.510065    0.630167    0.138486
      3          1           0        2.581074    0.288010   -0.231213
      4          1           0        2.022521   -0.783402   -1.134063
      5          1           0        2.346849   -0.643036    0.796510
      6          6           0       -0.557729   -0.498195    0.139871
      7          1           0        0.486238    0.808167   -0.388275
      8          1           0        0.235725    1.603186    1.159251
      9          6           0       -1.943181    0.093872   -0.169596
     10          1           0       -0.554232   -1.318502    1.189750
     11          1           0       -0.573548   -1.058100   -0.505378
     12          1           0       -2.079553    0.456979    0.404976
     13          1           0       -2.784829   -0.686923    0.138884
     14          1           0       -1.819107    0.829361   -1.251529
 ---------------------------------------------------------------------

 SCF Done:  E(RB2PLYPD3) =  -156.862815800     A.U. after   12 cycles
 E2(B2PLYPD3) =    -0.2511799412D+00 E(B2PLYPD3) =    -0.15711399574141D+03

 The electronic state is 1-A.
 Alpha  occ. eigenvalues --  -10.63134 -10.60083 -10.58841 -10.58594  -0.95148
 Alpha  occ. eigenvalues --   -0.88118  -0.81534  -0.73822  -0.55528  -0.50120
 Alpha  occ. eigenvalues --   -0.48498  -0.46843  -0.43128  -0.41379  -0.39065
 Alpha  occ. eigenvalues --   -0.37328  -0.36175
 Alpha virt. eigenvalues --    0.04690   0.06056   0.06922   0.07792   0.10492
 Alpha virt. eigenvalues --    0.11530   0.12463   0.14070   0.14120   0.15490
 Alpha virt. eigenvalues --    0.15687   0.16728   0.18738   0.18877   0.21339

 Mulliken charges:
               1
     1  C   -0.474477
     2  C   -0.922292
     3  H    0.369970
     4  H    0.047914
     5  H    0.062005
     6  C   -0.061585
     7  H    0.808439
     8  H    0.051503
     9  C   -0.628673
    10  H   -0.007148
    11  H    0.193885
    12  H    0.454403
    13  H    0.050922
    14  H    0.055135
 Sum of Mulliken charges =   0.00000

 Dipole moment (field-independent basis, Debye):
    X=              0.2588    Y=              0.3028    Z=             -0.2315  Tot=              0.4607
 Quadrupole moment (field-independent basis, Debye-Ang):
   XX=            -28.4459   YY=            -28.7677   ZZ=            -27.4501
   XY=              0.1978   XZ=             -1.3607   YZ=              0.0997

 Normal termination of Gaussian 09 at Wed Aug 26 15:17:24 2020.
