 Gaussian 09, Revision D.01,
 Gaussian 09:  ES64L-G09RevD.01 24-Apr-2013

 --------------------
 #p B2PLYPD3/Def2QZVP
 --------------------

 ----------
 butane_opt
 ----------
 Symbolic Z-matrix:
 Charge =  0 Multiplicity = 1

                         Standard orientation:
 ---------------------------------------------------------------------
 Center     Atomic      Atomic             Coordinates (Angstroms)
 Number     Number       Type             X           Y           Z
 ---------------------------------------------------------------------
      1          6           0       -1.893829   -0.184869    0.034171
      2          6           0       -0.529054    0.573534   -0.053548
      3          1           0       -2.592229    0.509960   -0.298580
      4          1           0       -2.512180   -1.124805    1.048109
      5          1           0       -1.922921   -0.318226   -0.497950
      6          6           0        0.547820   -0.435839   -0.150341
      7          1           0       -0.205541    1.304027    0.957777
      8          1           0       -0.260157    1.401636   -0.879332
      9          6           0        1.893296    0.083174    0.070530
     10          1           0        0.259825   -0.956330   -0.943522
     11          1           0        0.465030   -1.238210    0.731372
     12          1           0        1.936619    0.332732   -0.592766
     13          1           0        2.836732   -0.900276   -0.192941
     14          1           0        1.885426    0.773493    1.262961
 ---------------------------------------------------------------------

 SCF Done:  E(RB2PLYPD3) =  -157.008757780     A.U. after   12 cycles
 E2(B2PLYPD3) =    -0.2564176128D+00 E(B2PLYPD3) =    -0.15726517539249D+03

 The electronic state is 1-A.
 Alpha  occ. eigenvalues --  -10.64451 -10.61866 -10.61005 -10.59518  -0.96784
 Alpha  occ. eigenvalues --   -0.92023  -0.78565  -0.66304  -0.56113  -0.50806
 Alpha  occ. eigenvalues --   -0.48206  -0.46036  -0.42230  -0.40126  -0.37952
 Alpha  occ. eigenvalues --   -0.35978  -0.34335
 Alpha virt. eigenvalues --    0.03513   0.04315   0.06694   0.07386   0.09314
 Alpha virt. eigenvalues --    0.10787   0.11523   0.13007   0.14277   0.15303
 Alpha virt. eigenvalues --    0.15998   0.16519   0.18282   0.18657   0.19977

 Mulliken charges:
               1
     1  C   -0.912041
     2  C    0.008049
     3  H    0.056313
     4  H    0.083934
     5  H    0.727212
     6  C   -0.003066
     7  H   -0.005962
     8  H    0.024667
     9  C   -0.613408
    10  H    0.051046
    11  H    0.015829
    12  H    0.466397
    13  H    0.021846
    14  H    0.079183
 Sum of Mulliken charges =   0.00000

 Dipole moment (field-independent basis, Debye):
    X=             -0.6155    Y=              0.0320    Z=             -0.7456  Tot=              0.9674
 Quadrupole moment (field-independent basis, Debye-Ang):
   XX=            -30.2183   YY=            -29.5518   ZZ=            -27.6683
   XY=              1.0965   XZ=              0.1390   YZ=             -0.3967

 Normal termination of Gaussian 09 at Wed Aug 26 22:29:26 2020.
