 Gaussian 09, Revision D.01,
 Gaussian 09:  ES64L-G09RevD.01 24-Apr-2013

 --------------------
 #p B2PLYPD3/Def2QZVP
 --------------------

 ----------
 butane_opt
 ----------
 Symbolic Z-matrix:
 Charge =  0 Multiplicity = 1

                         Standard orientation:
 ---------------------------------------------------------------------
 Center     Atomic      Atomic             Coordinates (Angstroms)
 Number     Number       Type             X           Y           Z
 ---------------------------------------------------------------------
      1          6           0       -1.838166    0.024552   -0.219560
      2          6           0       -0.573279   -0.348099    0.232005
      3          1           0       -2.767854   -0.898933   -0.421783
      4          1           0       -1.605414    0.183806   -0.836325
      5          1           0       -2.496233    1.156323    0.918547
      6          6           0        0.462553    0.543137    0.042862
      7          1           0       -0.351928   -1.089767   -0.446057
      8          1           0       -0.724730   -1.008323    1.245746
      9          6           0        1.960712   -0.171277   -0.040166
     10          1           0        0.396941    1.199802    0.856770
     11          1           0        0.410170    1.339055   -1.054214
     12          1           0        2.268166   -0.724492    0.834452
     13          1           0        2.893570    0.638948   -0.280453
     14          1           0        1.906396   -1.086296   -0.907528
 ---------------------------------------------------------------------

 SCF Done:  E(RB2PLYPD3) =  -157.614399650     A.U. after   12 cycles
 E2(B2PLYPD3) =    -0.2558240866D+00 E(B2PLYPD3) =    -0.15787022373649D+03

 The electronic state is 1-A.
 Alpha  occ. eigenvalues --  -10.64987 -10.64052 -10.62999 -10.60759  -0.99074
 Alpha  occ. eigenvalues --   -0.85106  -0.74406  -0.67170  -0.56859  -0.50844
 Alpha  occ. eigenvalues --   -0.48899  -0.45351  -0.42137  -0.40892  -0.39281
 Alpha  occ. eigenvalues --   -0.36703  -0.32090
 Alpha virt. eigenvalues --    0.02005   0.04962   0.05970   0.06788   0.09329
 Alpha virt. eigenvalues --    0.10098   0.11890   0.12400   0.13700   0.14080
 Alpha virt. eigenvalues --    0.15169   0.16337   0.18580   0.19682   0.20597

 Mulliken charges:
               1
     1  C   -0.638636
     2  C    0.013066
     3  H    0.061116
     4  H    0.521652
     5  H   -0.046804
     6  C   -0.039079
     7  H    0.050294
     8  H    0.027097
     9  C   -0.161130
    10  H    0.064059
    11  H    0.009208
    12  H    0.066554
    13  H    0.047683
    14  H    0.024921
 Sum of Mulliken charges =   0.00000

 Dipole moment (field-independent basis, Debye):
    X=              0.7292    Y=             -0.7814    Z=             -0.2630  Tot=              1.1007
 Quadrupole moment (field-independent basis, Debye-Ang):
   XX=            -32.0869   YY=            -29.9449   ZZ=            -29.1652
   XY=              2.0989   XZ=              1.1111   YZ=              0.0949

 Normal termination of Gaussian 09 at Wed Aug 26 15:50:30 2020.
