 Gaussian 09, Revision D.01,
 Gaussian 09:  ES64L-G09RevD.01 24-Apr-2013

 --------------------
 #p B2PLYPD3/Def2QZVP
 --------------------

 ----------
 butane_opt
 ----------
 Symbolic Z-matrix:
 Charge =  0 Multiplicity = 1

                         Standard orientation:
 ---------------------------------------------------------------------
 Center     Atomic      Atomic             Coordinates (Angstroms)
 Number     Number       Type             X           Y           Z
 ---------------------------------------------------------------------
      1          6           0        1.976302    0.035098   -0.208091
      2          6           0        0.622365   -0.403289    0.246356
      3          1           0        2.809045   -0.504274   -0.227657
      4          1           0        2.502145    0.494844    0.529799
      5          1           0        1.547006    0.802943   -1.305823
      6          6           0       -0.495785    0.575949    0.197226
      7          1           0        0.660694   -1.044906    1.240428
      8          1           0        0.446371   -1.423358   -0.580107
      9          6           0       -2.058738   -0.155650   -0.138927
     10          1           0       -0.471933    0.873606   -0.548056
     11          1           0       -0.467118    1.551271    1.139056
     12          1           0       -1.807693   -0.662801   -0.883589
     13          1           0       -2.755782    0.350643   -0.781629
     14          1           0       -2.727593   -0.750615    0.838203
 ---------------------------------------------------------------------

 SCF Done:  E(RB2PLYPD3) =  -157.794949875     A.U. after   11 cycles
 E2(B2PLYPD3) =    -0.2536642551D+00 E(B2PLYPD3) =    -0.15804861413006D+03

 The electronic state is 1-A.
 Alpha  occ. eigenvalues --  -10.64309 -10.62299 -10.61785 -10.61633  -0.92338
 Alpha  occ. eigenvalues --   -0.84558  -0.76968  -0.67988  -0.54296  -0.50138
 Alpha  occ. eigenvalues --   -0.47229  -0.46137  -0.42031  -0.41457  -0.37539
 Alpha  occ. eigenvalues --   -0.35821  -0.33660
 Alpha virt. eigenvalues --    0.04871   0.06052   0.06537   0.07608   0.09578
 Alpha virt. eigenvalues --    0.10851   0.11568   0.12664   0.13999   0.15126
 Alpha virt. eigenvalues --    0.16359   0.16665   0.17427   0.18971   0.20831

 Mulliken charges:
               1
     1  C   -0.137016
     2  C    0.003962
     3  H    0.062824
     4  H    0.035789
     5  H    0.021288
     6  C   -0.342148
     7  H    0.012802
     8  H   -0.005594
     9  C   -0.199287
    10  H    0.325822
    11  H    0.032645
    12  H    0.106515
    13  H    0.039711
    14  H    0.042686
 Sum of Mulliken charges =   0.00000

 Dipole moment (field-independent basis, Debye):
    X=              0.4486    Y=             -0.0638    Z=             -0.1367  Tot=              0.4733
 Quadrupole moment (field-independent basis, Debye-Ang):
   XX=            -27.9436   YY=            -30.7830   ZZ=            -28.6203
   XY=             -0.7008   XZ=              2.3705   YZ=             -0.3470

 Normal termination of Gaussian 09 at Wed Aug 26 13:46:42 2020.
