 Gaussian 09, Revision D.01,
 Gaussian 09:  ES64L-G09RevD.01 24-Apr-2013

 --------------------
 #p B2PLYPD3/Def2QZVP
 --------------------

 ----------
 butane_opt
 ----------
 Symbolic Z-matrix:
 Charge =  0 Multiplicity = 1

                         Standard orientation:
 ---------------------------------------------------------------------
 Center     Atomic      Atomic             Coordinates (Angstroms)
 Number     Number       Type             X           Y           Z
 ---------------------------------------------------------------------
      1          6           0        1.922372    0.066094    0.127533
      2          6           0        0.582454   -0.418047   -0.224501
      3          1           0        2.802677   -0.787666    0.251301
      4          1           0        1.703319    0.610191    1.063686
      5          1           0        2.189610    0.931969   -0.735446
      6          6           0       -0.513516    0.508765   -0.045117
      7          1           0        0.274212   -1.176125    0.683282
      8          1           0        0.532566   -1.092960   -1.153465
      9          6           0       -1.933413   -0.138030    0.077332
     10          1           0       -0.507029    1.259082   -0.833777
     11          1           0       -0.365923    1.108349    0.884294
     12          1           0       -2.130866   -0.562448   -0.790716
     13          1           0       -2.697181    0.589987    0.001623
     14          1           0       -2.148767   -0.993070    1.017741
 ---------------------------------------------------------------------

 SCF Done:  E(RB2PLYPD3) =  -158.042928366     A.U. after   11 cycles
 E2(B2PLYPD3) =    -0.2499066452D+00 E(B2PLYPD3) =    -0.15829283501088D+03

 The electronic state is 1-A.
 Alpha  occ. eigenvalues --  -10.63052 -10.61619 -10.61051 -10.60576  -0.92652
 Alpha  occ. eigenvalues --   -0.83262  -0.72943  -0.64830  -0.54231  -0.49680
 Alpha  occ. eigenvalues --   -0.48920  -0.45791  -0.41996  -0.40551  -0.39905
 Alpha  occ. eigenvalues --   -0.38441  -0.34322
 Alpha virt. eigenvalues --    0.05480   0.06377   0.07800   0.08089   0.10471
 Alpha virt. eigenvalues --    0.11343   0.12617   0.13734   0.14040   0.14875
 Alpha virt. eigenvalues --    0.15470   0.16021   0.19504   0.20077   0.21125

 Mulliken charges:
               1
     1  C   -0.168632
     2  C   -0.017961
     3  H    0.056332
     4  H    0.062242
     5  H    0.022896
     6  C   -0.012283
     7  H   -0.000849
     8  H    0.033672
     9  C   -0.144691
    10  H    0.019960
    11  H    0.024070
    12  H    0.053727
    13  H    0.041188
    14  H    0.030330
 Sum of Mulliken charges =   0.00000

 Dipole moment (field-independent basis, Debye):
    X=             -0.2493    Y=              0.0907    Z=             -0.1890  Tot=              0.3257
 Quadrupole moment (field-independent basis, Debye-Ang):
   XX=            -30.0404   YY=            -29.5752   ZZ=            -28.7014
   XY=             -0.8406   XZ=              0.5809   YZ=             -0.1560

 Normal termination of Gaussian 09 at Wed Aug 26 12:55:53 2020.
