 Gaussian 09, Revision D.01,
 Gaussian 09:  ES64L-G09RevD.01 24-Apr-2013

 --------------------
 #p B2PLYPD3/Def2QZVP
 --------------------

 ----------
 butane_opt
 ----------
 Symbolic Z-matrix:
 Charge =  0 Multiplicity = 1

                         Standard orientation:
 ---------------------------------------------------------------------
 Center     Atomic      Atomic             Coordinates (Angstroms)
 Number     Number       Type             X           Y           Z
 ---------------------------------------------------------------------
      1          6           0        1.825981    0.089974   -0.090048
      2          6           0        0.618583   -0.480420    0.049680
      3          1           0        2.728991   -0.880195    0.106285
      4          1           0        1.668634    0.569340    0.674723
      5          1           0        2.264327    0.848715   -1.066891
      6          6           0       -0.500377    0.621224    0.123269
      7          1           0        0.722304   -1.302823    0.978257
      8          1           0        0.306803   -1.091898   -0.738993
      9          6           0       -1.952913   -0.151614   -0.090327
     10          1           0       -0.313717    0.948173   -0.600169
     11          1           0       -0.266036    1.564363    1.149869
     12          1           0       -1.868813   -0.626886   -0.715047
     13          1           0       -2.652995    0.378844   -0.569912
     14          1           0       -2.537141   -0.882623    0.826437
 ---------------------------------------------------------------------

 SCF Done:  E(RB2PLYPD3) =  -157.705337100     A.U. after   11 cycles
 E2(B2PLYPD3) =    -0.2518492380D+00 E(B2PLYPD3) =    -0.15795718633760D+03

 The electronic state is 1-A.
 Alpha  occ. eigenvalues --  -10.62494 -10.61309 -10.61103 -10.59027  -0.96251
 Alpha  occ. eigenvalues --   -0.87571  -0.77528  -0.67138  -0.54784  -0.50164
 Alpha  occ. eigenvalues --   -0.49356  -0.46551  -0.43033  -0.40875  -0.40464
 Alpha  occ. eigenvalues --   -0.36612  -0.34113
 Alpha virt. eigenvalues --    0.04827   0.06205   0.06750   0.07107   0.10810
 Alpha virt. eigenvalues --    0.10877   0.12782   0.13003   0.15266   0.15410
 Alpha virt. eigenvalues --    0.15843   0.16215   0.18317   0.19311   0.21067

 Mulliken charges:
               1
     1  C   -0.210318
     2  C    0.006461
     3  H    0.017650
     4  H    0.122086
     5  H    0.025700
     6  C   -0.314610
     7  H    0.022473
     8  H    0.031756
     9  C   -0.363284
    10  H    0.298738
    11  H    0.017044
    12  H    0.263737
    13  H    0.040847
    14  H    0.041719
 Sum of Mulliken charges =   0.00000

 Dipole moment (field-independent basis, Debye):
    X=             -0.2654    Y=             -0.1701    Z=             -0.6470  Tot=              0.7197
 Quadrupole moment (field-independent basis, Debye-Ang):
   XX=            -30.7372   YY=            -29.0437   ZZ=            -28.3132
   XY=              0.5075   XZ=              1.2120   YZ=             -0.4335

 Normal termination of Gaussian 09 at Wed Aug 26 15:44:41 2020.
