 Gaussian 09, Revision D.01,
 Gaussian 09:  ES64L-G09RevD.01 24-Apr-2013

 --------------------
 #p B2PLYPD3/Def2QZVP
 --------------------

 ----------
 butane_opt
 ----------
 Symbolic Z-matrix:
 Charge =  0 Multiplicity = 1

                         Standard orientation:
 ---------------------------------------------------------------------
 Center     Atomic      Atomic             Coordinates (Angstroms)
 Number     Number       Type             X           Y           Z
 ---------------------------------------------------------------------
      1          6           0       -1.984196   -0.122153    0.031098
      2          6           0       -0.580292    0.527344    0.018283
      3          1           0       -2.678327    0.501447   -0.486761
      4          1           0       -2.550110   -0.982138    1.081852
      5          1           0       -1.920954   -0.565339   -0.658307
      6          6           0        0.605475   -0.467367   -0.056562
      7          1           0       -0.404536    1.164644    0.927943
      8          1           0       -0.377442    1.289522   -0.908786
      9          6           0        1.987297    0.093304    0.029714
     10          1           0        0.512047   -1.269187   -1.056960
     11          1           0        0.508197   -1.046988    0.671708
     12          1           0        1.964532    0.683775   -0.779550
     13          1           0        2.755959   -0.761335    0.094559
     14          1           0        2.020936    0.798831    0.979103
 ---------------------------------------------------------------------

 SCF Done:  E(RB2PLYPD3) =  -157.906907437     A.U. after   11 cycles
 E2(B2PLYPD3) =    -0.2499438966D+00 E(B2PLYPD3) =    -0.15815685133328D+03

 The electronic state is 1-A.
 Alpha  occ. eigenvalues --  -10.63279 -10.60491 -10.60333 -10.60258  -0.92087
 Alpha  occ. eigenvalues --   -0.86004  -0.74127  -0.66815  -0.53884  -0.49015
 Alpha  occ. eigenvalues --   -0.48344  -0.46935  -0.42387  -0.40091  -0.39632
 Alpha  occ. eigenvalues --   -0.37088  -0.36364
 Alpha virt. eigenvalues --    0.04856   0.05677   0.07598   0.07671   0.10702
 Alpha virt. eigenvalues --    0.11183   0.12535   0.12971   0.14628   0.15381
 Alpha virt. eigenvalues --    0.15807   0.16268   0.19164   0.19371   0.20277

 Mulliken charges:
               1
     1  C   -0.348531
     2  C   -0.008944
     3  H    0.046766
     4  H    0.041621
     5  H    0.232528
     6  C   -0.060029
     7  H    0.028394
     8  H    0.005075
     9  C   -0.158916
    10  H   -0.020229
    11  H    0.082023
    12  H    0.069536
    13  H    0.060366
    14  H    0.030338
 Sum of Mulliken charges =   0.00000

 Dipole moment (field-independent basis, Debye):
    X=              0.0232    Y=             -0.1171    Z=             -0.2085  Tot=              0.2402
 Quadrupole moment (field-independent basis, Debye-Ang):
   XX=            -30.0680   YY=            -29.3066   ZZ=            -28.4107
   XY=             -0.1222   XZ=              1.0610   YZ=             -0.6840

 Normal termination of Gaussian 09 at Wed Aug 26 13:58:56 2020.
