 Gaussian 09, Revision D.01,
 Gaussian 09:  ES64L-G09RevD.01 24-Apr-2013

 --------------------
 #p B2PLYPD3/Def2QZVP
 --------------------

 ----------
 butane_opt
 ----------
 Symbolic Z-matrix:
 Charge =  0 Multiplicity = 1

                         Standard orientation:
 ---------------------------------------------------------------------
 Center     Atomic      Atomic             Coordinates (Angstroms)
 Number     Number       Type             X           Y           Z
 ---------------------------------------------------------------------
      1          6           0       -1.846005    0.055428   -0.153775
      2          6           0       -0.600268   -0.401027    0.243464
      3          1           0       -2.829207   -0.919730   -0.497930
      4          1           0       -1.284547    0.386958   -1.014759
      5          1           0       -2.411038    0.997529    0.699958
      6          6           0        0.502764    0.577541    0.000397
      7          1           0       -0.665269   -0.902189   -0.427164
      8          1           0       -0.327248   -1.302843    1.528731
      9          6           0        1.874192   -0.131988   -0.114917
     10          1           0        0.458798    1.498888    0.908834
     11          1           0        0.220547    0.841587   -0.908136
     12          1           0        2.189658   -0.574256    0.867932
     13          1           0        2.617592    0.584782    0.037379
     14          1           0        2.446619   -1.210444   -1.045862
 ---------------------------------------------------------------------

 SCF Done:  E(RB2PLYPD3) =  -157.719640122     A.U. after   12 cycles
 E2(B2PLYPD3) =    -0.2594781457D+00 E(B2PLYPD3) =    -0.15797911826813D+03

 The electronic state is 1-A.
 Alpha  occ. eigenvalues --  -10.66485 -10.64159 -10.64124 -10.61828  -1.00160
 Alpha  occ. eigenvalues --   -0.85616  -0.72568  -0.65459  -0.56632  -0.50558
 Alpha  occ. eigenvalues --   -0.48299  -0.46063  -0.41643  -0.39607  -0.37494
 Alpha  occ. eigenvalues --   -0.35325  -0.33427
 Alpha virt. eigenvalues --    0.03060   0.03717   0.05492   0.06325   0.08772
 Alpha virt. eigenvalues --    0.10029   0.11388   0.12423   0.13260   0.14275
 Alpha virt. eigenvalues --    0.15293   0.16180   0.18007   0.18888   0.19931

 Mulliken charges:
               1
     1  C   -0.161346
     2  C   -0.226169
     3  H    0.041776
     4  H    0.067325
     5  H    0.017382
     6  C   -0.057599
     7  H    0.274898
     8  H   -0.049955
     9  C   -0.164479
    10  H    0.042346
    11  H    0.093816
    12  H    0.038290
    13  H    0.051404
    14  H    0.032310
 Sum of Mulliken charges =   0.00000

 Dipole moment (field-independent basis, Debye):
    X=              0.4090    Y=              0.4276    Z=             -0.5941  Tot=              0.8385
 Quadrupole moment (field-independent basis, Debye-Ang):
   XX=            -30.7009   YY=            -30.6877   ZZ=            -30.2068
   XY=              0.7855   XZ=              1.3967   YZ=              1.8335

 Normal termination of Gaussian 09 at Wed Aug 26 15:04:51 2020.
