 Gaussian 09, Revision D.01,
 Gaussian 09:  ES64L-G09RevD.01 24-Apr-2013

 --------------------
 #p B2PLYPD3/Def2QZVP
 --------------------

 ----------
 butane_opt
 ----------
 Symbolic Z-matrix:
 Charge =  0 Multiplicity = 1

                         Standard orientation:
 ---------------------------------------------------------------------
 Center     Atomic      Atomic             Coordinates (Angstroms)
 Number     Number       Type             X           Y           Z
 ---------------------------------------------------------------------
      1          6           0       -1.993459    0.083683   -0.218441
      2          6           0       -0.590654   -0.519071    0.151292
      3          1           0       -2.754663   -0.548561   -0.062043
      4          1           0       -1.967066    0.944718   -1.089552
      5          1           0       -2.018809    0.547601    0.499029
      6          6           0        0.572857    0.574289    0.257571
      7          1           0       -0.217108   -1.096446   -0.564491
      8          1           0       -0.464110   -1.375046    1.137908
      9          6           0        1.925544   -0.151765   -0.153382
     10          1           0        0.379895    1.545003    1.456688
     11          1           0        0.633247    0.964340   -0.348838
     12          1           0        2.605467   -0.868722    0.754971
     13          1           0        2.681935    0.613062   -1.060567
     14          1           0        1.635490   -0.648762   -0.945337
 ---------------------------------------------------------------------

 SCF Done:  E(RB2PLYPD3) =  -157.643875589     A.U. after   11 cycles
 E2(B2PLYPD3) =    -0.2542118322D+00 E(B2PLYPD3) =    -0.15789808742129D+03

 The electronic state is 1-A.
 Alpha  occ. eigenvalues --  -10.65407 -10.63171 -10.62524 -10.58528  -0.93662
 Alpha  occ. eigenvalues --   -0.86520  -0.73267  -0.70896  -0.53269  -0.51039
 Alpha  occ. eigenvalues --   -0.47698  -0.45792  -0.42640  -0.40323  -0.38551
 Alpha  occ. eigenvalues --   -0.36592  -0.35081
 Alpha virt. eigenvalues --    0.03782   0.04823   0.06682   0.07532   0.09803
 Alpha virt. eigenvalues --    0.10910   0.11616   0.13548   0.14436   0.14569
 Alpha virt. eigenvalues --    0.15883   0.16046   0.17310   0.18696   0.20387

 Mulliken charges:
               1
     1  C   -0.278234
     2  C   -0.016855
     3  H    0.051356
     4  H    0.045620
     5  H    0.183178
     6  C   -0.525649
     7  H    0.063484
     8  H    0.011708
     9  C   -0.198430
    10  H    0.001952
    11  H    0.488807
    12  H    0.054655
    13  H    0.007166
    14  H    0.111242
 Sum of Mulliken charges =   0.00000

 Dipole moment (field-independent basis, Debye):
    X=             -0.5459    Y=             -0.3593    Z=             -0.5722  Tot=              0.8686
 Quadrupole moment (field-independent basis, Debye-Ang):
   XX=            -30.7359   YY=            -29.5792   ZZ=            -28.7753
   XY=             -1.1254   XZ=             -1.1524   YZ=             -0.9791

 Normal termination of Gaussian 09 at Wed Aug 26 22:11:58 2020.
