 Gaussian 09, Revision D.01,
 Gaussian 09:  ES64L-G09RevD.01 24-Apr-2013

 --------------------
 #p B2PLYPD3/Def2QZVP
 --------------------

 ----------
 butane_opt
 ----------
 Symbolic Z-matrix:
 Charge =  0 Multiplicity = 1

                         Standard orientation:
 ---------------------------------------------------------------------
 Center     Atomic      Atomic             Coordinates (Angstroms)
 Number     Number       Type             X           Y           Z
 ---------------------------------------------------------------------
      1          6           0       -1.955032   -0.116246    0.104732
      2          6           0       -0.616382    0.482010   -0.125007
      3          1           0       -2.704258    0.693217    0.079635
      4          1           0       -2.064986   -0.787939    1.040716
      5          1           0       -2.235839   -0.610962   -0.690187
      6          6           0        0.543928   -0.539502   -0.078327
      7          1           0       -0.477492    1.046488    0.641263
      8          1           0       -0.386782    1.416355   -1.187320
      9          6           0        2.007797    0.129573    0.073160
     10          1           0        0.399594   -1.134630   -0.891584
     11          1           0        0.434915   -1.174021    0.799942
     12          1           0        2.053746    0.251344   -0.570378
     13          1           0        2.807505   -0.580735   -0.279427
     14          1           0        2.291738    1.145875    1.209995
 ---------------------------------------------------------------------

 SCF Done:  E(RB2PLYPD3) =  -157.617489923     A.U. after   11 cycles
 E2(B2PLYPD3) =    -0.2514736005D+00 E(B2PLYPD3) =    -0.15786896352373D+03

 The electronic state is 1-A.
 Alpha  occ. eigenvalues --  -10.61835 -10.60776 -10.60611 -10.59571  -0.93153
 Alpha  occ. eigenvalues --   -0.88024  -0.76894  -0.67836  -0.53679  -0.49224
 Alpha  occ. eigenvalues --   -0.48275  -0.47190  -0.41837  -0.41255  -0.37961
 Alpha  occ. eigenvalues --   -0.37129  -0.35483
 Alpha virt. eigenvalues --    0.03832   0.05978   0.06410   0.07582   0.10350
 Alpha virt. eigenvalues --    0.10884   0.12442   0.12966   0.14548   0.15334
 Alpha virt. eigenvalues --    0.15917   0.16568   0.18817   0.19186   0.21120

 Mulliken charges:
               1
     1  C   -0.131374
     2  C   -0.075996
     3  H    0.039862
     4  H    0.047042
     5  H    0.051998
     6  C   -0.024089
     7  H    0.083330
     8  H   -0.019718
     9  C   -0.758552
    10  H    0.050261
    11  H    0.035429
    12  H    0.585334
    13  H    0.052282
    14  H    0.064192
 Sum of Mulliken charges =   0.00000

 Dipole moment (field-independent basis, Debye):
    X=             -0.2066    Y=             -0.2355    Z=             -0.1461  Tot=              0.3457
 Quadrupole moment (field-independent basis, Debye-Ang):
   XX=            -29.2698   YY=            -29.3165   ZZ=            -27.9745
   XY=              0.3811   XZ=             -1.0850   YZ=              1.0922

 Normal termination of Gaussian 09 at Wed Aug 26 10:51:15 2020.
