 Gaussian 09, Revision D.01,
 Gaussian 09:  ES64L-G09RevD.01 24-Apr-2013

 --------------------
 #p B2PLYPD3/Def2QZVP
 --------------------

 ----------
 butane_opt
 ----------
 Symbolic Z-matrix:
 Charge =  0 Multiplicity = 1

                         Standard orientation:
 ---------------------------------------------------------------------
 Center     Atomic      Atomic             Coordinates (Angstroms)
 Number     Number       Type             X           Y           Z
 ---------------------------------------------------------------------
      1          6           0        1.939510   -0.169561   -0.171150
      2          6           0        0.468027    0.516557    0.117553
      3          1           0        2.692572    0.469532   -0.636487
      4          1           0        1.848508   -0.709180   -0.888539
      5          1           0        2.400190   -0.755142    0.804746
      6          6           0       -0.584487   -0.394029    0.240119
      7          1           0        0.266353    0.805545   -0.428404
      8          1           0        0.715617    1.518457    1.066574
      9          6           0       -1.881858    0.074454   -0.194235
     10          1           0       -0.412867   -0.934862    1.291042
     11          1           0       -0.367190   -0.992924   -0.498486
     12          1           0       -1.993664    0.635613    0.461520
     13          1           0       -2.811306   -0.794086   -0.146825
     14          1           0       -1.985374    0.592517   -0.978863
 ---------------------------------------------------------------------

 SCF Done:  E(RB2PLYPD3) =  -157.575105813     A.U. after   11 cycles
 E2(B2PLYPD3) =    -0.2481223853D+00 E(B2PLYPD3) =    -0.15782322819877D+03

 The electronic state is 1-A.
 Alpha  occ. eigenvalues --  -10.59896 -10.59415 -10.59093 -10.57215  -0.98442
 Alpha  occ. eigenvalues --   -0.86139  -0.78280  -0.70981  -0.57565  -0.53301
 Alpha  occ. eigenvalues --   -0.49440  -0.46850  -0.44298  -0.41806  -0.40277
 Alpha  occ. eigenvalues --   -0.38186  -0.34142
 Alpha virt. eigenvalues --    0.05219   0.06657   0.07744   0.08736   0.11161
 Alpha virt. eigenvalues --    0.11815   0.12954   0.13139   0.15017   0.15598
 Alpha virt. eigenvalues --    0.16150   0.16507   0.18644   0.20116   0.21302

 Mulliken charges:
               1
     1  C   -0.152352
     2  C   -0.700594
     3  H    0.035689
     4  H    0.098303
     5  H    0.039671
     6  C   -0.011790
     7  H    0.601223
     8  H    0.001320
     9  C   -0.229727
    10  H    0.035288
    11  H    0.073183
    12  H    0.137343
    13  H    0.030162
    14  H    0.042282
 Sum of Mulliken charges =   0.00000

 Dipole moment (field-independent basis, Debye):
    X=             -0.0986    Y=             -0.0761    Z=             -0.7534  Tot=              0.7636
 Quadrupole moment (field-independent basis, Debye-Ang):
   XX=            -29.1107   YY=            -29.4531   ZZ=            -27.5228
   XY=             -0.5755   XZ=             -0.1828   YZ=             -0.5271

 Normal termination of Gaussian 09 at Wed Aug 26 16:11:55 2020.
