 Gaussian 09, Revision D.01,
 Gaussian 09:  ES64L-G09RevD.01 24-Apr-2013

 --------------------
 #p B2PLYPD3/Def2QZVP
 --------------------

 ----------
 butane_opt
 ----------
 Symbolic Z-matrix:
 Charge =  0 Multiplicity = 1

                         Standard orientation:
 ---------------------------------------------------------------------
 Center     Atomic      Atomic             Coordinates (Angstroms)
 Number     Number       Type             X           Y           Z
 ---------------------------------------------------------------------
      1          6           0        1.870965    0.150449   -0.166982
      2          6           0        0.496675   -0.566907    0.245376
      3          1           0        2.689353   -0.640079   -0.566223
      4          1           0        2.412783    0.530963    0.625653
      5          1           0        1.957714    0.940744   -1.106867
      6          6           0       -0.550455    0.497750    0.260739
      7          1           0        0.730579   -1.005092    1.022188
      8          1           0        0.175897   -1.241773   -0.584632
      9          6           0       -1.916763   -0.121827   -0.204458
     10          1           0       -0.077914    1.017928   -0.398311
     11          1           0       -0.642236    1.292844    1.183962
     12          1           0       -1.543322   -0.550119   -0.902253
     13          1           0       -2.817344    0.715223   -0.641352
     14          1           0       -2.288041   -0.817429    0.559785
 ---------------------------------------------------------------------

 SCF Done:  E(RB2PLYPD3) =  -157.969207803     A.U. after   11 cycles
 E2(B2PLYPD3) =    -0.2492007066D+00 E(B2PLYPD3) =    -0.15821840851005D+03

 The electronic state is 1-A.
 Alpha  occ. eigenvalues --  -10.62154 -10.60340 -10.60234 -10.60078  -0.93189
 Alpha  occ. eigenvalues --   -0.82822  -0.73361  -0.69185  -0.56178  -0.49504
 Alpha  occ. eigenvalues --   -0.48254  -0.46824  -0.42351  -0.40584  -0.38757
 Alpha  occ. eigenvalues --   -0.37831  -0.36861
 Alpha virt. eigenvalues --    0.05747   0.06543   0.08000   0.09013   0.11103
 Alpha virt. eigenvalues --    0.11539   0.12134   0.12904   0.14625   0.15465
 Alpha virt. eigenvalues --    0.16419   0.17519   0.18774   0.19499   0.20825

 Mulliken charges:
               1
     1  C   -0.152929
     2  C   -0.066031
     3  H    0.012491
     4  H    0.057646
     5  H    0.030748
     6  C   -0.070077
     7  H    0.074981
     8  H    0.038364
     9  C   -0.227665
    10  H    0.081392
    11  H    0.010372
    12  H    0.123886
    13  H    0.026514
    14  H    0.060308
 Sum of Mulliken charges =   0.00000

 Dipole moment (field-independent basis, Debye):
    X=              0.3271    Y=             -0.2817    Z=              0.0171  Tot=              0.4320
 Quadrupole moment (field-independent basis, Debye-Ang):
   XX=            -30.0753   YY=            -29.1266   ZZ=            -28.4779
   XY=              0.3712   XZ=              0.2935   YZ=             -0.4617

 Normal termination of Gaussian 09 at Wed Aug 26 11:12:10 2020.
