 Gaussian 09, Revision D.01,
 Gaussian 09:  ES64L-G09RevD.01 24-Apr-2013

 --------------------
 #p B2PLYPD3/Def2QZVP
 --------------------

 ----------
 butane_opt
 ----------
 Symbolic Z-matrix:
 Charge =  0 Multiplicity = 1

                         Standard orientation:
 ---------------------------------------------------------------------
 Center     Atomic      Atomic             Coordinates (Angstroms)
 Number     Number       Type             X           Y           Z
 ---------------------------------------------------------------------
      1          6           0        1.892030    0.077678   -0.014551
      2          6           0        0.567825   -0.485798    0.025417
      3          1           0        2.668172   -0.674485   -0.207235
      4          1           0        2.226731    1.100636    1.117688
      5          1           0        1.869253    0.435324   -0.655413
      6          6           0       -0.519208    0.512238   -0.085551
      7          1           0        0.570386   -1.051632    0.851237
      8          1           0        0.404137   -1.073993   -0.800741
      9          6           0       -1.910770   -0.132374    0.060088
     10          1           0       -0.386665    1.266112   -1.076319
     11          1           0       -0.515779    1.052347    0.626716
     12          1           0       -2.173330   -0.859809   -0.750492
     13          1           0       -2.759244    0.691875    0.073875
     14          1           0       -2.082923   -0.716839    0.908264
 ---------------------------------------------------------------------

 SCF Done:  E(RB2PLYPD3) =  -157.814153583     A.U. after   11 cycles
 E2(B2PLYPD3) =    -0.2476359217D+00 E(B2PLYPD3) =    -0.15806178950456D+03

 The electronic state is 1-A.
 Alpha  occ. eigenvalues --  -10.60710 -10.59778 -10.59349 -10.58049  -0.95316
 Alpha  occ. eigenvalues --   -0.86213  -0.74960  -0.69710  -0.57410  -0.51273
 Alpha  occ. eigenvalues --   -0.48760  -0.46780  -0.44189  -0.40420  -0.39231
 Alpha  occ. eigenvalues --   -0.38614  -0.35864
 Alpha virt. eigenvalues --    0.04622   0.06053   0.07844   0.08005   0.10899
 Alpha virt. eigenvalues --    0.11069   0.12736   0.13263   0.14696   0.14802
 Alpha virt. eigenvalues --    0.15882   0.16484   0.19649   0.20352   0.21263

 Mulliken charges:
               1
     1  C   -0.494692
     2  C   -0.005246
     3  H    0.062173
     4  H   -0.009782
     5  H    0.368082
     6  C   -0.099583
     7  H    0.045653
     8  H    0.040957
     9  C   -0.130890
    10  H    0.004456
    11  H    0.112967
    12  H    0.026135
    13  H    0.030307
    14  H    0.049463
 Sum of Mulliken charges =   0.00000

 Dipole moment (field-independent basis, Debye):
    X=             -0.1916    Y=             -0.4257    Z=             -0.2760  Tot=              0.5423
 Quadrupole moment (field-independent basis, Debye-Ang):
   XX=            -30.4826   YY=            -28.6420   ZZ=            -28.2421
   XY=             -0.8586   XZ=             -1.5458   YZ=              0.0866

 Normal termination of Gaussian 09 at Wed Aug 26 22:05:40 2020.
