 Gaussian 09, Revision D.01,
 Gaussian 09:  ES64L-G09RevD.01 24-Apr-2013

 --------------------
 #p B2PLYPD3/Def2QZVP
 --------------------

 ----------
 butane_opt
 ----------
 Symbolic Z-matrix:
 Charge =  0 Multiplicity = 1

                         Standard orientation:
 ---------------------------------------------------------------------
 Center     Atomic      Atomic             Coordinates (Angstroms)
 Number     Number       Type             X           Y           Z
 ---------------------------------------------------------------------
      1          6           0        1.903606   -0.195414   -0.115291
      2          6           0        0.527000    0.570578    0.212900
      3          1           0        2.614820    0.519913   -0.730584
      4          1           0        1.654385   -0.501116   -0.706162
      5          1           0        2.658107   -0.828559    0.726009
      6          6           0       -0.539934   -0.462264    0.025758
      7          1           0        0.456352    1.247280   -0.618055
      8          1           0        0.526362    1.281943    1.179147
      9          6           0       -1.921944    0.094341   -0.038312
     10          1           0       -0.358876   -1.150063    0.917176
     11          1           0       -0.517628   -1.274632   -0.789621
     12          1           0       -1.954157    0.419969    0.625377
     13          1           0       -2.890879   -0.761942   -0.010988
     14          1           0       -2.000854    1.003764   -1.102631
 ---------------------------------------------------------------------

 SCF Done:  E(RB2PLYPD3) =  -157.628988338     A.U. after   11 cycles
 E2(B2PLYPD3) =    -0.2513078209D+00 E(B2PLYPD3) =    -0.15788029615926D+03

 The electronic state is 1-A.
 Alpha  occ. eigenvalues --  -10.62780 -10.61704 -10.60923 -10.59475  -0.93830
 Alpha  occ. eigenvalues --   -0.87408  -0.75809  -0.67550  -0.54304  -0.51604
 Alpha  occ. eigenvalues --   -0.47796  -0.45746  -0.43660  -0.39786  -0.38684
 Alpha  occ. eigenvalues --   -0.38198  -0.34908
 Alpha virt. eigenvalues --    0.05043   0.06045   0.07398   0.07885   0.09950
 Alpha virt. eigenvalues --    0.10596   0.12414   0.13423   0.14548   0.15325
 Alpha virt. eigenvalues --    0.15983   0.16236   0.17949   0.19661   0.21232

 Mulliken charges:
               1
     1  C   -0.632250
     2  C   -0.012043
     3  H    0.036363
     4  H    0.474177
     5  H    0.070246
     6  C   -0.009837
     7  H    0.048480
     8  H    0.033767
     9  C   -0.499507
    10  H    0.021611
    11  H    0.026087
    12  H    0.376073
    13  H    0.042435
    14  H    0.024398
 Sum of Mulliken charges =   0.00000

 Dipole moment (field-independent basis, Debye):
    X=              0.0757    Y=             -0.0612    Z=              0.1146  Tot=              0.1503
 Quadrupole moment (field-independent basis, Debye-Ang):
   XX=            -30.6400   YY=            -29.0126   ZZ=            -28.2726
   XY=              0.2784   XZ=             -0.5895   YZ=             -0.1332

 Normal termination of Gaussian 09 at Wed Aug 26 09:48:48 2020.
