 Gaussian 09, Revision D.01,
 Gaussian 09:  ES64L-G09RevD.01 24-Apr-2013

 --------------------
 #p B2PLYPD3/Def2QZVP
 --------------------

 ----------
 butane_opt
 ----------
 Symbolic Z-matrix:
 Charge =  0 Multiplicity = 1

                         Standard orientation:
 ---------------------------------------------------------------------
 Center     Atomic      Atomic             Coordinates (Angstroms)
 Number     Number       Type             X           Y           Z
 ---------------------------------------------------------------------
      1          6           0       -1.981608    0.172378   -0.114607
      2          6           0       -0.480465   -0.587666    0.028731
      3          1           0       -2.611733   -0.583782    0.376868
      4          1           0       -2.207647    1.514093   -1.223142
      5          1           0       -1.984448    0.304927    0.478772
      6          6           0        0.572864    0.375504    0.230966
      7          1           0       -0.266345   -0.988369   -0.706921
      8          1           0       -0.423031   -1.587446    0.911153
      9          6           0        1.862384   -0.014229   -0.204522
     10          1           0        0.778923    1.278434    1.671105
     11          1           0        0.189435    0.803829   -0.412727
     12          1           0        1.961524   -0.587342    0.395652
     13          1           0        2.602425    0.740351    0.103935
     14          1           0        2.121844   -0.570616   -1.238102
 ---------------------------------------------------------------------

 SCF Done:  E(RB2PLYPD3) =  -157.158839458     A.U. after   12 cycles
 E2(B2PLYPD3) =    -0.2585604410D+00 E(B2PLYPD3) =    -0.15741739989914D+03

 The electronic state is 1-A.
 Alpha  occ. eigenvalues --  -10.62691 -10.62594 -10.61779 -10.57692  -0.98464
 Alpha  occ. eigenvalues --   -0.91529  -0.81830  -0.69746  -0.54816  -0.50719
 Alpha  occ. eigenvalues --   -0.49437  -0.46244  -0.42940  -0.40266  -0.38052
 Alpha  occ. eigenvalues --   -0.35469  -0.33913
 Alpha virt. eigenvalues --   -0.01345   0.01621   0.05994   0.07085   0.09793
 Alpha virt. eigenvalues --    0.11351   0.11950   0.12771   0.13563   0.15030
 Alpha virt. eigenvalues --    0.16069   0.16567   0.17265   0.18784   0.20606

 Mulliken charges:
               1
     1  C   -0.858322
     2  C   -0.153752
     3  H    0.065040
     4  H    0.069403
     5  H    0.708649
     6  C   -0.174436
     7  H    0.178282
     8  H   -0.012221
     9  C   -0.298146
    10  H   -0.035924
    11  H    0.207145
    12  H    0.206692
    13  H    0.059104
    14  H    0.038486
 Sum of Mulliken charges =   0.00000

 Dipole moment (field-independent basis, Debye):
    X=              0.2197    Y=             -0.2354    Z=             -0.2792  Tot=              0.4262
 Quadrupole moment (field-independent basis, Debye-Ang):
   XX=            -29.8863   YY=            -29.3313   ZZ=            -28.7474
   XY=             -1.0762   XZ=             -1.1961   YZ=             -1.1539

 Normal termination of Gaussian 09 at Wed Aug 26 23:02:44 2020.
