 Gaussian 09, Revision D.01,
 Gaussian 09:  ES64L-G09RevD.01 24-Apr-2013

 --------------------
 #p B2PLYPD3/Def2QZVP
 --------------------

 ----------
 butane_opt
 ----------
 Symbolic Z-matrix:
 Charge =  0 Multiplicity = 1

                         Standard orientation:
 ---------------------------------------------------------------------
 Center     Atomic      Atomic             Coordinates (Angstroms)
 Number     Number       Type             X           Y           Z
 ---------------------------------------------------------------------
      1          6           0       -1.942428    0.033098    0.220217
      2          6           0       -0.658058   -0.474919   -0.256506
      3          1           0       -2.677861   -0.635103    0.015242
      4          1           0       -2.264503    0.520605   -0.604992
      5          1           0       -1.747187    0.911377    1.327451
      6          6           0        0.536984    0.647193   -0.180047
      7          1           0       -0.812822   -1.024584   -1.172270
      8          1           0       -0.139362   -1.263755    0.748873
      9          6           0        1.954487   -0.136785    0.146751
     10          1           0        0.246654    0.927736    0.513281
     11          1           0        0.649988    1.557865   -1.113871
     12          1           0        1.953251   -0.925518    0.938084
     13          1           0        2.695335    0.395914    0.650255
     14          1           0        2.750592   -0.876059   -0.884546
 ---------------------------------------------------------------------

 SCF Done:  E(RB2PLYPD3) =  -157.803734706     A.U. after   11 cycles
 E2(B2PLYPD3) =    -0.2549053357D+00 E(B2PLYPD3) =    -0.15805864004184D+03

 The electronic state is 1-A.
 Alpha  occ. eigenvalues --  -10.64115 -10.63975 -10.62597 -10.61632  -0.92198
 Alpha  occ. eigenvalues --   -0.84320  -0.74179  -0.66873  -0.54109  -0.48975
 Alpha  occ. eigenvalues --   -0.47924  -0.46229  -0.40931  -0.40124  -0.37955
 Alpha  occ. eigenvalues --   -0.37008  -0.33365
 Alpha virt. eigenvalues --    0.04341   0.05142   0.06924   0.07440   0.09497
 Alpha virt. eigenvalues --    0.10889   0.11214   0.12774   0.13844   0.14939
 Alpha virt. eigenvalues --    0.15375   0.16093   0.18354   0.18730   0.20299

 Mulliken charges:
               1
     1  C   -0.159789
     2  C   -0.033366
     3  H    0.062145
     4  H    0.054553
     5  H    0.038760
     6  C   -0.341521
     7  H    0.058527
     8  H   -0.006973
     9  C   -0.126463
    10  H    0.318973
    11  H    0.042606
    12  H    0.038040
    13  H    0.054140
    14  H    0.000368
 Sum of Mulliken charges =   0.00000

 Dipole moment (field-independent basis, Debye):
    X=             -0.6866    Y=              0.3225    Z=              0.0038  Tot=              0.7586
 Quadrupole moment (field-independent basis, Debye-Ang):
   XX=            -29.7285   YY=            -30.2887   ZZ=            -28.6929
   XY=              0.5794   XZ=              2.9708   YZ=              0.5804

 Normal termination of Gaussian 09 at Wed Aug 26 23:33:07 2020.
