 Gaussian 09, Revision D.01,
 Gaussian 09:  ES64L-G09RevD.01 24-Apr-2013

 --------------------
 #p B2PLYPD3/Def2QZVP
 --------------------

 ----------
 butane_opt
 ----------
 Symbolic Z-matrix:
 Charge =  0 Multiplicity = 1

                         Standard orientation:
 ---------------------------------------------------------------------
 Center     Atomic      Atomic             Coordinates (Angstroms)
 Number     Number       Type             X           Y           Z
 ---------------------------------------------------------------------
      1          6           0        1.851053   -0.156387   -0.184633
      2          6           0        0.626721    0.396886    0.309456
      3          1           0        2.886690    0.923116   -0.794418
      4          1           0        1.357662   -0.571717   -1.073143
      5          1           0        2.494205   -0.711065    0.583596
      6          6           0       -0.524980   -0.553535    0.153400
      7          1           0        0.450266    1.239396   -0.570532
      8          1           0        0.908576    1.204821    1.340928
      9          6           0       -2.029939    0.216549   -0.134503
     10          1           0       -0.514341   -1.350021    0.963307
     11          1           0       -0.175780   -1.102398   -0.717318
     12          1           0       -2.162125    0.605650    0.796648
     13          1           0       -2.783876   -0.603120   -0.479169
     14          1           0       -1.998406    0.944269   -0.912218
 ---------------------------------------------------------------------

 SCF Done:  E(RB2PLYPD3) =  -157.948102648     A.U. after   11 cycles
 E2(B2PLYPD3) =    -0.2549824681D+00 E(B2PLYPD3) =    -0.15820308511630D+03

 The electronic state is 1-A.
 Alpha  occ. eigenvalues --  -10.64839 -10.64208 -10.63306 -10.61893  -0.93070
 Alpha  occ. eigenvalues --   -0.82367  -0.72903  -0.63522  -0.55586  -0.50389
 Alpha  occ. eigenvalues --   -0.48192  -0.46136  -0.43085  -0.42309  -0.37495
 Alpha  occ. eigenvalues --   -0.35769  -0.32320
 Alpha virt. eigenvalues --    0.02974   0.06077   0.06869   0.07547   0.09266
 Alpha virt. eigenvalues --    0.10488   0.11865   0.12871   0.14260   0.14877
 Alpha virt. eigenvalues --    0.15806   0.16157   0.17860   0.19101   0.20536

 Mulliken charges:
               1
     1  C   -0.143911
     2  C   -0.077177
     3  H   -0.034807
     4  H    0.068693
     5  H    0.071944
     6  C   -0.060349
     7  H    0.050525
     8  H    0.018531
     9  C   -0.164046
    10  H    0.038801
    11  H    0.040823
    12  H    0.087741
    13  H    0.044866
    14  H    0.058364
 Sum of Mulliken charges =   0.00000

 Dipole moment (field-independent basis, Debye):
    X=             -0.8279    Y=             -0.4921    Z=              0.0366  Tot=              0.9638
 Quadrupole moment (field-independent basis, Debye-Ang):
   XX=            -32.3975   YY=            -29.9292   ZZ=            -29.1516
   XY=             -0.7984   XZ=              1.7117   YZ=             -0.3919

 Normal termination of Gaussian 09 at Wed Aug 26 13:08:37 2020.
