 Gaussian 09, Revision D.01,
 Gaussian 09:  ES64L-G09RevD.01 24-Apr-2013

 --------------------
 #p B2PLYPD3/Def2QZVP
 --------------------

 ----------
 butane_opt
 ----------
 Symbolic Z-matrix:
 Charge =  0 Multiplicity = 1

                         Standard orientation:
 ---------------------------------------------------------------------
 Center     Atomic      Atomic             Coordinates (Angstroms)
 Number     Number       Type             X           Y           Z
 ---------------------------------------------------------------------
      1          6           0        1.868030    0.118194    0.107718
      2          6           0        0.593409   -0.467305   -0.224838
      3          1           0        2.692377   -0.754869    0.422530
      4          1           0        1.627597    0.534610    1.052048
      5          1           0        2.318493    0.694218   -0.669007
      6          6           0       -0.508205    0.556936   -0.029236
      7          1           0        0.475906   -1.076317    0.518416
      8          1           0        0.633391   -1.024678   -1.126916
      9          6           0       -1.965392   -0.176192    0.042664
     10          1           0       -0.458180    1.377348   -0.837573
     11          1           0       -0.365234    1.065207    0.881495
     12          1           0       -2.025268   -0.453799   -0.689447
     13          1           0       -2.748619    0.553079    0.087225
     14          1           0       -2.077509   -1.104601    0.983383
 ---------------------------------------------------------------------

 SCF Done:  E(RB2PLYPD3) =  -157.941934588     A.U. after   11 cycles
 E2(B2PLYPD3) =    -0.2472028733D+00 E(B2PLYPD3) =    -0.15818913746139D+03

 The electronic state is 1-A.
 Alpha  occ. eigenvalues --  -10.61256 -10.59816 -10.59015 -10.57723  -0.93222
 Alpha  occ. eigenvalues --   -0.85087  -0.73711  -0.67791  -0.56571  -0.51092
 Alpha  occ. eigenvalues --   -0.48177  -0.47136  -0.43065  -0.41349  -0.39853
 Alpha  occ. eigenvalues --   -0.37915  -0.35874
 Alpha virt. eigenvalues --    0.05679   0.06618   0.08202   0.08614   0.10910
 Alpha virt. eigenvalues --    0.11536   0.12561   0.13988   0.14507   0.15704
 Alpha virt. eigenvalues --    0.16060   0.16582   0.18966   0.19925   0.21833

 Mulliken charges:
               1
     1  C   -0.149536
     2  C   -0.070529
     3  H    0.009494
     4  H    0.057731
     5  H    0.055455
     6  C   -0.038637
     7  H    0.076954
     8  H    0.030999
     9  C   -0.381514
    10  H    0.015298
    11  H    0.048010
    12  H    0.267072
    13  H    0.049333
    14  H    0.029869
 Sum of Mulliken charges =   0.00000

 Dipole moment (field-independent basis, Debye):
    X=             -0.1536    Y=              0.0231    Z=             -0.1718  Tot=              0.2315
 Quadrupole moment (field-independent basis, Debye-Ang):
   XX=            -30.3969   YY=            -28.8896   ZZ=            -27.6811
   XY=             -0.4732   XZ=              0.0057   YZ=             -0.3955

 Normal termination of Gaussian 09 at Wed Aug 26 14:52:15 2020.
