 Gaussian 09, Revision D.01,
 Gaussian 09:  ES64L-G09RevD.01 24-Apr-2013

 --------------------
 #p B2PLYPD3/Def2QZVP
 --------------------

 ----------
 butane_opt
 ----------
 Symbolic Z-matrix:
 Charge =  0 Multiplicity = 1

                         Standard orientation:
 ---------------------------------------------------------------------
 Center     Atomic      Atomic             Coordinates (Angstroms)
 Number     Number       Type             X           Y           Z
 ---------------------------------------------------------------------
      1          6           0       -1.873191   -0.101984    0.079466
      2          6           0       -0.599738    0.380324   -0.118693
      3          1           0       -2.849164    0.938684   -0.275672
      4          1           0       -1.981083   -0.995621    1.171793
      5          1           0       -1.877281   -0.373321   -0.381388
      6          6           0        0.454977   -0.525653   -0.069022
      7          1           0       -0.402012    0.997623    0.779783
      8          1           0       -0.449096    1.160934   -1.133020
      9          6           0        1.933824    0.143893    0.053471
     10          1           0        0.334410   -1.012631   -0.907311
     11          1           0        0.593686   -1.082981    0.706849
     12          1           0        2.214876    0.217336   -0.399317
     13          1           0        2.731341   -0.507273   -0.464780
     14          1           0        2.189092    1.277765    1.231724
 ---------------------------------------------------------------------

 SCF Done:  E(RB2PLYPD3) =  -156.303972467     A.U. after   13 cycles
 E2(B2PLYPD3) =    -0.2589852360D+00 E(B2PLYPD3) =    -0.15656295770346D+03

 The electronic state is 1-A.
 Alpha  occ. eigenvalues --  -10.64272 -10.63561 -10.60851 -10.59005  -0.99586
 Alpha  occ. eigenvalues --   -0.96166  -0.84815  -0.69301  -0.58747  -0.52777
 Alpha  occ. eigenvalues --   -0.49594  -0.46134  -0.41318  -0.37500  -0.36768
 Alpha  occ. eigenvalues --   -0.35594  -0.33642
 Alpha virt. eigenvalues --    0.01497   0.03580   0.05222   0.06256   0.09411
 Alpha virt. eigenvalues --    0.10128   0.11542   0.12563   0.13576   0.15088
 Alpha virt. eigenvalues --    0.15794   0.16428   0.17661   0.20065   0.21705

 Mulliken charges:
               1
     1  C   -0.951550
     2  C    0.068614
     3  H    0.044826
     4  H    0.059530
     5  H    0.727999
     6  C   -0.057171
     7  H    0.026028
     8  H    0.024200
     9  C   -0.911735
    10  H    0.040593
    11  H    0.072814
    12  H    0.780062
    13  H    0.023508
    14  H    0.052283
 Sum of Mulliken charges =   0.00000

 Dipole moment (field-independent basis, Debye):
    X=              0.3865    Y=             -0.3576    Z=             -0.9033  Tot=              1.0456
 Quadrupole moment (field-independent basis, Debye-Ang):
   XX=            -30.9347   YY=            -29.2911   ZZ=            -27.4647
   XY=              0.6195   XZ=             -1.4657   YZ=              0.4215

 Normal termination of Gaussian 09 at Wed Aug 26 18:50:00 2020.
