 Gaussian 09, Revision D.01,
 Gaussian 09:  ES64L-G09RevD.01 24-Apr-2013

 --------------------
 #p B2PLYPD3/Def2QZVP
 --------------------

 ----------
 butane_opt
 ----------
 Symbolic Z-matrix:
 Charge =  0 Multiplicity = 1

                         Standard orientation:
 ---------------------------------------------------------------------
 Center     Atomic      Atomic             Coordinates (Angstroms)
 Number     Number       Type             X           Y           Z
 ---------------------------------------------------------------------
      1          6           0       -1.939961   -0.112272    0.123361
      2          6           0       -0.672931    0.507918   -0.171792
      3          1           0       -2.876171    0.772062    0.048654
      4          1           0       -1.940059   -0.927329    1.246387
      5          1           0       -2.209824   -0.444945   -0.514024
      6          6           0        0.558171   -0.598018    0.002443
      7          1           0       -0.340973    0.954518    0.350043
      8          1           0       -0.473251    1.453276   -1.290586
      9          6           0        2.015211    0.172299    0.099513
     10          1           0        0.461746   -1.557443   -1.084726
     11          1           0        0.509467   -1.009801    0.756631
     12          1           0        1.992120   -0.008799   -0.392772
     13          1           0        2.591885   -0.389750   -0.732517
     14          1           0        2.522122    1.338642    1.291763
 ---------------------------------------------------------------------

 SCF Done:  E(RB2PLYPD3) =  -156.515056351     A.U. after   15 cycles
 E2(B2PLYPD3) =    -0.2661982544D+00 E(B2PLYPD3) =    -0.15678125460517D+03

 The electronic state is 1-A.
 Alpha  occ. eigenvalues --  -10.65429 -10.64758 -10.61660 -10.61302  -1.02858
 Alpha  occ. eigenvalues --   -0.92419  -0.80808  -0.72980  -0.52436  -0.51345
 Alpha  occ. eigenvalues --   -0.46282  -0.45247  -0.43936  -0.39009  -0.36325
 Alpha  occ. eigenvalues --   -0.34973  -0.26651
 Alpha virt. eigenvalues --   -0.02143   0.02877   0.04414   0.05063   0.08016
 Alpha virt. eigenvalues --    0.09959   0.12022   0.12454   0.14204   0.14585
 Alpha virt. eigenvalues --    0.15891   0.16041   0.17874   0.18673   0.19818

 Mulliken charges:
               1
     1  C   -0.354827
     2  C   -0.357190
     3  H    0.021904
     4  H    0.053851
     5  H    0.293708
     6  C   -0.169665
     7  H    0.371097
     8  H    0.002120
     9  C   -1.226607
    10  H   -0.006428
    11  H    0.189098
    12  H    0.966738
    13  H    0.084347
    14  H    0.131854
 Sum of Mulliken charges =   0.00000

 Dipole moment (field-independent basis, Debye):
    X=             -0.1177    Y=              0.0815    Z=             -0.3077  Tot=              0.3394
 Quadrupole moment (field-independent basis, Debye-Ang):
   XX=            -30.5677   YY=            -30.0711   ZZ=            -27.2876
   XY=              2.0513   XZ=             -0.9395   YZ=              1.8164

 Normal termination of Gaussian 09 at Wed Aug 26 22:32:35 2020.
