 Gaussian 09, Revision D.01,
 Gaussian 09:  ES64L-G09RevD.01 24-Apr-2013

 --------------------
 #p B2PLYPD3/Def2QZVP
 --------------------

 ----------
 butane_opt
 ----------
 Symbolic Z-matrix:
 Charge =  0 Multiplicity = 1

                         Standard orientation:
 ---------------------------------------------------------------------
 Center     Atomic      Atomic             Coordinates (Angstroms)
 Number     Number       Type             X           Y           Z
 ---------------------------------------------------------------------
      1          6           0       -1.935094   -0.154852   -0.110408
      2          6           0       -0.470981    0.501644   -0.014349
      3          1           0       -2.899856    0.729777   -0.099348
      4          1           0       -2.129575   -0.561362    0.687833
      5          1           0       -2.312219   -1.132333   -0.969752
      6          6           0        0.556094   -0.377356    0.291348
      7          1           0       -0.612336    1.364280    0.795110
      8          1           0       -0.022657    0.846163   -0.753420
      9          6           0        1.892764    0.079920   -0.155910
     10          1           0        0.525347   -0.820202   -0.238134
     11          1           0        0.646532   -1.131524    1.433238
     12          1           0        1.665965    0.229749   -0.841321
     13          1           0        2.708655   -0.900138   -0.652944
     14          1           0        2.173447    1.079454    0.574647
 ---------------------------------------------------------------------

 SCF Done:  E(RB2PLYPD3) =  -157.466539573     A.U. after   11 cycles
 E2(B2PLYPD3) =    -0.2523354817D+00 E(B2PLYPD3) =    -0.15771887505432D+03

 The electronic state is 1-A.
 Alpha  occ. eigenvalues --  -10.63732 -10.61254 -10.61050 -10.58220  -1.01282
 Alpha  occ. eigenvalues --   -0.85575  -0.76766  -0.71789  -0.57204  -0.51394
 Alpha  occ. eigenvalues --   -0.49747  -0.46205  -0.42435  -0.41063  -0.38512
 Alpha  occ. eigenvalues --   -0.36886  -0.36214
 Alpha virt. eigenvalues --    0.04262   0.05174   0.07493   0.07793   0.10137
 Alpha virt. eigenvalues --    0.11440   0.11959   0.12715   0.13794   0.14493
 Alpha virt. eigenvalues --    0.15738   0.16917   0.17952   0.19693   0.20453

 Mulliken charges:
               1
     1  C   -0.211389
     2  C   -0.015283
     3  H    0.023806
     4  H    0.128561
     5  H    0.020750
     6  C   -0.651235
     7  H    0.017139
     8  H    0.086530
     9  C   -0.553598
    10  H    0.609817
    11  H    0.011179
    12  H    0.432867
    13  H    0.037003
    14  H    0.063853
 Sum of Mulliken charges =   0.00000

 Dipole moment (field-independent basis, Debye):
    X=             -0.1094    Y=              0.0693    Z=             -0.4112  Tot=              0.4311
 Quadrupole moment (field-independent basis, Debye-Ang):
   XX=            -31.0497   YY=            -29.0942   ZZ=            -28.8154
   XY=              0.1490   XZ=             -1.8940   YZ=              1.2254

 Normal termination of Gaussian 09 at Wed Aug 26 20:41:24 2020.
