 Gaussian 09, Revision D.01,
 Gaussian 09:  ES64L-G09RevD.01 24-Apr-2013

 --------------------
 #p B2PLYPD3/Def2QZVP
 --------------------

 ----------
 butane_opt
 ----------
 Symbolic Z-matrix:
 Charge =  0 Multiplicity = 1

                         Standard orientation:
 ---------------------------------------------------------------------
 Center     Atomic      Atomic             Coordinates (Angstroms)
 Number     Number       Type             X           Y           Z
 ---------------------------------------------------------------------
      1          6           0        1.956892   -0.155362    0.216641
      2          6           0        0.516968    0.639269   -0.314367
      3          1           0        2.456398    0.432444    0.723708
      4          1           0        2.747571   -0.915790   -0.819657
      5          1           0        1.788430   -0.870257    1.031971
      6          6           0       -0.604471   -0.414959   -0.208267
      7          1           0        0.682797    1.359027   -0.980316
      8          1           0        0.270252    1.238968    0.620251
      9          6           0       -1.926311   -0.000093    0.145896
     10          1           0       -0.311660   -1.226767    0.710463
     11          1           0       -0.623787   -1.187443   -1.169154
     12          1           0       -2.137881    0.870852    1.355886
     13          1           0       -2.686970   -0.724535    0.072718
     14          1           0       -1.843621    0.610374   -0.585288
 ---------------------------------------------------------------------

 SCF Done:  E(RB2PLYPD3) =  -157.871544900     A.U. after   11 cycles
 E2(B2PLYPD3) =    -0.2542102744D+00 E(B2PLYPD3) =    -0.15812575517443D+03

 The electronic state is 1-A.
 Alpha  occ. eigenvalues --  -10.64451 -10.63046 -10.62994 -10.61340  -0.92871
 Alpha  occ. eigenvalues --   -0.83716  -0.74594  -0.65585  -0.54775  -0.52250
 Alpha  occ. eigenvalues --   -0.48962  -0.44606  -0.42172  -0.40348  -0.38283
 Alpha  occ. eigenvalues --   -0.35896  -0.32446
 Alpha virt. eigenvalues --    0.04544   0.04951   0.06665   0.07877   0.09057
 Alpha virt. eigenvalues --    0.10864   0.11777   0.12862   0.13665   0.14957
 Alpha virt. eigenvalues --    0.15785   0.16286   0.18411   0.19671   0.20196

 Mulliken charges:
               1
     1  C   -0.189752
     2  C   -0.075597
     3  H    0.099432
     4  H    0.009344
     5  H    0.054965
     6  C   -0.005675
     7  H    0.064024
     8  H    0.033614
     9  C   -0.179530
    10  H   -0.001816
    11  H    0.024012
    12  H   -0.008711
    13  H    0.075506
    14  H    0.100184
 Sum of Mulliken charges =   0.00000

 Dipole moment (field-independent basis, Debye):
    X=             -0.2048    Y=              0.2716    Z=             -0.0966  Tot=              0.3537
 Quadrupole moment (field-independent basis, Debye-Ang):
   XX=            -31.4160   YY=            -29.2159   ZZ=            -28.9536
   XY=              1.6547   XZ=              1.5542   YZ=             -0.1992

 Normal termination of Gaussian 09 at Wed Aug 26 10:02:29 2020.
