 Gaussian 09, Revision D.01,
 Gaussian 09:  ES64L-G09RevD.01 24-Apr-2013

 --------------------
 #p B2PLYPD3/Def2QZVP
 --------------------

 ----------
 butane_opt
 ----------
 Symbolic Z-matrix:
 Charge =  0 Multiplicity = 1

                         Standard orientation:
 ---------------------------------------------------------------------
 Center     Atomic      Atomic             Coordinates (Angstroms)
 Number     Number       Type             X           Y           Z
 ---------------------------------------------------------------------
      1          6           0        2.070354   -0.179445    0.014339
      2          6           0        0.517885    0.585209   -0.169584
      3          1           0        2.833573    0.464791    0.606159
      4          1           0        2.476723   -0.868977   -0.912558
      5          1           0        1.884520   -0.660949    0.885542
      6          6           0       -0.677681   -0.451207    0.016685
      7          1           0        0.433598    1.214395   -0.939212
      8          1           0        0.354600    1.306488    0.763995
      9          6           0       -1.942700    0.056741    0.020263
     10          1           0       -0.455767   -1.207325    0.936290
     11          1           0       -0.554431   -1.156397   -0.808006
     12          1           0       -1.938729    1.048638    0.963816
     13          1           0       -2.889557   -0.813658    0.025842
     14          1           0       -1.951674    0.605206   -0.812088
 ---------------------------------------------------------------------

 SCF Done:  E(RB2PLYPD3) =  -157.971966052     A.U. after   11 cycles
 E2(B2PLYPD3) =    -0.2520832408D+00 E(B2PLYPD3) =    -0.15822404929280D+03

 The electronic state is 1-A.
 Alpha  occ. eigenvalues --  -10.62968 -10.62727 -10.62694 -10.61434  -0.92312
 Alpha  occ. eigenvalues --   -0.82159  -0.72806  -0.66078  -0.53210  -0.50098
 Alpha  occ. eigenvalues --   -0.48032  -0.47004  -0.41061  -0.40595  -0.37951
 Alpha  occ. eigenvalues --   -0.37199  -0.34514
 Alpha virt. eigenvalues --    0.04808   0.05959   0.07630   0.08473   0.10411
 Alpha virt. eigenvalues --    0.10836   0.12156   0.12682   0.14162   0.14617
 Alpha virt. eigenvalues --    0.15736   0.16427   0.17965   0.19487   0.20533

 Mulliken charges:
               1
     1  C   -0.197864
     2  C   -0.068335
     3  H    0.042834
     4  H    0.061217
     5  H    0.077428
     6  C    0.018776
     7  H    0.065196
     8  H    0.006898
     9  C   -0.173103
    10  H    0.005878
    11  H    0.022279
    12  H    0.003796
    13  H    0.054617
    14  H    0.080385
 Sum of Mulliken charges =   0.00000

 Dipole moment (field-independent basis, Debye):
    X=              0.0769    Y=             -0.2347    Z=             -0.3270  Tot=              0.4098
 Quadrupole moment (field-independent basis, Debye-Ang):
   XX=            -30.6905   YY=            -29.4381   ZZ=            -28.6486
   XY=              0.4177   XZ=              1.3798   YZ=              0.1560

 Normal termination of Gaussian 09 at Wed Aug 26 12:49:18 2020.
