 Gaussian 09, Revision D.01,
 Gaussian 09:  ES64L-G09RevD.01 24-Apr-2013

 --------------------
 #p B2PLYPD3/Def2QZVP
 --------------------

 ----------
 butane_opt
 ----------
 Symbolic Z-matrix:
 Charge =  0 Multiplicity = 1

                         Standard orientation:
 ---------------------------------------------------------------------
 Center     Atomic      Atomic             Coordinates (Angstroms)
 Number     Number       Type             X           Y           Z
 ---------------------------------------------------------------------
      1          6           0       -1.942868    0.083917   -0.022028
      2          6           0       -0.605873   -0.511769    0.057800
      3          1           0       -2.687104   -0.584426   -0.145875
      4          1           0       -2.124895    0.575764   -0.874429
      5          1           0       -2.090362    0.674169    0.836733
      6          6           0        0.528708    0.608697    0.100570
      7          1           0       -0.427728   -1.225608   -0.914147
      8          1           0       -0.520066   -1.069033    0.762089
      9          6           0        2.003101   -0.159180   -0.050748
     10          1           0        0.436972    1.176972    0.923174
     11          1           0        0.329041    1.225532   -0.777849
     12          1           0        2.555959   -0.970588    0.962030
     13          1           0        2.732617    0.619761   -0.501984
     14          1           0        1.897157   -0.552531   -0.783305
 ---------------------------------------------------------------------

 SCF Done:  E(RB2PLYPD3) =  -157.937263260     A.U. after   11 cycles
 E2(B2PLYPD3) =    -0.2471681207D+00 E(B2PLYPD3) =    -0.15818443138068D+03

 The electronic state is 1-A.
 Alpha  occ. eigenvalues --  -10.61231 -10.61049 -10.59224 -10.56828  -0.91475
 Alpha  occ. eigenvalues --   -0.84230  -0.75208  -0.69519  -0.54512  -0.51185
 Alpha  occ. eigenvalues --   -0.47112  -0.46903  -0.43531  -0.42225  -0.39045
 Alpha  occ. eigenvalues --   -0.38006  -0.35922
 Alpha virt. eigenvalues --    0.05415   0.06291   0.08367   0.08812   0.10407
 Alpha virt. eigenvalues --    0.11613   0.12903   0.13181   0.15171   0.15862
 Alpha virt. eigenvalues --    0.16226   0.16648   0.18771   0.19678   0.21350

 Mulliken charges:
               1
     1  C   -0.111279
     2  C   -0.070952
     3  H    0.029684
     4  H    0.031514
     5  H    0.045315
     6  C   -0.045510
     7  H   -0.013376
     8  H    0.088105
     9  C   -0.329102
    10  H    0.053949
    11  H    0.040620
    12  H    0.044280
    13  H    0.030604
    14  H    0.206148
 Sum of Mulliken charges =   0.00000

 Dipole moment (field-independent basis, Debye):
    X=             -0.4358    Y=              0.0367    Z=             -0.1883  Tot=              0.4762
 Quadrupole moment (field-independent basis, Debye-Ang):
   XX=            -29.7855   YY=            -28.8505   ZZ=            -27.4694
   XY=             -0.1326   XZ=             -0.2191   YZ=             -0.3795

 Normal termination of Gaussian 09 at Wed Aug 26 12:40:25 2020.
