 Gaussian 09, Revision D.01,
 Gaussian 09:  ES64L-G09RevD.01 24-Apr-2013

 --------------------
 #p B2PLYPD3/Def2QZVP
 --------------------

 ----------
 butane_opt
 ----------
 Symbolic Z-matrix:
 Charge =  0 Multiplicity = 1

                         Standard orientation:
 ---------------------------------------------------------------------
 Center     Atomic      Atomic             Coordinates (Angstroms)
 Number     Number       Type             X           Y           Z
 ---------------------------------------------------------------------
      1          6           0        1.957820   -0.114682    0.169031
      2          6           0        0.544851    0.505691   -0.180403
      3          1           0        2.816438    0.798477    0.172000
      4          1           0        1.886574   -0.645943   -0.695571
      5          1           0        1.953418   -0.544277    1.108487
      6          6           0       -0.468175   -0.600271   -0.100403
      7          1           0        0.722201    1.309694   -1.244926
      8          1           0        0.292729    0.865786    0.462488
      9          6           0       -1.941942    0.128845    0.108166
     10          1           0       -0.465512   -1.272069    0.745104
     11          1           0       -0.381767   -1.225128   -0.862273
     12          1           0       -2.512070    1.214454    1.226585
     13          1           0       -2.679184   -0.597075   -0.324981
     14          1           0       -2.188147    0.578588   -0.565258
 ---------------------------------------------------------------------

 SCF Done:  E(RB2PLYPD3) =  -157.725331652     A.U. after   11 cycles
 E2(B2PLYPD3) =    -0.2532537847D+00 E(B2PLYPD3) =    -0.15797858543626D+03

 The electronic state is 1-A.
 Alpha  occ. eigenvalues --  -10.62447 -10.61617 -10.60126 -10.59453  -0.93665
 Alpha  occ. eigenvalues --   -0.84027  -0.75813  -0.71267  -0.56580  -0.49453
 Alpha  occ. eigenvalues --   -0.48250  -0.45962  -0.41719  -0.40726  -0.38159
 Alpha  occ. eigenvalues --   -0.36814  -0.34463
 Alpha virt. eigenvalues --    0.01417   0.05415   0.07010   0.07987   0.10601
 Alpha virt. eigenvalues --    0.11117   0.12402   0.12638   0.14478   0.15218
 Alpha virt. eigenvalues --    0.15824   0.16473   0.18356   0.18981   0.20703

 Mulliken charges:
               1
     1  C   -0.158340
     2  C   -0.388553
     3  H    0.018427
     4  H    0.075829
     5  H    0.064995
     6  C   -0.015735
     7  H    0.033591
     8  H    0.341546
     9  C   -0.278656
    10  H    0.044904
    11  H    0.045569
    12  H    0.022511
    13  H    0.023092
    14  H    0.170821
 Sum of Mulliken charges =   0.00000

 Dipole moment (field-independent basis, Debye):
    X=             -0.1505    Y=             -0.2130    Z=             -0.5019  Tot=              0.5656
 Quadrupole moment (field-independent basis, Debye-Ang):
   XX=            -31.7271   YY=            -28.6962   ZZ=            -28.2308
   XY=              0.1873   XZ=              1.6815   YZ=              0.3607

 Normal termination of Gaussian 09 at Wed Aug 26 14:36:01 2020.
