 Gaussian 09, Revision D.01,
 Gaussian 09:  ES64L-G09RevD.01 24-Apr-2013

 --------------------
 #p B2PLYPD3/Def2QZVP
 --------------------

 ----------
 butane_opt
 ----------
 Symbolic Z-matrix:
 Charge =  0 Multiplicity = 1

                         Standard orientation:
 ---------------------------------------------------------------------
 Center     Atomic      Atomic             Coordinates (Angstroms)
 Number     Number       Type             X           Y           Z
 ---------------------------------------------------------------------
      1          6           0       -1.948983   -0.192047   -0.121731
      2          6           0       -0.565306    0.634286    0.092001
      3          1           0       -2.825604    0.568151   -0.132441
      4          1           0       -2.340463   -0.679505    0.646303
      5          1           0       -2.187419   -0.958980   -1.026807
      6          6           0        0.630263   -0.503121    0.298940
      7          1           0       -0.400437    1.466482    0.926074
      8          1           0       -0.376559    1.089714   -0.771665
      9          6           0        1.918077    0.041150   -0.253658
     10          1           0        0.304891   -0.911903   -0.197208
     11          1           0        0.761461   -1.164912    1.332100
     12          1           0        1.615872    0.306358   -1.077141
     13          1           0        2.702210   -0.652684   -0.567862
     14          1           0        2.541747    1.055670    0.775334
 ---------------------------------------------------------------------

 SCF Done:  E(RB2PLYPD3) =  -157.750247564     A.U. after   11 cycles
 E2(B2PLYPD3) =    -0.2511019619D+00 E(B2PLYPD3) =    -0.15800134952585D+03

 The electronic state is 1-A.
 Alpha  occ. eigenvalues --  -10.63153 -10.62064 -10.61884 -10.58820  -0.93299
 Alpha  occ. eigenvalues --   -0.83184  -0.74917  -0.70769  -0.54436  -0.49852
 Alpha  occ. eigenvalues --   -0.48427  -0.44809  -0.43296  -0.41417  -0.39802
 Alpha  occ. eigenvalues --   -0.37344  -0.33831
 Alpha virt. eigenvalues --    0.03765   0.05926   0.08041   0.08655   0.09398
 Alpha virt. eigenvalues --    0.11347   0.12818   0.13016   0.14083   0.15079
 Alpha virt. eigenvalues --    0.15855   0.16620   0.18687   0.19618   0.20104

 Mulliken charges:
               1
     1  C   -0.149583
     2  C   -0.074706
     3  H    0.022326
     4  H    0.057628
     5  H    0.036950
     6  C   -0.533550
     7  H    0.044313
     8  H    0.085253
     9  C   -0.160783
    10  H    0.468409
    11  H    0.048407
    12  H    0.108970
    13  H    0.047085
    14  H   -0.000720
 Sum of Mulliken charges =   0.00000

 Dipole moment (field-independent basis, Debye):
    X=             -0.5093    Y=             -0.4697    Z=             -0.5424  Tot=              0.8799
 Quadrupole moment (field-independent basis, Debye-Ang):
   XX=            -30.1577   YY=            -29.1411   ZZ=            -28.3341
   XY=             -0.4594   XZ=             -0.7575   YZ=              0.5519

 Normal termination of Gaussian 09 at Wed Aug 26 16:12:47 2020.
