 Gaussian 09, Revision D.01,
 Gaussian 09:  ES64L-G09RevD.01 24-Apr-2013

 --------------------
 #p B2PLYPD3/Def2QZVP
 --------------------

 ----------
 butane_opt
 ----------
 Symbolic Z-matrix:
 Charge =  0 Multiplicity = 1

                         Standard orientation:
 ---------------------------------------------------------------------
 Center     Atomic      Atomic             Coordinates (Angstroms)
 Number     Number       Type             X           Y           Z
 ---------------------------------------------------------------------
      1          6           0       -1.901042   -0.091587    0.143112
      2          6           0       -0.627600    0.451845   -0.158128
      3          1           0       -2.795173    0.804013   -0.042804
      4          1           0       -2.189048   -0.815681    1.282237
      5          1           0       -2.127743   -0.537935   -0.581254
      6          6           0        0.568803   -0.648344   -0.229691
      7          1           0       -0.308891    1.139345    0.699207
      8          1           0       -1.032559    1.177502   -0.966705
      9          6           0        2.030597    0.142031    0.151057
     10          1           0        0.464761   -1.289409   -1.018705
     11          1           0        0.260123   -0.891700    0.523413
     12          1           0        2.709191    0.914670   -0.875305
     13          1           0        2.713841   -0.395174    0.549008
     14          1           0        1.880949    0.770703    0.992810
 ---------------------------------------------------------------------

 SCF Done:  E(RB2PLYPD3) =  -157.839328682     A.U. after   11 cycles
 E2(B2PLYPD3) =    -0.2515742705D+00 E(B2PLYPD3) =    -0.15809090295293D+03

 The electronic state is 1-A.
 Alpha  occ. eigenvalues --  -10.62841 -10.62082 -10.61560 -10.60426  -0.93371
 Alpha  occ. eigenvalues --   -0.84584  -0.76020  -0.67207  -0.56111  -0.49295
 Alpha  occ. eigenvalues --   -0.48570  -0.46645  -0.43235  -0.41163  -0.37997
 Alpha  occ. eigenvalues --   -0.36729  -0.34769
 Alpha virt. eigenvalues --    0.04853   0.05442   0.07691   0.08504   0.10248
 Alpha virt. eigenvalues --    0.10903   0.12512   0.12619   0.14767   0.15021
 Alpha virt. eigenvalues --    0.15882   0.16572   0.18258   0.18934   0.20725

 Mulliken charges:
               1
     1  C   -0.223134
     2  C   -0.027029
     3  H    0.018853
     4  H    0.012730
     5  H    0.134259
     6  C   -0.283244
     7  H    0.031737
     8  H    0.032486
     9  C   -0.152433
    10  H    0.067881
    11  H    0.248334
    12  H    0.015901
    13  H    0.072601
    14  H    0.051058
 Sum of Mulliken charges =   0.00000

 Dipole moment (field-independent basis, Debye):
    X=             -0.0943    Y=             -0.3489    Z=              0.0678  Tot=              0.3677
 Quadrupole moment (field-independent basis, Debye-Ang):
   XX=            -30.2131   YY=            -29.5430   ZZ=            -28.3489
   XY=             -0.5230   XZ=              2.2950   YZ=              0.2567

 Normal termination of Gaussian 09 at Wed Aug 26 11:07:50 2020.
