 Gaussian 09, Revision D.01,
 Gaussian 09:  ES64L-G09RevD.01 24-Apr-2013

 --------------------
 #p B2PLYPD3/Def2QZVP
 --------------------

 ----------
 butane_opt
 ----------
 Symbolic Z-matrix:
 Charge =  0 Multiplicity = 1

                         Standard orientation:
 ---------------------------------------------------------------------
 Center     Atomic      Atomic             Coordinates (Angstroms)
 Number     Number       Type             X           Y           Z
 ---------------------------------------------------------------------
      1          6           0       -1.901350    0.085152   -0.088347
      2          6           0       -0.596338   -0.456738    0.171621
      3          1           0       -2.724145   -0.715831   -0.541613
      4          1           0       -1.665426    0.605922   -0.928363
      5          1           0       -2.395063    0.853164    0.766859
      6          6           0        0.552116    0.531747    0.045354
      7          1           0       -0.512106   -0.939106   -0.564751
      8          1           0       -0.538246   -1.298591    1.251975
      9          6           0        1.944747   -0.153272   -0.097094
     10          1           0        0.488191    1.394750    0.901812
     11          1           0        0.200139    1.028099   -0.770254
     12          1           0        2.264829   -0.712004    0.791842
     13          1           0        2.825817    0.711002   -0.039934
     14          1           0        2.060963   -0.968741   -1.056775
 ---------------------------------------------------------------------

 SCF Done:  E(RB2PLYPD3) =  -157.965121100     A.U. after   11 cycles
 E2(B2PLYPD3) =    -0.2507214067D+00 E(B2PLYPD3) =    -0.15821584250674D+03

 The electronic state is 1-A.
 Alpha  occ. eigenvalues --  -10.64127 -10.62207 -10.61987 -10.60375  -0.94435
 Alpha  occ. eigenvalues --   -0.83104  -0.71812  -0.67158  -0.54239  -0.49310
 Alpha  occ. eigenvalues --   -0.48025  -0.46665  -0.42333  -0.40717  -0.38863
 Alpha  occ. eigenvalues --   -0.37291  -0.35659
 Alpha virt. eigenvalues --    0.05263   0.06066   0.07590   0.07946   0.10620
 Alpha virt. eigenvalues --    0.10937   0.12589   0.12730   0.14246   0.15043
 Alpha virt. eigenvalues --    0.15718   0.16052   0.18848   0.19447   0.20568

 Mulliken charges:
               1
     1  C   -0.158875
     2  C   -0.143280
     3  H    0.039026
     4  H    0.060514
     5  H    0.034002
     6  C   -0.030541
     7  H    0.162975
     8  H   -0.010517
     9  C   -0.157161
    10  H    0.016917
    11  H    0.055749
    12  H    0.060974
    13  H    0.035845
    14  H    0.034373
 Sum of Mulliken charges =   0.00000

 Dipole moment (field-independent basis, Debye):
    X=              0.0976    Y=              0.1106    Z=             -0.5249  Tot=              0.5452
 Quadrupole moment (field-independent basis, Debye-Ang):
   XX=            -30.3974   YY=            -29.6088   ZZ=            -28.9981
   XY=             -0.1710   XZ=              1.2070   YZ=              0.9175

 Normal termination of Gaussian 09 at Wed Aug 26 20:53:25 2020.
