 Gaussian 09, Revision D.01,
 Gaussian 09:  ES64L-G09RevD.01 24-Apr-2013

 --------------------
 #p B2PLYPD3/Def2QZVP
 --------------------

 ----------
 butane_opt
 ----------
 Symbolic Z-matrix:
 Charge =  0 Multiplicity = 1

                         Standard orientation:
 ---------------------------------------------------------------------
 Center     Atomic      Atomic             Coordinates (Angstroms)
 Number     Number       Type             X           Y           Z
 ---------------------------------------------------------------------
      1          6           0       -1.931886    0.040798    0.102136
      2          6           0       -0.523679   -0.401104    0.013821
      3          1           0       -2.866961   -0.903443   -0.461225
      4          1           0       -1.818279    0.356106   -0.741632
      5          1           0       -2.173959    1.314844    1.210106
      6          6           0        0.511234    0.532425   -0.196935
      7          1           0       -0.898012   -1.304473   -0.780876
      8          1           0       -0.242849   -0.920510    0.966141
      9          6           0        1.958296   -0.144830    0.051095
     10          1           0        0.321049    1.314093    0.724311
     11          1           0        0.401657    0.999831   -1.215605
     12          1           0        2.244667   -0.932687    1.163187
     13          1           0        2.744505    0.490501   -0.223410
     14          1           0        2.204393   -0.577991   -0.461696
 ---------------------------------------------------------------------

 SCF Done:  E(RB2PLYPD3) =  -157.607245516     A.U. after   12 cycles
 E2(B2PLYPD3) =    -0.2584478638D+00 E(B2PLYPD3) =    -0.15786569337940D+03

 The electronic state is 1-A.
 Alpha  occ. eigenvalues --  -10.65349 -10.64254 -10.62899 -10.59751  -0.95092
 Alpha  occ. eigenvalues --   -0.88124  -0.78145  -0.64797  -0.54047  -0.50623
 Alpha  occ. eigenvalues --   -0.49228  -0.45041  -0.41825  -0.39773  -0.39180
 Alpha  occ. eigenvalues --   -0.36229  -0.32689
 Alpha virt. eigenvalues --    0.00542   0.04882   0.05110   0.07247   0.09168
 Alpha virt. eigenvalues --    0.10399   0.11399   0.12370   0.13470   0.14959
 Alpha virt. eigenvalues --    0.15423   0.16482   0.17749   0.19114   0.20326

 Mulliken charges:
               1
     1  C   -0.247081
     2  C   -0.022555
     3  H    0.030427
     4  H    0.167289
     5  H   -0.018021
     6  C   -0.017633
     7  H    0.023694
     8  H    0.042238
     9  C   -0.481919
    10  H    0.044693
    11  H    0.039940
    12  H    0.036021
    13  H    0.045324
    14  H    0.357582
 Sum of Mulliken charges =   0.00000

 Dipole moment (field-independent basis, Debye):
    X=              0.9163    Y=             -0.3017    Z=             -1.2459  Tot=              1.5757
 Quadrupole moment (field-independent basis, Debye-Ang):
   XX=            -31.6016   YY=            -30.3468   ZZ=            -28.9063
   XY=              0.6765   XZ=              1.0644   YZ=              0.1930

 Normal termination of Gaussian 09 at Wed Aug 26 11:24:03 2020.
