 Gaussian 09, Revision D.01,
 Gaussian 09:  ES64L-G09RevD.01 24-Apr-2013

 --------------------
 #p B2PLYPD3/Def2QZVP
 --------------------

 ----------
 butane_opt
 ----------
 Symbolic Z-matrix:
 Charge =  0 Multiplicity = 1

                         Standard orientation:
 ---------------------------------------------------------------------
 Center     Atomic      Atomic             Coordinates (Angstroms)
 Number     Number       Type             X           Y           Z
 ---------------------------------------------------------------------
      1          6           0       -1.857837    0.112695    0.041643
      2          6           0       -0.632400   -0.439397   -0.023738
      3          1           0       -2.864234   -1.023008    0.104985
      4          1           0       -1.950954    0.776845   -0.883002
      5          1           0       -1.835309    0.573928    0.781756
      6          6           0        0.524162    0.545591    0.079600
      7          1           0       -0.380324   -1.387143   -1.140350
      8          1           0       -0.428879   -0.720749    0.684148
      9          6           0        1.937476   -0.200103   -0.021000
     10          1           0        0.638001    1.327769    1.146256
     11          1           0        0.111795    1.324117   -0.910124
     12          1           0        2.412315   -1.108905    1.163682
     13          1           0        2.660949    0.535072   -0.766121
     14          1           0        1.808229   -0.410645   -0.640257
 ---------------------------------------------------------------------

 SCF Done:  E(RB2PLYPD3) =  -157.344961126     A.U. after   12 cycles
 E2(B2PLYPD3) =    -0.2595078284D+00 E(B2PLYPD3) =    -0.15760446895396D+03

 The electronic state is 1-A.
 Alpha  occ. eigenvalues --  -10.66861 -10.63079 -10.61374 -10.60020  -0.97879
 Alpha  occ. eigenvalues --   -0.89904  -0.76355  -0.66532  -0.58298  -0.50616
 Alpha  occ. eigenvalues --   -0.47956  -0.44481  -0.42376  -0.39935  -0.37643
 Alpha  occ. eigenvalues --   -0.35326  -0.33115
 Alpha virt. eigenvalues --    0.01845   0.03153   0.05387   0.06073   0.08944
 Alpha virt. eigenvalues --    0.10452   0.11023   0.11676   0.13502   0.14774
 Alpha virt. eigenvalues --    0.15792   0.16283   0.17173   0.18736   0.19072

 Mulliken charges:
               1
     1  C   -0.197513
     2  C   -0.313644
     3  H    0.008885
     4  H    0.051072
     5  H    0.146252
     6  C   -0.061659
     7  H   -0.007004
     8  H    0.351396
     9  C   -0.772357
    10  H    0.027148
    11  H    0.008635
    12  H    0.080580
    13  H    0.049457
    14  H    0.628751
 Sum of Mulliken charges =   0.00000

 Dipole moment (field-independent basis, Debye):
    X=              0.2924    Y=             -0.1098    Z=              0.3085  Tot=              0.4390
 Quadrupole moment (field-independent basis, Debye-Ang):
   XX=            -32.6053   YY=            -30.5708   ZZ=            -27.8297
   XY=             -1.3240   XZ=             -0.3113   YZ=             -0.7730

 Normal termination of Gaussian 09 at Wed Aug 26 19:32:34 2020.
