 Gaussian 09, Revision D.01,
 Gaussian 09:  ES64L-G09RevD.01 24-Apr-2013

 --------------------
 #p B2PLYPD3/Def2QZVP
 --------------------

 ----------
 butane_opt
 ----------
 Symbolic Z-matrix:
 Charge =  0 Multiplicity = 1

                         Standard orientation:
 ---------------------------------------------------------------------
 Center     Atomic      Atomic             Coordinates (Angstroms)
 Number     Number       Type             X           Y           Z
 ---------------------------------------------------------------------
      1          6           0       -2.010003   -0.177987   -0.121680
      2          6           0       -0.542040    0.569868    0.249222
      3          1           0       -2.667286    0.482546   -0.905582
      4          1           0       -2.608302   -0.817121    0.885067
      5          1           0       -1.735040   -0.638847   -0.831641
      6          6           0        0.623446   -0.482808    0.161866
      7          1           0       -0.370971    1.447665    1.135824
      8          1           0       -0.395978    1.179748   -0.713949
      9          6           0        2.021858    0.044731   -0.188914
     10          1           0        0.044098   -1.131649   -0.734328
     11          1           0        0.590798   -0.836436    0.993243
     12          1           0        2.022492    0.807712   -1.098478
     13          1           0        2.737245   -0.736534    0.075916
     14          1           0        1.823383    0.520091    0.590964
 ---------------------------------------------------------------------

 SCF Done:  E(RB2PLYPD3) =  -157.876585890     A.U. after   11 cycles
 E2(B2PLYPD3) =    -0.2535451338D+00 E(B2PLYPD3) =    -0.15813013102342D+03

 The electronic state is 1-A.
 Alpha  occ. eigenvalues --  -10.64353 -10.63023 -10.60963 -10.59609  -0.92611
 Alpha  occ. eigenvalues --   -0.84136  -0.74189  -0.66118  -0.54364  -0.50924
 Alpha  occ. eigenvalues --   -0.47893  -0.44931  -0.44295  -0.40807  -0.37399
 Alpha  occ. eigenvalues --   -0.36935  -0.33862
 Alpha virt. eigenvalues --    0.05049   0.06160   0.07911   0.08430   0.10519
 Alpha virt. eigenvalues --    0.10810   0.11897   0.13251   0.14224   0.14755
 Alpha virt. eigenvalues --    0.16419   0.16526   0.17806   0.18790   0.19866

 Mulliken charges:
               1
     1  C   -0.253439
     2  C   -0.069498
     3  H    0.030899
     4  H    0.056051
     5  H    0.168176
     6  C   -0.102865
     7  H    0.020939
     8  H    0.030733
     9  C   -0.226835
    10  H   -0.000658
    11  H    0.115591
    12  H    0.054062
    13  H    0.062805
    14  H    0.114040
 Sum of Mulliken charges =   0.00000

 Dipole moment (field-independent basis, Debye):
    X=              0.1952    Y=             -0.1099    Z=              0.0123  Tot=              0.2244
 Quadrupole moment (field-independent basis, Debye-Ang):
   XX=            -30.9139   YY=            -30.2678   ZZ=            -27.6284
   XY=              0.3539   XZ=              1.2398   YZ=             -1.1041

 Normal termination of Gaussian 09 at Wed Aug 26 19:01:52 2020.
