 Gaussian 09, Revision D.01,
 Gaussian 09:  ES64L-G09RevD.01 24-Apr-2013

 --------------------
 #p B2PLYPD3/Def2QZVP
 --------------------

 ----------
 butane_opt
 ----------
 Symbolic Z-matrix:
 Charge =  0 Multiplicity = 1

                         Standard orientation:
 ---------------------------------------------------------------------
 Center     Atomic      Atomic             Coordinates (Angstroms)
 Number     Number       Type             X           Y           Z
 ---------------------------------------------------------------------
      1          6           0        1.896724   -0.129184   -0.145725
      2          6           0        0.495991    0.581175    0.049140
      3          1           0        2.572592    0.409636   -0.215227
      4          1           0        2.117927   -1.171073   -0.965533
      5          1           0        2.351495   -0.623320    0.853869
      6          6           0       -0.514782   -0.390492    0.324483
      7          1           0        0.237305    1.066410   -0.946563
      8          1           0        0.336456    1.655322    0.893216
      9          6           0       -1.903046   -0.059340   -0.246018
     10          1           0       -0.728056   -1.121298    1.561332
     11          1           0       -0.201328   -0.808927   -0.192397
     12          1           0       -2.424624    1.289222    0.568065
     13          1           0       -2.660078   -0.874295   -0.491586
     14          1           0       -1.451013    0.165366   -0.956454
 ---------------------------------------------------------------------

 SCF Done:  E(RB2PLYPD3) =  -157.596563485     A.U. after   12 cycles
 E2(B2PLYPD3) =    -0.2564124707D+00 E(B2PLYPD3) =    -0.15785297595542D+03

 The electronic state is 1-A.
 Alpha  occ. eigenvalues --  -10.65878 -10.63098 -10.62627 -10.60508  -0.98681
 Alpha  occ. eigenvalues --   -0.84953  -0.77081  -0.67632  -0.54225  -0.52882
 Alpha  occ. eigenvalues --   -0.49239  -0.45152  -0.43378  -0.40565  -0.37587
 Alpha  occ. eigenvalues --   -0.34784  -0.34443
 Alpha virt. eigenvalues --    0.02633   0.05035   0.05981   0.06606   0.08874
 Alpha virt. eigenvalues --    0.10692   0.12067   0.12449   0.13336   0.14737
 Alpha virt. eigenvalues --    0.16005   0.16252   0.18347   0.18989   0.20408

 Mulliken charges:
               1
     1  C   -0.205586
     2  C   -0.040685
     3  H    0.135740
     4  H    0.030708
     5  H    0.024854
     6  C   -0.500211
     7  H    0.047332
     8  H    0.016372
     9  C   -0.242036
    10  H    0.015831
    11  H    0.485841
    12  H   -0.014773
    13  H    0.074345
    14  H    0.172269
 Sum of Mulliken charges =   0.00000

 Dipole moment (field-independent basis, Debye):
    X=              0.7871    Y=             -0.4821    Z=             -0.9198  Tot=              1.3031
 Quadrupole moment (field-independent basis, Debye-Ang):
   XX=            -29.9890   YY=            -29.8200   ZZ=            -29.8824
   XY=              1.4686   XZ=              0.4179   YZ=              0.8165

 Normal termination of Gaussian 09 at Wed Aug 26 14:42:34 2020.
