 Gaussian 09, Revision D.01,
 Gaussian 09:  ES64L-G09RevD.01 24-Apr-2013

 --------------------
 #p B2PLYPD3/Def2QZVP
 --------------------

 ----------
 butane_opt
 ----------
 Symbolic Z-matrix:
 Charge =  0 Multiplicity = 1

                         Standard orientation:
 ---------------------------------------------------------------------
 Center     Atomic      Atomic             Coordinates (Angstroms)
 Number     Number       Type             X           Y           Z
 ---------------------------------------------------------------------
      1          6           0        1.972224   -0.132998    0.068948
      2          6           0        0.565554    0.505086   -0.120357
      3          1           0        2.715035    0.683340   -0.160517
      4          1           0        2.049358   -0.486631   -0.552250
      5          1           0        2.082738   -0.923079    1.138639
      6          6           0       -0.549256   -0.524256   -0.033422
      7          1           0        0.660361    1.141188   -1.007124
      8          1           0        0.423655    1.183048    0.770521
      9          6           0       -2.024648    0.119313    0.041054
     10          1           0       -0.309101   -1.091137    0.700826
     11          1           0       -0.505594   -1.174135   -0.860386
     12          1           0       -2.322640    1.086800    1.112930
     13          1           0       -2.764962   -0.610666   -0.302017
     14          1           0       -1.812092    0.388403   -0.577957
 ---------------------------------------------------------------------

 SCF Done:  E(RB2PLYPD3) =  -157.586825518     A.U. after   11 cycles
 E2(B2PLYPD3) =    -0.2494960162D+00 E(B2PLYPD3) =    -0.15783632153441D+03

 The electronic state is 1-A.
 Alpha  occ. eigenvalues --  -10.61071 -10.59557 -10.59513 -10.58878  -0.93705
 Alpha  occ. eigenvalues --   -0.88169  -0.77607  -0.68756  -0.54398  -0.50901
 Alpha  occ. eigenvalues --   -0.48657  -0.47362  -0.42174  -0.40593  -0.39710
 Alpha  occ. eigenvalues --   -0.37917  -0.36524
 Alpha virt. eigenvalues --    0.05163   0.05762   0.07996   0.08113   0.10622
 Alpha virt. eigenvalues --    0.11383   0.12225   0.12919   0.14407   0.15759
 Alpha virt. eigenvalues --    0.16063   0.16177   0.18761   0.19411   0.21557

 Mulliken charges:
               1
     1  C   -0.556992
     2  C    0.003835
     3  H    0.054725
     4  H    0.397332
     5  H    0.044021
     6  C   -0.043900
     7  H    0.022392
     8  H    0.033756
     9  C   -0.650330
    10  H    0.058599
    11  H    0.016423
    12  H    0.043575
    13  H    0.071375
    14  H    0.505190
 Sum of Mulliken charges =   0.00000

 Dipole moment (field-independent basis, Debye):
    X=              0.2866    Y=             -0.2241    Z=             -0.6964  Tot=              0.7857
 Quadrupole moment (field-independent basis, Debye-Ang):
   XX=            -30.4816   YY=            -28.4998   ZZ=            -27.6745
   XY=              0.5708   XZ=             -0.3084   YZ=              0.1782

 Normal termination of Gaussian 09 at Wed Aug 26 15:57:12 2020.
