 Gaussian 09, Revision D.01,
 Gaussian 09:  ES64L-G09RevD.01 24-Apr-2013

 --------------------
 #p B2PLYPD3/Def2QZVP
 --------------------

 ----------
 butane_opt
 ----------
 Symbolic Z-matrix:
 Charge =  0 Multiplicity = 1

                         Standard orientation:
 ---------------------------------------------------------------------
 Center     Atomic      Atomic             Coordinates (Angstroms)
 Number     Number       Type             X           Y           Z
 ---------------------------------------------------------------------
      1          6           0       -1.976072   -0.199850   -0.160929
      2          6           0       -0.541609    0.652614    0.146460
      3          1           0       -2.552516    0.209399   -0.890990
      4          1           0       -2.930812   -0.959296    0.958404
      5          1           0       -1.668428   -0.552796   -0.815849
      6          6           0        0.638559   -0.461618    0.201952
      7          1           0       -0.730677    1.733556    1.159475
      8          1           0       -0.408972    0.858413   -0.596207
      9          6           0        1.960670    0.009489   -0.192938
     10          1           0        0.262643   -0.937110   -0.428402
     11          1           0        0.823883   -1.000297    1.214901
     12          1           0        1.970051    0.497797   -1.217518
     13          1           0        2.722595   -0.543394    0.054496
     14          1           0        2.022942    0.689924    0.594422
 ---------------------------------------------------------------------

 SCF Done:  E(RB2PLYPD3) =  -157.618908894     A.U. after   11 cycles
 E2(B2PLYPD3) =    -0.2534504359D+00 E(B2PLYPD3) =    -0.15787235933020D+03

 The electronic state is 1-A.
 Alpha  occ. eigenvalues --  -10.63403 -10.61552 -10.59698 -10.58213  -0.94951
 Alpha  occ. eigenvalues --   -0.87946  -0.78371  -0.70315  -0.55525  -0.51704
 Alpha  occ. eigenvalues --   -0.48899  -0.46549  -0.41731  -0.40322  -0.38629
 Alpha  occ. eigenvalues --   -0.37133  -0.34211
 Alpha virt. eigenvalues --    0.02479   0.05643   0.06762   0.08033   0.08986
 Alpha virt. eigenvalues --    0.11458   0.12042   0.13001   0.13869   0.15478
 Alpha virt. eigenvalues --    0.16801   0.16977   0.17875   0.18233   0.20379

 Mulliken charges:
               1
     1  C   -0.409617
     2  C   -0.436366
     3  H    0.057201
     4  H    0.037461
     5  H    0.286728
     6  C   -0.129456
     7  H    0.027629
     8  H    0.395110
     9  C   -0.144863
    10  H    0.143501
    11  H    0.029364
    12  H    0.031328
    13  H    0.055261
    14  H    0.056719
 Sum of Mulliken charges =   0.00000

 Dipole moment (field-independent basis, Debye):
    X=              0.5329    Y=             -0.2530    Z=             -0.8450  Tot=              1.0305
 Quadrupole moment (field-independent basis, Debye-Ang):
   XX=            -29.7855   YY=            -30.5629   ZZ=            -27.0074
   XY=             -0.3610   XZ=              1.6260   YZ=             -0.3528

 Normal termination of Gaussian 09 at Wed Aug 26 21:44:47 2020.
