 Gaussian 09, Revision D.01,
 Gaussian 09:  ES64L-G09RevD.01 24-Apr-2013

 --------------------
 #p B2PLYPD3/Def2QZVP
 --------------------

 ----------
 butane_opt
 ----------
 Symbolic Z-matrix:
 Charge =  0 Multiplicity = 1

                         Standard orientation:
 ---------------------------------------------------------------------
 Center     Atomic      Atomic             Coordinates (Angstroms)
 Number     Number       Type             X           Y           Z
 ---------------------------------------------------------------------
      1          6           0        1.952412   -0.231362   -0.050751
      2          6           0        0.513770    0.614236    0.123011
      3          1           0        2.639731    0.508806   -0.552063
      4          1           0        1.809750   -0.841005   -1.002666
      5          1           0        2.546609   -0.624596    0.687726
      6          6           0       -0.587826   -0.420756    0.128235
      7          1           0        0.323412    1.067980   -0.728546
      8          1           0        0.276402    1.440435    1.028939
      9          6           0       -1.917413    0.035058   -0.141518
     10          1           0       -0.312732   -1.082100    1.193863
     11          1           0       -0.447844   -0.917724   -0.532953
     12          1           0       -1.948325    0.733462    0.733791
     13          1           0       -2.879281   -0.873437    0.018499
     14          1           0       -1.773378    0.605127   -1.200447
 ---------------------------------------------------------------------

 SCF Done:  E(RB2PLYPD3) =  -157.924926610     A.U. after   11 cycles
 E2(B2PLYPD3) =    -0.2513702990D+00 E(B2PLYPD3) =    -0.15817629690930D+03

 The electronic state is 1-A.
 Alpha  occ. eigenvalues --  -10.63288 -10.62382 -10.61718 -10.58181  -0.93868
 Alpha  occ. eigenvalues --   -0.82501  -0.73145  -0.67540  -0.55745  -0.49478
 Alpha  occ. eigenvalues --   -0.47315  -0.46567  -0.42790  -0.40340  -0.38277
 Alpha  occ. eigenvalues --   -0.37523  -0.35149
 Alpha virt. eigenvalues --    0.04896   0.06362   0.07648   0.08273   0.10279
 Alpha virt. eigenvalues --    0.11440   0.12544   0.13346   0.14110   0.15231
 Alpha virt. eigenvalues --    0.15652   0.16495   0.18582   0.19247   0.20891

 Mulliken charges:
               1
     1  C   -0.145949
     2  C   -0.072299
     3  H    0.024757
     4  H    0.041595
     5  H    0.075135
     6  C   -0.193699
     7  H    0.077643
     8  H    0.019330
     9  C   -0.165966
    10  H    0.004020
    11  H    0.195106
    12  H    0.045833
    13  H    0.048156
    14  H    0.046338
 Sum of Mulliken charges =   0.00000

 Dipole moment (field-independent basis, Debye):
    X=              0.3954    Y=             -0.0336    Z=             -0.4459  Tot=              0.5969
 Quadrupole moment (field-independent basis, Debye-Ang):
   XX=            -30.1861   YY=            -30.0940   ZZ=            -28.1744
   XY=              0.1369   XZ=             -0.0425   YZ=              0.0589

 Normal termination of Gaussian 09 at Wed Aug 26 22:09:50 2020.
