 Gaussian 09, Revision D.01,
 Gaussian 09:  ES64L-G09RevD.01 24-Apr-2013

 --------------------
 #p B2PLYPD3/Def2QZVP
 --------------------

 ----------
 butane_opt
 ----------
 Symbolic Z-matrix:
 Charge =  0 Multiplicity = 1

                         Standard orientation:
 ---------------------------------------------------------------------
 Center     Atomic      Atomic             Coordinates (Angstroms)
 Number     Number       Type             X           Y           Z
 ---------------------------------------------------------------------
      1          6           0        1.928571    0.050894   -0.175748
      2          6           0        0.619100   -0.423286    0.071063
      3          1           0        2.858781   -0.751865    0.028052
      4          1           0        2.252072    0.664461    0.700687
      5          1           0        2.052423    0.659486   -0.986106
      6          6           0       -0.582435    0.594356    0.207171
      7          1           0        0.774612   -1.317275    1.191182
      8          1           0        0.731102   -0.871021   -0.693165
      9          6           0       -2.065670   -0.205394   -0.142305
     10          1           0       -0.462835    1.087771   -0.525043
     11          1           0       -0.469298    1.571000    1.179498
     12          1           0       -1.698815   -0.470691   -0.674042
     13          1           0       -2.652491    0.340483   -0.805996
     14          1           0       -2.782949   -1.011763    0.823849
 ---------------------------------------------------------------------

 SCF Done:  E(RB2PLYPD3) =  -157.588607524     A.U. after   12 cycles
 E2(B2PLYPD3) =    -0.2537499998D+00 E(B2PLYPD3) =    -0.15784235752391D+03

 The electronic state is 1-A.
 Alpha  occ. eigenvalues --  -10.63994 -10.61667 -10.60852 -10.60500  -0.94695
 Alpha  occ. eigenvalues --   -0.89104  -0.76444  -0.68629  -0.54668  -0.50958
 Alpha  occ. eigenvalues --   -0.48829  -0.47463  -0.41903  -0.40739  -0.37118
 Alpha  occ. eigenvalues --   -0.35732  -0.34976
 Alpha virt. eigenvalues --    0.04293   0.05324   0.07302   0.07826   0.09274
 Alpha virt. eigenvalues --    0.10883   0.11709   0.12154   0.14620   0.15245
 Alpha virt. eigenvalues --    0.15984   0.16609   0.17900   0.19150   0.19905

 Mulliken charges:
               1
     1  C   -0.155315
     2  C   -0.129000
     3  H    0.047675
     4  H    0.020962
     5  H    0.049887
     6  C   -0.159414
     7  H   -0.012456
     8  H    0.161513
     9  C   -0.645963
    10  H    0.153750
    11  H    0.019584
    12  H    0.516846
    13  H    0.062827
    14  H    0.069103
 Sum of Mulliken charges =   0.00000

 Dipole moment (field-independent basis, Debye):
    X=              0.2229    Y=              0.2428    Z=             -1.0806  Tot=              1.1298
 Quadrupole moment (field-independent basis, Debye-Ang):
   XX=            -29.2178   YY=            -29.9359   ZZ=            -28.1840
   XY=              0.1239   XZ=              0.5532   YZ=             -0.7702

 Normal termination of Gaussian 09 at Wed Aug 26 20:29:43 2020.
