 Gaussian 09, Revision D.01,
 Gaussian 09:  ES64L-G09RevD.01 24-Apr-2013

 --------------------
 #p B2PLYPD3/Def2QZVP
 --------------------

 ----------
 butane_opt
 ----------
 Symbolic Z-matrix:
 Charge =  0 Multiplicity = 1

                         Standard orientation:
 ---------------------------------------------------------------------
 Center     Atomic      Atomic             Coordinates (Angstroms)
 Number     Number       Type             X           Y           Z
 ---------------------------------------------------------------------
      1          6           0       -1.915149   -0.253651   -0.157403
      2          6           0       -0.506490    0.531789    0.110516
      3          1           0       -2.682938    0.429409   -0.847993
      4          1           0       -2.580908   -0.683033    0.972485
      5          1           0       -1.827551   -0.816197   -0.701705
      6          6           0        0.548696   -0.331415    0.234196
      7          1           0       -0.530261    1.995671    1.118613
      8          1           0       -0.190506    0.828206   -0.650042
      9          6           0        1.891326    0.032649   -0.191168
     10          1           0        0.579554   -0.798756   -0.412871
     11          1           0        0.494396   -1.000797    1.501557
     12          1           0        1.440101    0.472895   -1.302575
     13          1           0        2.856176   -0.914675   -0.164067
     14          1           0        2.331636    0.611048    0.509753
 ---------------------------------------------------------------------

 SCF Done:  E(RB2PLYPD3) =  -157.547780809     A.U. after   12 cycles
 E2(B2PLYPD3) =    -0.2579365110D+00 E(B2PLYPD3) =    -0.15780571732010D+03

 The electronic state is 1-A.
 Alpha  occ. eigenvalues --  -10.64977 -10.64426 -10.63101 -10.60421  -1.00649
 Alpha  occ. eigenvalues --   -0.86273  -0.77823  -0.69057  -0.58448  -0.52015
 Alpha  occ. eigenvalues --   -0.48495  -0.46858  -0.41248  -0.40396  -0.40156
 Alpha  occ. eigenvalues --   -0.34348  -0.32762
 Alpha virt. eigenvalues --    0.01246   0.04917   0.05360   0.06482   0.09349
 Alpha virt. eigenvalues --    0.09998   0.10960   0.12062   0.13985   0.14723
 Alpha virt. eigenvalues --    0.15356   0.15925   0.17691   0.19055   0.19719

 Mulliken charges:
               1
     1  C   -0.381254
     2  C   -0.108404
     3  H    0.035176
     4  H    0.055961
     5  H    0.275633
     6  C   -0.364167
     7  H   -0.049317
     8  H    0.183305
     9  C   -0.139983
    10  H    0.359169
    11  H   -0.016574
    12  H    0.038661
    13  H    0.040447
    14  H    0.071347
 Sum of Mulliken charges =   0.00000

 Dipole moment (field-independent basis, Debye):
    X=              0.3969    Y=             -0.7279    Z=             -1.1481  Tot=              1.4162
 Quadrupole moment (field-independent basis, Debye-Ang):
   XX=            -29.2471   YY=            -31.9623   ZZ=            -29.3600
   XY=              0.5460   XZ=              1.3568   YZ=             -0.0534

 Normal termination of Gaussian 09 at Wed Aug 26 22:51:52 2020.
