 Gaussian 09, Revision D.01,
 Gaussian 09:  ES64L-G09RevD.01 24-Apr-2013

 --------------------
 #p B2PLYPD3/Def2QZVP
 --------------------

 ----------
 butane_opt
 ----------
 Symbolic Z-matrix:
 Charge =  0 Multiplicity = 1

                         Standard orientation:
 ---------------------------------------------------------------------
 Center     Atomic      Atomic             Coordinates (Angstroms)
 Number     Number       Type             X           Y           Z
 ---------------------------------------------------------------------
      1          6           0        1.974555    0.047235   -0.200228
      2          6           0        0.544620   -0.391935    0.313327
      3          1           0        2.823757   -0.921105   -0.596122
      4          1           0        2.314669    0.807715    0.551958
      5          1           0        1.380493    0.437505   -1.092437
      6          6           0       -0.544683    0.583640    0.135086
      7          1           0        0.726263   -0.927631    1.573823
      8          1           0        0.335942   -0.939652   -0.273277
      9          6           0       -1.967784   -0.202500   -0.075786
     10          1           0       -0.263323    1.247206   -1.058970
     11          1           0       -0.535092    1.465620    0.881263
     12          1           0       -1.788074   -1.295667   -1.062790
     13          1           0       -2.639870    0.291976   -0.616395
     14          1           0       -2.395012   -0.384606    0.658553
 ---------------------------------------------------------------------

 SCF Done:  E(RB2PLYPD3) =  -157.802605339     A.U. after   11 cycles
 E2(B2PLYPD3) =    -0.2548092080D+00 E(B2PLYPD3) =    -0.15805741454685D+03

 The electronic state is 1-A.
 Alpha  occ. eigenvalues --  -10.65944 -10.63468 -10.61802 -10.60684  -0.93050
 Alpha  occ. eigenvalues --   -0.83867  -0.73710  -0.66713  -0.54291  -0.50494
 Alpha  occ. eigenvalues --   -0.48728  -0.47117  -0.41277  -0.39673  -0.37637
 Alpha  occ. eigenvalues --   -0.37012  -0.33779
 Alpha virt. eigenvalues --    0.04238   0.05300   0.05953   0.07466   0.09877
 Alpha virt. eigenvalues --    0.10750   0.11727   0.13153   0.13464   0.14821
 Alpha virt. eigenvalues --    0.15852   0.16681   0.17707   0.19220   0.20335

 Mulliken charges:
               1
     1  C   -0.165929
     2  C   -0.260412
     3  H    0.045119
     4  H    0.063880
     5  H    0.056599
     6  C   -0.035421
     7  H   -0.000517
     8  H    0.266916
     9  C   -0.181416
    10  H   -0.018295
    11  H    0.048986
    12  H   -0.003769
    13  H    0.054745
    14  H    0.129513
 Sum of Mulliken charges =   0.00000

 Dipole moment (field-independent basis, Debye):
    X=             -0.6472    Y=              0.2653    Z=              0.1696  Tot=              0.7198
 Quadrupole moment (field-independent basis, Debye-Ang):
   XX=            -29.3330   YY=            -30.4081   ZZ=            -29.3159
   XY=             -1.1312   XZ=              0.1022   YZ=              1.4012

 Normal termination of Gaussian 09 at Wed Aug 26 12:08:10 2020.
