 Gaussian 09, Revision D.01,
 Gaussian 09:  ES64L-G09RevD.01 24-Apr-2013

 --------------------
 #p B2PLYPD3/Def2QZVP
 --------------------

 ----------
 butane_opt
 ----------
 Symbolic Z-matrix:
 Charge =  0 Multiplicity = 1

                         Standard orientation:
 ---------------------------------------------------------------------
 Center     Atomic      Atomic             Coordinates (Angstroms)
 Number     Number       Type             X           Y           Z
 ---------------------------------------------------------------------
      1          6           0        1.982713    0.102304   -0.166426
      2          6           0        0.620738   -0.406601    0.353903
      3          1           0        2.853691   -0.984484   -0.395140
      4          1           0        2.432696    0.755334    0.516115
      5          1           0        1.901934    0.528822   -1.217332
      6          6           0       -0.646553    0.584833    0.126450
      7          1           0        0.470825   -0.799712    1.264495
      8          1           0        0.551248   -1.205510   -0.419529
      9          6           0       -2.010273   -0.205671   -0.150511
     10          1           0       -0.255048    0.857147   -0.782050
     11          1           0       -0.632000    1.566607    0.860109
     12          1           0       -1.782390   -0.879045   -0.765423
     13          1           0       -2.631221    0.292535   -0.764502
     14          1           0       -2.589482   -0.580878    0.722763
 ---------------------------------------------------------------------

 SCF Done:  E(RB2PLYPD3) =  -158.006600705     A.U. after   11 cycles
 E2(B2PLYPD3) =    -0.2491520238D+00 E(B2PLYPD3) =    -0.15825575272911D+03

 The electronic state is 1-A.
 Alpha  occ. eigenvalues --  -10.63648 -10.62095 -10.60555 -10.58246  -0.90070
 Alpha  occ. eigenvalues --   -0.83600  -0.73557  -0.66866  -0.54775  -0.49747
 Alpha  occ. eigenvalues --   -0.48291  -0.45625  -0.44282  -0.41920  -0.38991
 Alpha  occ. eigenvalues --   -0.37040  -0.34394
 Alpha virt. eigenvalues --    0.04839   0.06673   0.08280   0.09062   0.10394
 Alpha virt. eigenvalues --    0.11132   0.12555   0.12832   0.15268   0.15528
 Alpha virt. eigenvalues --    0.16012   0.17035   0.18262   0.19201   0.20873

 Mulliken charges:
               1
     1  C   -0.161387
     2  C   -0.041653
     3  H    0.009329
     4  H    0.068880
     5  H    0.056114
     6  C   -0.108230
     7  H    0.057336
     8  H    0.030114
     9  C   -0.146652
    10  H    0.058755
    11  H    0.025901
    12  H    0.067881
    13  H    0.038049
    14  H    0.045563
 Sum of Mulliken charges =   0.00000

 Dipole moment (field-independent basis, Debye):
    X=             -0.2545    Y=              0.0158    Z=             -0.2790  Tot=              0.3779
 Quadrupole moment (field-independent basis, Debye-Ang):
   XX=            -30.1021   YY=            -29.5674   ZZ=            -27.7771
   XY=              0.8575   XZ=              0.1206   YZ=              0.3998

 Normal termination of Gaussian 09 at Wed Aug 26 22:04:13 2020.
