 Gaussian 09, Revision D.01,
 Gaussian 09:  ES64L-G09RevD.01 24-Apr-2013

 --------------------
 #p B2PLYPD3/Def2QZVP
 --------------------

 ----------
 butane_opt
 ----------
 Symbolic Z-matrix:
 Charge =  0 Multiplicity = 1

                         Standard orientation:
 ---------------------------------------------------------------------
 Center     Atomic      Atomic             Coordinates (Angstroms)
 Number     Number       Type             X           Y           Z
 ---------------------------------------------------------------------
      1          6           0       -1.894282    0.114581    0.038388
      2          6           0       -0.543227   -0.525992   -0.036776
      3          1           0       -2.772027   -0.692815   -0.288741
      4          1           0       -1.874306    0.390857   -0.545528
      5          1           0       -2.337771    1.219653    1.201488
      6          6           0        0.509196    0.514418   -0.140248
      7          1           0       -0.369279   -1.254317   -0.902382
      8          1           0       -0.480312   -1.110289    0.743706
      9          6           0        1.940296   -0.123923    0.084525
     10          1           0        0.466311    1.107741    0.661403
     11          1           0        0.460428    1.173697   -1.072006
     12          1           0        2.001148   -0.959649    1.126785
     13          1           0        2.740725    0.717586   -0.066214
     14          1           0        2.093180   -0.466966   -0.533846
 ---------------------------------------------------------------------

 SCF Done:  E(RB2PLYPD3) =  -157.430793848     A.U. after   12 cycles
 E2(B2PLYPD3) =    -0.2513059998D+00 E(B2PLYPD3) =    -0.15768209984765D+03

 The electronic state is 1-A.
 Alpha  occ. eigenvalues --  -10.61514 -10.60126 -10.59933 -10.59409  -0.94942
 Alpha  occ. eigenvalues --   -0.87946  -0.78089  -0.69959  -0.55272  -0.49980
 Alpha  occ. eigenvalues --   -0.49208  -0.46060  -0.42323  -0.40261  -0.39944
 Alpha  occ. eigenvalues --   -0.37788  -0.35494
 Alpha virt. eigenvalues --    0.02400   0.05390   0.06991   0.07790   0.10453
 Alpha virt. eigenvalues --    0.10922   0.12094   0.12961   0.14127   0.15669
 Alpha virt. eigenvalues --    0.15799   0.16396   0.18882   0.19262   0.21630

 Mulliken charges:
               1
     1  C   -0.773186
     2  C    0.023597
     3  H    0.063196
     4  H    0.589632
     5  H    0.019871
     6  C   -0.023216
     7  H    0.015062
     8  H    0.057933
     9  C   -0.539200
    10  H    0.073475
    11  H    0.020247
    12  H    0.047802
    13  H    0.046925
    14  H    0.377861
 Sum of Mulliken charges =   0.00000

 Dipole moment (field-independent basis, Debye):
    X=              0.3241    Y=             -0.2004    Z=             -0.7161  Tot=              0.8112
 Quadrupole moment (field-independent basis, Debye-Ang):
   XX=            -31.1405   YY=            -28.4323   ZZ=            -28.0591
   XY=              0.2955   XZ=              0.0347   YZ=             -0.1009

 Normal termination of Gaussian 09 at Wed Aug 26 09:41:12 2020.
