 Gaussian 09, Revision D.01,
 Gaussian 09:  ES64L-G09RevD.01 24-Apr-2013

 --------------------
 #p B2PLYPD3/Def2QZVP
 --------------------

 ----------
 butane_opt
 ----------
 Symbolic Z-matrix:
 Charge =  0 Multiplicity = 1

                         Standard orientation:
 ---------------------------------------------------------------------
 Center     Atomic      Atomic             Coordinates (Angstroms)
 Number     Number       Type             X           Y           Z
 ---------------------------------------------------------------------
      1          6           0       -2.018011   -0.161560    0.087978
      2          6           0       -0.547335    0.633750   -0.038180
      3          1           0       -2.662179    0.457315   -0.246487
      4          1           0       -2.249137   -1.267465    1.101898
      5          1           0       -2.263320   -0.447714   -0.601143
      6          6           0        0.647631   -0.447572   -0.246722
      7          1           0       -0.238253    1.314875    0.931735
      8          1           0       -0.393364    1.144511   -0.838541
      9          6           0        1.913086    0.029030    0.103016
     10          1           0        0.517064   -1.129479   -1.256261
     11          1           0        0.769312   -1.161787    0.569554
     12          1           0        2.386951    0.953519   -0.722987
     13          1           0        2.565868   -0.879674    0.426587
     14          1           0        1.594831    0.694010    1.199092
 ---------------------------------------------------------------------

 SCF Done:  E(RB2PLYPD3) =  -157.747463727     A.U. after   11 cycles
 E2(B2PLYPD3) =    -0.2551774219D+00 E(B2PLYPD3) =    -0.15800264114941D+03

 The electronic state is 1-A.
 Alpha  occ. eigenvalues --  -10.64740 -10.63102 -10.61495 -10.60128  -0.92448
 Alpha  occ. eigenvalues --   -0.88820  -0.76398  -0.62943  -0.53343  -0.50326
 Alpha  occ. eigenvalues --   -0.48248  -0.45371  -0.41335  -0.40498  -0.37876
 Alpha  occ. eigenvalues --   -0.35260  -0.33705
 Alpha virt. eigenvalues --    0.03969   0.05117   0.07161   0.07576   0.09857
 Alpha virt. eigenvalues --    0.10655   0.11056   0.12902   0.14006   0.14843
 Alpha virt. eigenvalues --    0.15695   0.15950   0.18659   0.19035   0.20256

 Mulliken charges:
               1
     1  C   -0.400756
     2  C   -0.104932
     3  H    0.057673
     4  H    0.050538
     5  H    0.278328
     6  C   -0.000500
     7  H    0.032308
     8  H    0.098103
     9  C   -0.179967
    10  H    0.019692
    11  H    0.037964
    12  H    0.006252
    13  H    0.068689
    14  H    0.036609
 Sum of Mulliken charges =   0.00000

 Dipole moment (field-independent basis, Debye):
    X=             -0.4499    Y=             -0.3161    Z=             -0.5528  Tot=              0.7797
 Quadrupole moment (field-independent basis, Debye-Ang):
   XX=            -31.0518   YY=            -28.9917   ZZ=            -28.8380
   XY=             -0.8779   XZ=              2.1813   YZ=             -1.1137

 Normal termination of Gaussian 09 at Wed Aug 26 23:17:21 2020.
