 Gaussian 09, Revision D.01,
 Gaussian 09:  ES64L-G09RevD.01 24-Apr-2013

 --------------------
 #p B2PLYPD3/Def2QZVP
 --------------------

 ----------
 butane_opt
 ----------
 Symbolic Z-matrix:
 Charge =  0 Multiplicity = 1

                         Standard orientation:
 ---------------------------------------------------------------------
 Center     Atomic      Atomic             Coordinates (Angstroms)
 Number     Number       Type             X           Y           Z
 ---------------------------------------------------------------------
      1          6           0        1.968049    0.182033   -0.111076
      2          6           0        0.528696   -0.612729    0.130114
      3          1           0        2.624398   -0.453643   -0.812478
      4          1           0        2.712496    0.908590    0.948204
      5          1           0        1.607152    0.549099   -0.826113
      6          6           0       -0.545628    0.405002    0.058767
      7          1           0        0.212599   -1.478482    1.248424
      8          1           0        0.296728   -0.947859   -0.465011
      9          6           0       -1.894656   -0.106297   -0.085092
     10          1           0       -0.351484    0.983710   -0.637628
     11          1           0       -0.572360    1.423226    1.190211
     12          1           0       -1.919493   -0.588136   -0.985847
     13          1           0       -2.904115    0.941616   -0.272674
     14          1           0       -2.044692   -0.546183    0.656636
 ---------------------------------------------------------------------

 SCF Done:  E(RB2PLYPD3) =  -157.570221757     A.U. after   12 cycles
 E2(B2PLYPD3) =    -0.2544211576D+00 E(B2PLYPD3) =    -0.15782464291466D+03

 The electronic state is 1-A.
 Alpha  occ. eigenvalues --  -10.63880 -10.62306 -10.62054 -10.60489  -0.97292
 Alpha  occ. eigenvalues --   -0.86418  -0.77682  -0.70256  -0.57259  -0.50661
 Alpha  occ. eigenvalues --   -0.49338  -0.47004  -0.42905  -0.40497  -0.38068
 Alpha  occ. eigenvalues --   -0.36972  -0.33011
 Alpha virt. eigenvalues --    0.03195   0.04193   0.06564   0.07377   0.08738
 Alpha virt. eigenvalues --    0.10310   0.11984   0.12254   0.15123   0.15346
 Alpha virt. eigenvalues --    0.15766   0.16431   0.17413   0.18265   0.19971

 Mulliken charges:
               1
     1  C   -0.274623
     2  C   -0.553405
     3  H    0.040216
     4  H    0.086792
     5  H    0.184790
     6  C   -0.028551
     7  H    0.010693
     8  H    0.502757
     9  C   -0.198778
    10  H    0.089667
    11  H   -0.053278
    12  H    0.058068
    13  H    0.003962
    14  H    0.131690
 Sum of Mulliken charges =   0.00000

 Dipole moment (field-independent basis, Debye):
    X=              0.2622    Y=             -0.3579    Z=             -1.2096  Tot=              1.2884
 Quadrupole moment (field-independent basis, Debye-Ang):
   XX=            -30.3742   YY=            -30.8232   ZZ=            -28.2110
   XY=              1.5278   XZ=             -0.0785   YZ=              0.0365

 Normal termination of Gaussian 09 at Wed Aug 26 12:30:08 2020.
