 Gaussian 09, Revision D.01,
 Gaussian 09:  ES64L-G09RevD.01 24-Apr-2013

 --------------------
 #p B2PLYPD3/Def2QZVP
 --------------------

 ----------
 butane_opt
 ----------
 Symbolic Z-matrix:
 Charge =  0 Multiplicity = 1

                         Standard orientation:
 ---------------------------------------------------------------------
 Center     Atomic      Atomic             Coordinates (Angstroms)
 Number     Number       Type             X           Y           Z
 ---------------------------------------------------------------------
      1          6           0       -2.018344    0.077011   -0.117814
      2          6           0       -0.591525   -0.489510    0.277723
      3          1           0       -2.754452   -0.696910   -0.924044
      4          1           0       -1.441211    0.529215   -1.009143
      5          1           0       -2.559429    0.835813    0.793833
      6          6           0        0.526680    0.637926    0.076294
      7          1           0       -0.501370   -1.090935   -0.503079
      8          1           0       -0.549437   -1.200528    1.442817
      9          6           0        1.970019   -0.159160   -0.103670
     10          1           0        0.760460    1.346578    0.842138
     11          1           0        0.424817    1.223883   -0.917589
     12          1           0        2.320334   -0.650833    0.643928
     13          1           0        2.772319    0.590805   -0.105760
     14          1           0        2.206983   -1.284695   -1.058301
 ---------------------------------------------------------------------

 SCF Done:  E(RB2PLYPD3) =  -157.897397639     A.U. after   11 cycles
 E2(B2PLYPD3) =    -0.2560154937D+00 E(B2PLYPD3) =    -0.15815341313254D+03

 The electronic state is 1-A.
 Alpha  occ. eigenvalues --  -10.65579 -10.64391 -10.64226 -10.62812  -0.89959
 Alpha  occ. eigenvalues --   -0.81982  -0.71805  -0.65718  -0.52709  -0.48470
 Alpha  occ. eigenvalues --   -0.46471  -0.46033  -0.41772  -0.39129  -0.37490
 Alpha  occ. eigenvalues --   -0.36274  -0.34622
 Alpha virt. eigenvalues --    0.04451   0.04694   0.06749   0.07570   0.09757
 Alpha virt. eigenvalues --    0.10080   0.11605   0.13151   0.13333   0.13940
 Alpha virt. eigenvalues --    0.15243   0.16886   0.17951   0.18334   0.20368

 Mulliken charges:
               1
     1  C   -0.184574
     2  C   -0.125094
     3  H    0.039658
     4  H    0.055554
     5  H    0.059843
     6  C   -0.027607
     7  H    0.132488
     8  H    0.013870
     9  C   -0.159314
    10  H    0.051078
    11  H    0.039525
    12  H    0.069058
    13  H    0.039412
    14  H   -0.003899
 Sum of Mulliken charges =   0.00000

 Dipole moment (field-independent basis, Debye):
    X=              0.3265    Y=              0.4383    Z=              0.2279  Tot=              0.5921
 Quadrupole moment (field-independent basis, Debye-Ang):
   XX=            -31.6045   YY=            -29.6901   ZZ=            -29.2404
   XY=              0.7603   XZ=              1.4310   YZ=              0.9817

 Normal termination of Gaussian 09 at Wed Aug 26 11:48:39 2020.
