 Gaussian 09, Revision D.01,
 Gaussian 09:  ES64L-G09RevD.01 24-Apr-2013

 --------------------
 #p B2PLYPD3/Def2QZVP
 --------------------

 ----------
 butane_opt
 ----------
 Symbolic Z-matrix:
 Charge =  0 Multiplicity = 1

                         Standard orientation:
 ---------------------------------------------------------------------
 Center     Atomic      Atomic             Coordinates (Angstroms)
 Number     Number       Type             X           Y           Z
 ---------------------------------------------------------------------
      1          6           0       -1.908524    0.028074   -0.124712
      2          6           0       -0.634665   -0.472323    0.272854
      3          1           0       -2.609582   -0.914226   -0.771097
      4          1           0       -1.493965    0.348995   -0.906832
      5          1           0       -2.667762    1.181823    0.841102
      6          6           0        0.528214    0.580834   -0.055554
      7          1           0       -0.418654   -1.000186   -0.419514
      8          1           0       -0.412225   -1.058903    1.259150
      9          6           0        1.992219   -0.105169   -0.087493
     10          1           0        0.346823    1.543620    0.795761
     11          1           0        0.512769    0.966595   -0.771561
     12          1           0        2.374646   -0.766937    0.932369
     13          1           0        2.486418    0.320255   -0.092955
     14          1           0        2.018065   -0.809533   -0.896989
 ---------------------------------------------------------------------

 SCF Done:  E(RB2PLYPD3) =  -157.464209046     A.U. after   12 cycles
 E2(B2PLYPD3) =    -0.2533094668D+00 E(B2PLYPD3) =    -0.15771751851332D+03

 The electronic state is 1-A.
 Alpha  occ. eigenvalues --  -10.65013 -10.61239 -10.60345 -10.58997  -0.95614
 Alpha  occ. eigenvalues --   -0.88643  -0.77487  -0.69506  -0.55364  -0.53438
 Alpha  occ. eigenvalues --   -0.49907  -0.47474  -0.41468  -0.40754  -0.38980
 Alpha  occ. eigenvalues --   -0.37336  -0.33730
 Alpha virt. eigenvalues --    0.01784   0.05453   0.07228   0.08407   0.08888
 Alpha virt. eigenvalues --    0.10318   0.12276   0.13682   0.14234   0.15247
 Alpha virt. eigenvalues --    0.15537   0.17102   0.18353   0.18951   0.20245

 Mulliken charges:
               1
     1  C   -0.221032
     2  C   -0.139012
     3  H    0.030096
     4  H    0.134965
     5  H    0.012114
     6  C   -0.214690
     7  H    0.163441
     8  H    0.048710
     9  C   -0.624090
    10  H    0.011137
    11  H    0.226716
    12  H    0.031780
    13  H    0.469352
    14  H    0.070512
 Sum of Mulliken charges =   0.00000

 Dipole moment (field-independent basis, Debye):
    X=              0.8591    Y=             -0.3309    Z=             -1.0073  Tot=              1.3646
 Quadrupole moment (field-independent basis, Debye-Ang):
   XX=            -31.6451   YY=            -29.3097   ZZ=            -28.0922
   XY=              0.5045   XZ=             -0.0199   YZ=              0.4393

 Normal termination of Gaussian 09 at Wed Aug 26 09:57:12 2020.
