 Gaussian 09, Revision D.01,
 Gaussian 09:  ES64L-G09RevD.01 24-Apr-2013

 --------------------
 #p B2PLYPD3/Def2QZVP
 --------------------

 ----------
 butane_opt
 ----------
 Symbolic Z-matrix:
 Charge =  0 Multiplicity = 1

                         Standard orientation:
 ---------------------------------------------------------------------
 Center     Atomic      Atomic             Coordinates (Angstroms)
 Number     Number       Type             X           Y           Z
 ---------------------------------------------------------------------
      1          6           0        2.042568   -0.222846   -0.128350
      2          6           0        0.513234    0.579054    0.203574
      3          1           0        2.853801    0.600193   -0.772312
      4          1           0        2.003701   -0.746835   -0.836547
      5          1           0        2.565372   -1.004825    0.779357
      6          6           0       -0.664382   -0.429817    0.112238
      7          1           0        0.527542    0.973247   -0.410298
      8          1           0        0.453263    1.847342    1.358740
      9          6           0       -1.927519    0.060507   -0.162337
     10          1           0       -0.864670   -1.248389    1.209046
     11          1           0       -0.515234   -0.907775   -0.537965
     12          1           0       -2.218328    0.352890    0.586969
     13          1           0       -2.668921   -0.786490   -0.179821
     14          1           0       -1.919938    0.999250   -1.347921
 ---------------------------------------------------------------------

 SCF Done:  E(RB2PLYPD3) =  -157.485573370     A.U. after   12 cycles
 E2(B2PLYPD3) =    -0.2554808167D+00 E(B2PLYPD3) =    -0.15774105418712D+03

 The electronic state is 1-A.
 Alpha  occ. eigenvalues --  -10.64742 -10.64188 -10.61161 -10.60969  -0.96175
 Alpha  occ. eigenvalues --   -0.86373  -0.76937  -0.72790  -0.55618  -0.50704
 Alpha  occ. eigenvalues --   -0.47372  -0.46439  -0.42409  -0.41152  -0.37527
 Alpha  occ. eigenvalues --   -0.35579  -0.34773
 Alpha virt. eigenvalues --    0.01642   0.04557   0.05003   0.05952   0.10212
 Alpha virt. eigenvalues --    0.10487   0.10788   0.12341   0.13191   0.14926
 Alpha virt. eigenvalues --    0.15268   0.16403   0.17373   0.18859   0.19359

 Mulliken charges:
               1
     1  C   -0.243029
     2  C   -0.472135
     3  H    0.018522
     4  H    0.153221
     5  H    0.049738
     6  C   -0.190172
     7  H    0.462360
     8  H   -0.016241
     9  C   -0.211689
    10  H   -0.002931
    11  H    0.251353
    12  H    0.149322
    13  H    0.044047
    14  H    0.007631
 Sum of Mulliken charges =   0.00000

 Dipole moment (field-independent basis, Debye):
    X=             -0.4041    Y=             -0.8297    Z=             -0.7852  Tot=              1.2117
 Quadrupole moment (field-independent basis, Debye-Ang):
   XX=            -30.5568   YY=            -29.7940   ZZ=            -29.2380
   XY=              0.0500   XZ=             -2.5537   YZ=             -0.7405

 Normal termination of Gaussian 09 at Wed Aug 26 12:28:05 2020.
