 Gaussian 09, Revision D.01,
 Gaussian 09:  ES64L-G09RevD.01 24-Apr-2013

 --------------------
 #p B2PLYPD3/Def2QZVP
 --------------------

 ----------
 butane_opt
 ----------
 Symbolic Z-matrix:
 Charge =  0 Multiplicity = 1

                         Standard orientation:
 ---------------------------------------------------------------------
 Center     Atomic      Atomic             Coordinates (Angstroms)
 Number     Number       Type             X           Y           Z
 ---------------------------------------------------------------------
      1          6           0       -1.998467   -0.133126   -0.023346
      2          6           0       -0.519962    0.529775    0.010968
      3          1           0       -2.804307    0.646341   -0.047444
      4          1           0       -2.130789   -0.810748    0.867714
      5          1           0       -2.308957   -0.776248   -0.907261
      6          6           0        0.599535   -0.474897    0.033871
      7          1           0       -0.461021    1.100870    0.848961
      8          1           0       -0.420703    1.149818   -0.773687
      9          6           0        1.949957    0.087665   -0.054780
     10          1           0        0.537650   -0.946277   -0.735231
     11          1           0        0.567635   -1.220321    1.041743
     12          1           0        1.954197    0.539441   -0.743301
     13          1           0        2.739143   -0.647707   -0.285605
     14          1           0        2.140777    0.908326    0.933836
 ---------------------------------------------------------------------

 SCF Done:  E(RB2PLYPD3) =  -157.964470562     A.U. after   11 cycles
 E2(B2PLYPD3) =    -0.2462929579D+00 E(B2PLYPD3) =    -0.15821076351994D+03

 The electronic state is 1-A.
 Alpha  occ. eigenvalues --  -10.61458 -10.59470 -10.59159 -10.58472  -0.93449
 Alpha  occ. eigenvalues --   -0.83988  -0.74133  -0.68885  -0.55722  -0.50447
 Alpha  occ. eigenvalues --   -0.49600  -0.46565  -0.42734  -0.41286  -0.38530
 Alpha  occ. eigenvalues --   -0.38253  -0.37652
 Alpha virt. eigenvalues --    0.05521   0.06628   0.08319   0.09032   0.10969
 Alpha virt. eigenvalues --    0.11907   0.12670   0.13554   0.14492   0.14873
 Alpha virt. eigenvalues --    0.15922   0.16553   0.19501   0.20131   0.22250

 Mulliken charges:
               1
     1  C   -0.151844
     2  C   -0.043766
     3  H    0.040799
     4  H    0.048056
     5  H    0.027538
     6  C   -0.066792
     7  H    0.048457
     8  H    0.037749
     9  C   -0.289333
    10  H    0.099884
    11  H    0.004507
    12  H    0.181264
    13  H    0.046991
    14  H    0.016490
 Sum of Mulliken charges =   0.00000

 Dipole moment (field-independent basis, Debye):
    X=             -0.0060    Y=              0.1370    Z=             -0.6027  Tot=              0.6181
 Quadrupole moment (field-independent basis, Debye-Ang):
   XX=            -29.7376   YY=            -28.8622   ZZ=            -27.9659
   XY=             -0.5900   XZ=             -0.8438   YZ=              0.1955

 Normal termination of Gaussian 09 at Wed Aug 26 20:37:51 2020.
