 Gaussian 09, Revision D.01,
 Gaussian 09:  ES64L-G09RevD.01 24-Apr-2013

 --------------------
 #p B2PLYPD3/Def2QZVP
 --------------------

 ----------
 butane_opt
 ----------
 Symbolic Z-matrix:
 Charge =  0 Multiplicity = 1

                         Standard orientation:
 ---------------------------------------------------------------------
 Center     Atomic      Atomic             Coordinates (Angstroms)
 Number     Number       Type             X           Y           Z
 ---------------------------------------------------------------------
      1          6           0       -1.922849   -0.083305    0.089191
      2          6           0       -0.619412    0.420865   -0.078008
      3          1           0       -2.898938    0.931999   -0.237695
      4          1           0       -2.251609   -0.672769    0.821841
      5          1           0       -1.617986   -0.718993   -0.682453
      6          6           0        0.565841   -0.600403    0.042287
      7          1           0       -0.545214    0.903383    0.495391
      8          1           0       -0.326594    1.164401   -1.065202
      9          6           0        1.932591    0.193705    0.025171
     10          1           0        0.407424   -1.293365   -0.699366
     11          1           0        0.328066   -1.016192    0.886226
     12          1           0        1.869003    0.520965   -0.714770
     13          1           0        2.844949   -0.722592   -0.419072
     14          1           0        2.453876    1.317991    1.143252
 ---------------------------------------------------------------------

 SCF Done:  E(RB2PLYPD3) =  -157.616392613     A.U. after   11 cycles
 E2(B2PLYPD3) =    -0.2546211097D+00 E(B2PLYPD3) =    -0.15787101372230D+03

 The electronic state is 1-A.
 Alpha  occ. eigenvalues --  -10.64947 -10.60892 -10.60456 -10.58202  -0.95962
 Alpha  occ. eigenvalues --   -0.86408  -0.75046  -0.72214  -0.57901  -0.50912
 Alpha  occ. eigenvalues --   -0.48756  -0.47123  -0.42306  -0.40481  -0.37755
 Alpha  occ. eigenvalues --   -0.35960  -0.33914
 Alpha virt. eigenvalues --    0.01100   0.04425   0.06684   0.07731   0.09875
 Alpha virt. eigenvalues --    0.11069   0.11785   0.12466   0.14491   0.15168
 Alpha virt. eigenvalues --    0.15856   0.16416   0.18602   0.19184   0.19480

 Mulliken charges:
               1
     1  C   -0.201813
     2  C   -0.358448
     3  H    0.024643
     4  H    0.073359
     5  H    0.054192
     6  C   -0.016392
     7  H    0.346844
     8  H    0.013561
     9  C   -0.396306
    10  H    0.051863
    11  H    0.065988
    12  H    0.278795
    13  H    0.017932
    14  H    0.045781
 Sum of Mulliken charges =   0.00000

 Dipole moment (field-independent basis, Debye):
    X=              0.0283    Y=             -0.1959    Z=              0.0135  Tot=              0.1984
 Quadrupole moment (field-independent basis, Debye-Ang):
   XX=            -32.8151   YY=            -28.5884   ZZ=            -28.6238
   XY=              0.5901   XZ=             -1.8895   YZ=              0.4563

 Normal termination of Gaussian 09 at Wed Aug 26 12:39:39 2020.
