 Gaussian 09, Revision D.01,
 Gaussian 09:  ES64L-G09RevD.01 24-Apr-2013

 --------------------
 #p B2PLYPD3/Def2QZVP
 --------------------

 ----------
 butane_opt
 ----------
 Symbolic Z-matrix:
 Charge =  0 Multiplicity = 1

                         Standard orientation:
 ---------------------------------------------------------------------
 Center     Atomic      Atomic             Coordinates (Angstroms)
 Number     Number       Type             X           Y           Z
 ---------------------------------------------------------------------
      1          6           0        2.087975   -0.150301   -0.171285
      2          6           0        0.532448    0.631427    0.157071
      3          1           0        2.532587    0.332159   -0.339726
      4          1           0        2.021242   -0.788200   -0.978238
      5          1           0        2.394062   -0.736407    0.671250
      6          6           0       -0.613000   -0.511757    0.179310
      7          1           0        0.075269    1.316290   -0.620452
      8          1           0        0.349981    1.490258    1.083022
      9          6           0       -1.920750    0.054882   -0.197445
     10          1           0       -0.532890   -1.449617    1.416017
     11          1           0       -0.513799   -0.875535   -0.395721
     12          1           0       -2.173896    0.834452    0.806817
     13          1           0       -2.712347   -0.764279   -0.520440
     14          1           0       -1.960248    0.495368   -0.928437
 ---------------------------------------------------------------------

 SCF Done:  E(RB2PLYPD3) =  -157.406932528     A.U. after   11 cycles
 E2(B2PLYPD3) =    -0.2513112173D+00 E(B2PLYPD3) =    -0.15765824374502D+03

 The electronic state is 1-A.
 Alpha  occ. eigenvalues --  -10.65178 -10.60790 -10.60340 -10.57877  -0.93964
 Alpha  occ. eigenvalues --   -0.87426  -0.76593  -0.70746  -0.54919  -0.53962
 Alpha  occ. eigenvalues --   -0.48576  -0.46687  -0.44622  -0.39934  -0.38378
 Alpha  occ. eigenvalues --   -0.37130  -0.34189
 Alpha virt. eigenvalues --    0.04078   0.06296   0.06517   0.08426   0.11119
 Alpha virt. eigenvalues --    0.11511   0.12020   0.13545   0.14597   0.15291
 Alpha virt. eigenvalues --    0.16041   0.17163   0.18345   0.18871   0.19130

 Mulliken charges:
               1
     1  C   -0.522155
     2  C   -0.063940
     3  H    0.419454
     4  H    0.059586
     5  H    0.080500
     6  C   -0.560614
     7  H    0.033006
     8  H    0.025439
     9  C   -0.220707
    10  H   -0.009246
    11  H    0.548034
    12  H    0.039603
    13  H    0.032808
    14  H    0.138232
 Sum of Mulliken charges =   0.00000

 Dipole moment (field-independent basis, Debye):
    X=              0.5035    Y=              0.0855    Z=             -1.0769  Tot=              1.1919
 Quadrupole moment (field-independent basis, Debye-Ang):
   XX=            -28.7982   YY=            -28.9353   ZZ=            -28.2928
   XY=             -0.5850   XZ=              1.0997   YZ=              0.6387

 Normal termination of Gaussian 09 at Wed Aug 26 09:44:19 2020.
