 Gaussian 09, Revision D.01,
 Gaussian 09:  ES64L-G09RevD.01 24-Apr-2013

 --------------------
 #p B2PLYPD3/Def2QZVP
 --------------------

 ----------
 butane_opt
 ----------
 Symbolic Z-matrix:
 Charge =  0 Multiplicity = 1

                         Standard orientation:
 ---------------------------------------------------------------------
 Center     Atomic      Atomic             Coordinates (Angstroms)
 Number     Number       Type             X           Y           Z
 ---------------------------------------------------------------------
      1          6           0        1.891409    0.067867    0.139270
      2          6           0        0.535082   -0.453045   -0.160962
      3          1           0        2.806073   -0.739071   -0.009065
      4          1           0        1.691528    0.746000    1.148650
      5          1           0        2.135788    0.574474   -0.691269
      6          6           0       -0.505887    0.578120   -0.157805
      7          1           0        0.258613   -1.265000    0.793005
      8          1           0        0.600657   -0.946119   -0.848060
      9          6           0       -1.934765   -0.140653    0.123047
     10          1           0       -0.424448    1.286774   -0.989173
     11          1           0       -0.321782    1.075107    0.640196
     12          1           0       -2.299048   -0.791879   -0.927649
     13          1           0       -2.434559    0.259260    0.477026
     14          1           0       -1.927858   -0.513278    0.745046
 ---------------------------------------------------------------------

 SCF Done:  E(RB2PLYPD3) =  -157.587519510     A.U. after   11 cycles
 E2(B2PLYPD3) =    -0.2478433643D+00 E(B2PLYPD3) =    -0.15783536287456D+03

 The electronic state is 1-A.
 Alpha  occ. eigenvalues --  -10.61187 -10.59362 -10.58361 -10.54808  -0.95688
 Alpha  occ. eigenvalues --   -0.90584  -0.77856  -0.69435  -0.56160  -0.51747
 Alpha  occ. eigenvalues --   -0.48689  -0.48233  -0.43859  -0.41496  -0.40245
 Alpha  occ. eigenvalues --   -0.37210  -0.35259
 Alpha virt. eigenvalues --    0.05113   0.06874   0.08196   0.08651   0.10599
 Alpha virt. eigenvalues --    0.12202   0.12453   0.13203   0.15087   0.15461
 Alpha virt. eigenvalues --    0.16810   0.17427   0.19276   0.19655   0.21437

 Mulliken charges:
               1
     1  C   -0.150064
     2  C   -0.106913
     3  H    0.029260
     4  H    0.038499
     5  H    0.055152
     6  C   -0.016546
     7  H   -0.015460
     8  H    0.114653
     9  C   -0.652113
    10  H    0.032611
    11  H    0.069100
    12  H    0.047544
    13  H    0.264486
    14  H    0.289792
 Sum of Mulliken charges =   0.00000

 Dipole moment (field-independent basis, Debye):
    X=             -0.1302    Y=              0.2384    Z=             -0.0787  Tot=              0.2828
 Quadrupole moment (field-independent basis, Debye-Ang):
   XX=            -29.4326   YY=            -29.2001   ZZ=            -26.8753
   XY=             -0.3667   XZ=             -2.5238   YZ=              0.7310

 Normal termination of Gaussian 09 at Wed Aug 26 16:02:22 2020.
