 Gaussian 09, Revision D.01,
 Gaussian 09:  ES64L-G09RevD.01 24-Apr-2013

 --------------------
 #p B2PLYPD3/Def2QZVP
 --------------------

 ----------
 butane_opt
 ----------
 Symbolic Z-matrix:
 Charge =  0 Multiplicity = 1

                         Standard orientation:
 ---------------------------------------------------------------------
 Center     Atomic      Atomic             Coordinates (Angstroms)
 Number     Number       Type             X           Y           Z
 ---------------------------------------------------------------------
      1          6           0        1.977425   -0.195500   -0.213281
      2          6           0        0.549606    0.691991    0.110565
      3          1           0        2.689720    0.145027   -0.556562
      4          1           0        2.158947   -0.814951   -0.919664
      5          1           0        2.528135   -0.920331    0.968105
      6          6           0       -0.576253   -0.404181    0.311717
      7          1           0        0.239652    0.722231   -0.490837
      8          1           0        0.742397    1.717162    0.865469
      9          6           0       -1.998424   -0.021973   -0.202667
     10          1           0       -0.654464   -0.932563    1.515660
     11          1           0       -0.661154   -0.906594   -0.363415
     12          1           0       -2.177296    0.885251    0.591101
     13          1           0       -2.753366   -0.823406   -0.380061
     14          1           0       -1.826697    0.506150   -1.267801
 ---------------------------------------------------------------------

 SCF Done:  E(RB2PLYPD3) =  -157.491990402     A.U. after   11 cycles
 E2(B2PLYPD3) =    -0.2541139139D+00 E(B2PLYPD3) =    -0.15774610431546D+03

 The electronic state is 1-A.
 Alpha  occ. eigenvalues --  -10.63798 -10.62262 -10.61087 -10.60349  -0.95785
 Alpha  occ. eigenvalues --   -0.85946  -0.80709  -0.67638  -0.55341  -0.52068
 Alpha  occ. eigenvalues --   -0.47365  -0.46315  -0.42491  -0.41198  -0.37358
 Alpha  occ. eigenvalues --   -0.35678  -0.33230
 Alpha virt. eigenvalues --    0.04751   0.05710   0.07516   0.08166   0.10652
 Alpha virt. eigenvalues --    0.11030   0.11690   0.11959   0.13392   0.15225
 Alpha virt. eigenvalues --    0.15856   0.17539   0.18318   0.19028   0.20260

 Mulliken charges:
               1
     1  C   -0.231629
     2  C   -0.711176
     3  H    0.138541
     4  H    0.056288
     5  H   -0.011585
     6  C   -0.215031
     7  H    0.658051
     8  H    0.085086
     9  C   -0.187214
    10  H    0.022108
    11  H    0.244357
    12  H    0.045860
    13  H    0.077583
    14  H    0.028758
 Sum of Mulliken charges =   0.00000

 Dipole moment (field-independent basis, Debye):
    X=             -0.2689    Y=              0.2273    Z=             -0.9731  Tot=              1.0349
 Quadrupole moment (field-independent basis, Debye-Ang):
   XX=            -29.8498   YY=            -29.3775   ZZ=            -28.0632
   XY=              1.7472   XZ=             -0.9606   YZ=              1.3445

 Normal termination of Gaussian 09 at Wed Aug 26 16:05:29 2020.
