 Gaussian 09, Revision D.01,
 Gaussian 09:  ES64L-G09RevD.01 24-Apr-2013

 --------------------
 #p B2PLYPD3/Def2QZVP
 --------------------

 ----------
 butane_opt
 ----------
 Symbolic Z-matrix:
 Charge =  0 Multiplicity = 1

                         Standard orientation:
 ---------------------------------------------------------------------
 Center     Atomic      Atomic             Coordinates (Angstroms)
 Number     Number       Type             X           Y           Z
 ---------------------------------------------------------------------
      1          6           0       -1.934679    0.075333   -0.145184
      2          6           0       -0.659299   -0.439237    0.331784
      3          1           0       -2.812371   -0.859310   -0.799730
      4          1           0       -1.324853    0.435273   -0.989851
      5          1           0       -2.510079    1.054640    0.753423
      6          6           0        0.504247    0.610944    0.029664
      7          1           0       -0.548250   -1.115792   -0.488012
      8          1           0       -0.766749   -0.969109    1.346063
      9          6           0        2.012652   -0.209498   -0.108498
     10          1           0        0.780243    1.214104    0.673864
     11          1           0        0.143823    1.045717   -0.825930
     12          1           0        2.430532   -0.652060    0.746693
     13          1           0        2.985864    0.607123   -0.070128
     14          1           0        2.084320   -0.985838   -0.992982
 ---------------------------------------------------------------------

 SCF Done:  E(RB2PLYPD3) =  -157.898049627     A.U. after   11 cycles
 E2(B2PLYPD3) =    -0.2550397631D+00 E(B2PLYPD3) =    -0.15815308938963D+03

 The electronic state is 1-A.
 Alpha  occ. eigenvalues --  -10.65949 -10.63607 -10.62038 -10.61426  -0.93187
 Alpha  occ. eigenvalues --   -0.82365  -0.72809  -0.64927  -0.57150  -0.49255
 Alpha  occ. eigenvalues --   -0.47432  -0.45251  -0.42727  -0.39992  -0.38123
 Alpha  occ. eigenvalues --   -0.35912  -0.34395
 Alpha virt. eigenvalues --    0.03511   0.05551   0.07756   0.08407   0.09473
 Alpha virt. eigenvalues --    0.10094   0.11986   0.12515   0.14045   0.14099
 Alpha virt. eigenvalues --    0.15728   0.16800   0.18285   0.18568   0.20125

 Mulliken charges:
               1
     1  C   -0.162531
     2  C   -0.090464
     3  H    0.029429
     4  H    0.051089
     5  H    0.022988
     6  C   -0.078885
     7  H    0.081942
     8  H    0.042308
     9  C   -0.164627
    10  H    0.077116
    11  H    0.072624
    12  H    0.061749
    13  H    0.011045
    14  H    0.046218
 Sum of Mulliken charges =   0.00000

 Dipole moment (field-independent basis, Debye):
    X=              0.5809    Y=             -0.1019    Z=              0.1042  Tot=              0.5990
 Quadrupole moment (field-independent basis, Debye-Ang):
   XX=            -32.3133   YY=            -29.6863   ZZ=            -28.8220
   XY=              0.6067   XZ=              0.9709   YZ=              1.1446

 Normal termination of Gaussian 09 at Wed Aug 26 14:34:29 2020.
