 Gaussian 09, Revision D.01,
 Gaussian 09:  ES64L-G09RevD.01 24-Apr-2013

 --------------------
 #p B2PLYPD3/Def2QZVP
 --------------------

 ----------
 butane_opt
 ----------
 Symbolic Z-matrix:
 Charge =  0 Multiplicity = 1

                         Standard orientation:
 ---------------------------------------------------------------------
 Center     Atomic      Atomic             Coordinates (Angstroms)
 Number     Number       Type             X           Y           Z
 ---------------------------------------------------------------------
      1          6           0       -1.951426    0.130275    0.068992
      2          6           0       -0.550748   -0.513420    0.084222
      3          1           0       -2.514522   -0.475282   -0.901004
      4          1           0       -1.698151    0.243387   -0.614548
      5          1           0       -2.513928    1.457004    1.172642
      6          6           0        0.608720    0.386095   -0.248683
      7          1           0       -0.396643   -1.510197   -0.757605
      8          1           0       -0.242571   -1.117039    1.172938
      9          6           0        1.896354   -0.061408    0.123296
     10          1           0        0.363916    1.191160    0.487351
     11          1           0        0.526912    0.908993   -1.141018
     12          1           0        1.836118   -0.724667    1.082133
     13          1           0        2.730106    0.992771   -0.102110
     14          1           0        1.891363   -0.615381   -0.565739
 ---------------------------------------------------------------------

 SCF Done:  E(RB2PLYPD3) =  -157.546826573     A.U. after   13 cycles
 E2(B2PLYPD3) =    -0.2622771497D+00 E(B2PLYPD3) =    -0.15780910372287D+03

 The electronic state is 1-A.
 Alpha  occ. eigenvalues --  -10.66678 -10.63415 -10.60478 -10.59897  -0.96983
 Alpha  occ. eigenvalues --   -0.91176  -0.74628  -0.65821  -0.55441  -0.49513
 Alpha  occ. eigenvalues --   -0.47362  -0.45838  -0.42318  -0.38561  -0.37326
 Alpha  occ. eigenvalues --   -0.35072  -0.32190
 Alpha virt. eigenvalues --   -0.02873   0.04182   0.05468   0.07058   0.09824
 Alpha virt. eigenvalues --    0.10525   0.11603   0.11739   0.13904   0.14641
 Alpha virt. eigenvalues --    0.15866   0.17534   0.17740   0.19030   0.19379

 Mulliken charges:
               1
     1  C   -0.647957
     2  C   -0.050972
     3  H    0.055622
     4  H    0.518428
     5  H    0.072348
     6  C    0.002351
     7  H   -0.005475
     8  H    0.010881
     9  C   -0.236967
    10  H    0.011197
    11  H    0.032371
    12  H    0.059140
    13  H    0.036449
    14  H    0.142585
 Sum of Mulliken charges =   0.00000

 Dipole moment (field-independent basis, Debye):
    X=              0.3403    Y=              0.5291    Z=             -0.9155  Tot=              1.1108
 Quadrupole moment (field-independent basis, Debye-Ang):
   XX=            -33.5147   YY=            -29.7497   ZZ=            -27.8568
   XY=             -1.3925   XZ=              0.7181   YZ=              0.9352

 Normal termination of Gaussian 09 at Wed Aug 26 13:29:51 2020.
