 Gaussian 09, Revision D.01,
 Gaussian 09:  ES64L-G09RevD.01 24-Apr-2013

 --------------------
 #p B2PLYPD3/Def2QZVP
 --------------------

 ----------
 butane_opt
 ----------
 Symbolic Z-matrix:
 Charge =  0 Multiplicity = 1

                         Standard orientation:
 ---------------------------------------------------------------------
 Center     Atomic      Atomic             Coordinates (Angstroms)
 Number     Number       Type             X           Y           Z
 ---------------------------------------------------------------------
      1          6           0        1.947684    0.067568    0.024036
      2          6           0        0.629668   -0.462540   -0.018675
      3          1           0        2.699556   -0.672225   -0.426036
      4          1           0        2.319028    1.089523    1.136125
      5          1           0        1.893302    0.444655   -0.605842
      6          6           0       -0.574374    0.558846   -0.050461
      7          1           0        0.412196   -1.191592    0.965167
      8          1           0        0.618159   -1.178699   -0.883048
      9          6           0       -2.021401   -0.155632    0.063293
     10          1           0       -0.537744    1.409433   -1.099009
     11          1           0       -0.380384    1.031837    0.704119
     12          1           0       -2.145000   -0.717060   -0.800710
     13          1           0       -2.680365    0.472029   -0.055320
     14          1           0       -2.088207   -0.737356    0.955395
 ---------------------------------------------------------------------

 SCF Done:  E(RB2PLYPD3) =  -157.764889168     A.U. after   11 cycles
 E2(B2PLYPD3) =    -0.2499290073D+00 E(B2PLYPD3) =    -0.15801481817529D+03

 The electronic state is 1-A.
 Alpha  occ. eigenvalues --  -10.62693 -10.62082 -10.60081 -10.58008  -0.94270
 Alpha  occ. eigenvalues --   -0.86489  -0.76219  -0.67056  -0.53193  -0.51458
 Alpha  occ. eigenvalues --   -0.49802  -0.47408  -0.43093  -0.41868  -0.38967
 Alpha  occ. eigenvalues --   -0.36451  -0.35285
 Alpha virt. eigenvalues --    0.04045   0.06106   0.07111   0.07401   0.10393
 Alpha virt. eigenvalues --    0.11592   0.12503   0.13395   0.14420   0.15270
 Alpha virt. eigenvalues --    0.15636   0.16489   0.18372   0.19410   0.20742

 Mulliken charges:
               1
     1  C   -0.534455
     2  C    0.013001
     3  H    0.062845
     4  H    0.010810
     5  H    0.416986
     6  C   -0.132771
     7  H   -0.000344
     8  H    0.029719
     9  C   -0.140103
    10  H   -0.014440
    11  H    0.124892
    12  H    0.037889
    13  H    0.069653
    14  H    0.056319
 Sum of Mulliken charges =   0.00000

 Dipole moment (field-independent basis, Debye):
    X=             -0.3843    Y=             -0.1243    Z=             -0.4968  Tot=              0.6402
 Quadrupole moment (field-independent basis, Debye-Ang):
   XX=            -29.5983   YY=            -29.4692   ZZ=            -28.1441
   XY=             -0.4935   XZ=             -1.4400   YZ=              0.6418

 Normal termination of Gaussian 09 at Wed Aug 26 15:24:19 2020.
