 Gaussian 09, Revision D.01,
 Gaussian 09:  ES64L-G09RevD.01 24-Apr-2013

 --------------------
 #p B2PLYPD3/Def2QZVP
 --------------------

 ----------
 butane_opt
 ----------
 Symbolic Z-matrix:
 Charge =  0 Multiplicity = 1

                         Standard orientation:
 ---------------------------------------------------------------------
 Center     Atomic      Atomic             Coordinates (Angstroms)
 Number     Number       Type             X           Y           Z
 ---------------------------------------------------------------------
      1          6           0       -1.850093   -0.085920   -0.057229
      2          6           0       -0.541205    0.487151    0.070456
      3          1           0       -2.618292    0.536277   -0.028738
      4          1           0       -2.025656   -0.795696    0.800219
      5          1           0       -1.991503   -0.593560   -0.917560
      6          6           0        0.531486   -0.539674    0.074842
      7          1           0       -0.528286    1.074005    0.787005
      8          1           0       -0.682048    1.109744   -0.861392
      9          6           0        1.906524    0.099742   -0.084263
     10          1           0        0.267699   -0.915584   -0.529735
     11          1           0        0.586411   -1.398460    0.961180
     12          1           0        1.912054    0.608927   -0.783973
     13          1           0        2.631678   -0.584576   -0.538800
     14          1           0        2.167667    1.191127    1.088960
 ---------------------------------------------------------------------

 SCF Done:  E(RB2PLYPD3) =  -157.775782549     A.U. after   11 cycles
 E2(B2PLYPD3) =    -0.2484951581D+00 E(B2PLYPD3) =    -0.15802427770732D+03

 The electronic state is 1-A.
 Alpha  occ. eigenvalues --  -10.61736 -10.58463 -10.57930 -10.57203  -0.95812
 Alpha  occ. eigenvalues --   -0.86483  -0.76791  -0.70877  -0.56765  -0.51820
 Alpha  occ. eigenvalues --   -0.50931  -0.48566  -0.43049  -0.41452  -0.38960
 Alpha  occ. eigenvalues --   -0.36061  -0.35922
 Alpha virt. eigenvalues --    0.02893   0.06289   0.07611   0.08548   0.10701
 Alpha virt. eigenvalues --    0.11155   0.12718   0.13120   0.14281   0.15368
 Alpha virt. eigenvalues --    0.15984   0.17328   0.19160   0.19964   0.21820

 Mulliken charges:
               1
     1  C   -0.112469
     2  C   -0.013910
     3  H    0.036071
     4  H    0.019674
     5  H    0.032270
     6  C   -0.394214
     7  H    0.057991
     8  H   -0.001416
     9  C   -0.206858
    10  H    0.366887
    11  H    0.034752
    12  H    0.141341
    13  H    0.040930
    14  H   -0.001048
 Sum of Mulliken charges =   0.00000

 Dipole moment (field-independent basis, Debye):
    X=             -0.5347    Y=             -0.0540    Z=             -0.9218  Tot=              1.0670
 Quadrupole moment (field-independent basis, Debye-Ang):
   XX=            -30.2893   YY=            -28.7152   ZZ=            -27.8969
   XY=             -1.2808   XZ=             -1.2184   YZ=              0.4454

 Normal termination of Gaussian 09 at Wed Aug 26 20:25:31 2020.
