 Gaussian 09, Revision D.01,
 Gaussian 09:  ES64L-G09RevD.01 24-Apr-2013

 --------------------
 #p B2PLYPD3/Def2QZVP
 --------------------

 ----------
 butane_opt
 ----------
 Symbolic Z-matrix:
 Charge =  0 Multiplicity = 1

                         Standard orientation:
 ---------------------------------------------------------------------
 Center     Atomic      Atomic             Coordinates (Angstroms)
 Number     Number       Type             X           Y           Z
 ---------------------------------------------------------------------
      1          6           0        1.918815    0.074117    0.085031
      2          6           0        0.554581   -0.432133   -0.051323
      3          1           0        2.803082   -0.877493   -0.587360
      4          1           0        2.154584    0.901795    1.118333
      5          1           0        1.701797    0.347806   -0.555276
      6          6           0       -0.540288    0.498076   -0.052007
      7          1           0        0.194658   -0.833234    0.870928
      8          1           0        0.746166   -1.017249   -0.845833
      9          6           0       -1.920457   -0.159189   -0.007216
     10          1           0       -0.371091    1.167464   -0.949372
     11          1           0       -0.239488    1.325318    0.906676
     12          1           0       -2.025196   -0.168647   -0.587682
     13          1           0       -2.655787    0.453863   -0.459450
     14          1           0       -2.384630   -1.184847    1.242130
 ---------------------------------------------------------------------

 SCF Done:  E(RB2PLYPD3) =  -157.066451599     A.U. after   13 cycles
 E2(B2PLYPD3) =    -0.2597082875D+00 E(B2PLYPD3) =    -0.15732615988697D+03

 The electronic state is 1-A.
 Alpha  occ. eigenvalues --  -10.64132 -10.62577 -10.61028 -10.58970  -1.00175
 Alpha  occ. eigenvalues --   -0.96158  -0.80602  -0.65900  -0.57381  -0.52347
 Alpha  occ. eigenvalues --   -0.48177  -0.46142  -0.40872  -0.39219  -0.37056
 Alpha  occ. eigenvalues --   -0.35310  -0.32861
 Alpha virt. eigenvalues --    0.00836   0.03702   0.05627   0.07276   0.09651
 Alpha virt. eigenvalues --    0.10164   0.11339   0.12869   0.14177   0.14851
 Alpha virt. eigenvalues --    0.15847   0.16969   0.17409   0.19273   0.19589

 Mulliken charges:
               1
     1  C   -0.610507
     2  C    0.019824
     3  H    0.012031
     4  H    0.061349
     5  H    0.468574
     6  C   -0.027957
     7  H    0.032790
     8  H    0.050040
     9  C   -0.861376
    10  H   -0.001346
    11  H    0.014442
    12  H    0.731485
    13  H    0.035492
    14  H    0.075159
 Sum of Mulliken charges =   0.00000

 Dipole moment (field-independent basis, Debye):
    X=             -0.8938    Y=              0.0969    Z=             -0.8669  Tot=              1.2489
 Quadrupole moment (field-independent basis, Debye-Ang):
   XX=            -30.8072   YY=            -30.6639   ZZ=            -27.0407
   XY=              0.7067   XZ=              0.5494   YZ=             -0.2131

 Normal termination of Gaussian 09 at Wed Aug 26 11:26:32 2020.
