 Gaussian 09, Revision D.01,
 Gaussian 09:  ES64L-G09RevD.01 24-Apr-2013

 --------------------
 #p B2PLYPD3/Def2QZVP
 --------------------

 ----------
 butane_opt
 ----------
 Symbolic Z-matrix:
 Charge =  0 Multiplicity = 1

                         Standard orientation:
 ---------------------------------------------------------------------
 Center     Atomic      Atomic             Coordinates (Angstroms)
 Number     Number       Type             X           Y           Z
 ---------------------------------------------------------------------
      1          6           0        1.864558    0.084580   -0.202041
      2          6           0        0.596803   -0.422248    0.253290
      3          1           0        2.694344   -0.857933   -0.556795
      4          1           0        2.454838    0.980190    0.666516
      5          1           0        1.320526    0.560015   -1.099535
      6          6           0       -0.527342    0.497805    0.123745
      7          1           0        0.912836   -1.072545    1.264642
      8          1           0        0.491001   -0.892454   -0.318990
      9          6           0       -1.945422   -0.179668   -0.048646
     10          1           0       -0.299573    0.968159   -0.764757
     11          1           0       -0.376172    1.416486    0.921443
     12          1           0       -1.741056   -1.029739   -0.965478
     13          1           0       -2.868706    0.658262   -0.489316
     14          1           0       -2.519620   -0.613252    0.584181
 ---------------------------------------------------------------------

 SCF Done:  E(RB2PLYPD3) =  -157.790925873     A.U. after   11 cycles
 E2(B2PLYPD3) =    -0.2531592554D+00 E(B2PLYPD3) =    -0.15804408512883D+03

 The electronic state is 1-A.
 Alpha  occ. eigenvalues --  -10.65072 -10.63997 -10.62840 -10.57827  -0.97259
 Alpha  occ. eigenvalues --   -0.83363  -0.72714  -0.68190  -0.56243  -0.51669
 Alpha  occ. eigenvalues --   -0.47876  -0.46203  -0.41958  -0.39269  -0.38253
 Alpha  occ. eigenvalues --   -0.36945  -0.36220
 Alpha virt. eigenvalues --    0.04479   0.05456   0.07831   0.08203   0.09893
 Alpha virt. eigenvalues --    0.10591   0.11676   0.12904   0.14157   0.14942
 Alpha virt. eigenvalues --    0.15959   0.16583   0.17916   0.19596   0.20400

 Mulliken charges:
               1
     1  C   -0.141061
     2  C   -0.464027
     3  H    0.045366
     4  H    0.024868
     5  H    0.033855
     6  C   -0.000827
     7  H    0.031604
     8  H    0.435745
     9  C   -0.169842
    10  H    0.070543
    11  H    0.022700
    12  H    0.017878
    13  H    0.015533
    14  H    0.077665
 Sum of Mulliken charges =   0.00000

 Dipole moment (field-independent basis, Debye):
    X=             -0.3022    Y=             -0.3720    Z=             -0.1701  Tot=              0.5085
 Quadrupole moment (field-independent basis, Debye-Ang):
   XX=            -30.4268   YY=            -29.6598   ZZ=            -29.7036
   XY=             -0.6876   XZ=             -0.0794   YZ=              0.5894

 Normal termination of Gaussian 09 at Wed Aug 26 21:23:16 2020.
