 Gaussian 09, Revision D.01,
 Gaussian 09:  ES64L-G09RevD.01 24-Apr-2013

 --------------------
 #p B2PLYPD3/Def2QZVP
 --------------------

 ----------
 butane_opt
 ----------
 Symbolic Z-matrix:
 Charge =  0 Multiplicity = 1

                         Standard orientation:
 ---------------------------------------------------------------------
 Center     Atomic      Atomic             Coordinates (Angstroms)
 Number     Number       Type             X           Y           Z
 ---------------------------------------------------------------------
      1          6           0       -1.931496   -0.090741    0.116619
      2          6           0       -0.542974    0.576779   -0.202591
      3          1           0       -2.547218    0.369094    0.697583
      4          1           0       -1.581575   -0.595262    0.864432
      5          1           0       -2.534218   -1.009705   -0.985259
      6          6           0        0.577442   -0.562411   -0.150801
      7          1           0       -0.367490    1.190725    0.578499
      8          1           0       -0.390786    1.317845   -1.031462
      9          6           0        1.891459    0.091318    0.133541
     10          1           0        0.563336   -0.933655   -0.674949
     11          1           0        0.173561   -1.191995    0.824412
     12          1           0        2.104164    0.735286   -0.609306
     13          1           0        2.774945   -0.783602   -0.088014
     14          1           0        1.838694    0.811599    1.043454
 ---------------------------------------------------------------------

 SCF Done:  E(RB2PLYPD3) =  -157.619498211     A.U. after   11 cycles
 E2(B2PLYPD3) =    -0.2504965625D+00 E(B2PLYPD3) =    -0.15786999477318D+03

 The electronic state is 1-A.
 Alpha  occ. eigenvalues --  -10.61478 -10.61399 -10.61196 -10.58598  -0.93715
 Alpha  occ. eigenvalues --   -0.85461  -0.75146  -0.72344  -0.56032  -0.50813
 Alpha  occ. eigenvalues --   -0.47151  -0.46262  -0.44888  -0.40624  -0.39187
 Alpha  occ. eigenvalues --   -0.36824  -0.35413
 Alpha virt. eigenvalues --    0.04363   0.05493   0.08019   0.08259   0.10714
 Alpha virt. eigenvalues --    0.10995   0.12031   0.13165   0.14948   0.15239
 Alpha virt. eigenvalues --    0.16492   0.16665   0.18912   0.19632   0.20225

 Mulliken charges:
               1
     1  C   -0.204645
     2  C   -0.015644
     3  H    0.065461
     4  H    0.091627
     5  H    0.012411
     6  C   -0.581841
     7  H    0.060534
     8  H    0.026664
     9  C   -0.114958
    10  H    0.488913
    11  H    0.036910
    12  H    0.064849
    13  H    0.026442
    14  H    0.043277
 Sum of Mulliken charges =   0.00000

 Dipole moment (field-independent basis, Debye):
    X=              0.2982    Y=              0.4382    Z=              0.2869  Tot=              0.6027
 Quadrupole moment (field-independent basis, Debye-Ang):
   XX=            -31.4844   YY=            -28.7101   ZZ=            -27.9423
   XY=             -0.0334   XZ=             -2.2668   YZ=              0.9630

 Normal termination of Gaussian 09 at Wed Aug 26 15:05:57 2020.
