 Gaussian 09, Revision D.01,
 Gaussian 09:  ES64L-G09RevD.01 24-Apr-2013

 --------------------
 #p B2PLYPD3/Def2QZVP
 --------------------

 ----------
 butane_opt
 ----------
 Symbolic Z-matrix:
 Charge =  0 Multiplicity = 1

                         Standard orientation:
 ---------------------------------------------------------------------
 Center     Atomic      Atomic             Coordinates (Angstroms)
 Number     Number       Type             X           Y           Z
 ---------------------------------------------------------------------
      1          6           0       -2.067401   -0.170821    0.047255
      2          6           0       -0.517447    0.627156    0.018992
      3          1           0       -2.843640    0.615265   -0.296260
      4          1           0       -2.611407   -1.299610    1.208123
      5          1           0       -1.924632   -0.318482   -0.636767
      6          6           0        0.679189   -0.460050   -0.203198
      7          1           0       -0.448068    0.902696    0.636515
      8          1           0       -0.255995    1.608125   -0.802194
      9          6           0        1.919276    0.042125    0.124434
     10          1           0        0.420920   -1.387720   -1.432789
     11          1           0        0.608665   -1.055113    0.604399
     12          1           0        2.303533    0.725251   -0.644282
     13          1           0        2.747779   -0.758951    0.197257
     14          1           0        1.921142    0.738070    1.241100
 ---------------------------------------------------------------------

 SCF Done:  E(RB2PLYPD3) =  -157.366350050     A.U. after   12 cycles
 E2(B2PLYPD3) =    -0.2577967399D+00 E(B2PLYPD3) =    -0.15762414678992D+03

 The electronic state is 1-A.
 Alpha  occ. eigenvalues --  -10.63662 -10.62910 -10.62699 -10.61764  -0.93776
 Alpha  occ. eigenvalues --   -0.87231  -0.79331  -0.66996  -0.54383  -0.48677
 Alpha  occ. eigenvalues --   -0.47360  -0.44973  -0.44137  -0.39348  -0.36813
 Alpha  occ. eigenvalues --   -0.35727  -0.34520
 Alpha virt. eigenvalues --    0.00226   0.03713   0.05164   0.07487   0.09770
 Alpha virt. eigenvalues --    0.10139   0.11305   0.12070   0.14144   0.15085
 Alpha virt. eigenvalues --    0.15583   0.16198   0.17898   0.18749   0.19755

 Mulliken charges:
               1
     1  C   -0.630811
     2  C   -0.590748
     3  H    0.065485
     4  H    0.061567
     5  H    0.498852
     6  C   -0.050676
     7  H    0.513696
     8  H    0.049016
     9  C   -0.135861
    10  H   -0.009647
    11  H    0.098448
    12  H    0.044903
    13  H    0.055351
    14  H    0.030425
 Sum of Mulliken charges =   0.00000

 Dipole moment (field-independent basis, Debye):
    X=              0.3673    Y=              0.1305    Z=              0.2605  Tot=              0.4689
 Quadrupole moment (field-independent basis, Debye-Ang):
   XX=            -29.8097   YY=            -29.4335   ZZ=            -28.8274
   XY=              0.1524   XZ=              0.5521   YZ=             -1.0261

 Normal termination of Gaussian 09 at Wed Aug 26 16:25:19 2020.
