 Gaussian 09, Revision D.01,
 Gaussian 09:  ES64L-G09RevD.01 24-Apr-2013

 --------------------
 #p B2PLYPD3/Def2QZVP
 --------------------

 ----------
 butane_opt
 ----------
 Symbolic Z-matrix:
 Charge =  0 Multiplicity = 1

                         Standard orientation:
 ---------------------------------------------------------------------
 Center     Atomic      Atomic             Coordinates (Angstroms)
 Number     Number       Type             X           Y           Z
 ---------------------------------------------------------------------
      1          6           0        1.925047   -0.043730    0.061950
      2          6           0        0.675110    0.504073   -0.165408
      3          1           0        2.639090    0.662989   -0.161538
      4          1           0        1.956500   -0.555930   -0.595673
      5          1           0        2.288832   -0.755589    1.215333
      6          6           0       -0.536927   -0.635690    0.037494
      7          1           0        0.462679    0.998755   -0.982762
      8          1           0        0.549417    1.099851    0.514067
      9          6           0       -2.012907    0.126703    0.055363
     10          1           0       -0.376089   -1.089616    0.955504
     11          1           0       -0.524064   -1.293366   -0.791011
     12          1           0       -2.770985    1.360563    1.168193
     13          1           0       -2.630004   -0.507012   -0.710132
     14          1           0       -1.897306    0.371216   -0.548372
 ---------------------------------------------------------------------

 SCF Done:  E(RB2PLYPD3) =  -157.450252067     A.U. after   12 cycles
 E2(B2PLYPD3) =    -0.2544065478D+00 E(B2PLYPD3) =    -0.15770465861447D+03

 The electronic state is 1-A.
 Alpha  occ. eigenvalues --  -10.62112 -10.62080 -10.58058 -10.57104  -0.94791
 Alpha  occ. eigenvalues --   -0.90211  -0.76698  -0.71133  -0.56469  -0.51806
 Alpha  occ. eigenvalues --   -0.48858  -0.45622  -0.41766  -0.40783  -0.38888
 Alpha  occ. eigenvalues --   -0.36033  -0.34250
 Alpha virt. eigenvalues --   -0.01345   0.05434   0.06447   0.08403   0.10141
 Alpha virt. eigenvalues --    0.10586   0.12285   0.12744   0.14540   0.15701
 Alpha virt. eigenvalues --    0.16074   0.17019   0.17803   0.19018   0.19991

 Mulliken charges:
               1
     1  C   -0.256619
     2  C   -0.090240
     3  H    0.043547
     4  H    0.169700
     5  H    0.023917
     6  C   -0.033929
     7  H    0.028850
     8  H    0.090413
     9  C   -0.798963
    10  H    0.063249
    11  H    0.044560
    12  H    0.041886
    13  H    0.035609
    14  H    0.638020
 Sum of Mulliken charges =   0.00000

 Dipole moment (field-independent basis, Debye):
    X=              0.6344    Y=              0.2981    Z=             -1.0662  Tot=              1.2759
 Quadrupole moment (field-independent basis, Debye-Ang):
   XX=            -31.6772   YY=            -28.5335   ZZ=            -27.2514
   XY=             -0.4812   XZ=              0.9110   YZ=              0.6459

 Normal termination of Gaussian 09 at Wed Aug 26 14:29:33 2020.
