 Gaussian 09, Revision D.01,
 Gaussian 09:  ES64L-G09RevD.01 24-Apr-2013

 --------------------
 #p B2PLYPD3/Def2QZVP
 --------------------

 ----------
 butane_opt
 ----------
 Symbolic Z-matrix:
 Charge =  0 Multiplicity = 1

                         Standard orientation:
 ---------------------------------------------------------------------
 Center     Atomic      Atomic             Coordinates (Angstroms)
 Number     Number       Type             X           Y           Z
 ---------------------------------------------------------------------
      1          6           0        1.926769   -0.181419   -0.069130
      2          6           0        0.558413    0.545818    0.041304
      3          1           0        2.775482    0.629761   -0.221676
      4          1           0        2.119541   -1.030438   -0.931861
      5          1           0        2.272232   -0.540915    0.731176
      6          6           0       -0.586258   -0.434481    0.324794
      7          1           0        0.504028    1.029427   -1.075561
      8          1           0        0.694924    1.175059    0.794011
      9          6           0       -1.960804    0.082906   -0.213451
     10          1           0       -0.754217   -0.794666    1.223719
     11          1           0       -0.251845   -1.042929   -0.293563
     12          1           0       -2.572013    1.228526    0.690940
     13          1           0       -2.924950   -0.874342   -0.503497
     14          1           0       -1.491910    0.143566   -0.914795
 ---------------------------------------------------------------------

 SCF Done:  E(RB2PLYPD3) =  -157.821224153     A.U. after   11 cycles
 E2(B2PLYPD3) =    -0.2524634845D+00 E(B2PLYPD3) =    -0.15807368763737D+03

 The electronic state is 1-A.
 Alpha  occ. eigenvalues --  -10.63795 -10.62192 -10.61063 -10.58624  -0.94282
 Alpha  occ. eigenvalues --   -0.84974  -0.73874  -0.68544  -0.58372  -0.50597
 Alpha  occ. eigenvalues --   -0.47151  -0.45699  -0.41888  -0.41114  -0.39314
 Alpha  occ. eigenvalues --   -0.36852  -0.34234
 Alpha virt. eigenvalues --    0.03315   0.05452   0.07857   0.08347   0.09228
 Alpha virt. eigenvalues --    0.10222   0.12023   0.12905   0.14206   0.14678
 Alpha virt. eigenvalues --    0.15720   0.17027   0.18822   0.19090   0.21232

 Mulliken charges:
               1
     1  C   -0.145332
     2  C   -0.041454
     3  H    0.023211
     4  H    0.023381
     5  H    0.063126
     6  C   -0.119477
     7  H    0.033469
     8  H    0.061872
     9  C   -0.321779
    10  H    0.052602
    11  H    0.100399
    12  H    0.027590
    13  H    0.023959
    14  H    0.218432
 Sum of Mulliken charges =   0.00000

 Dipole moment (field-independent basis, Debye):
    X=              0.8833    Y=             -0.2993    Z=              0.2455  Tot=              0.9643
 Quadrupole moment (field-independent basis, Debye-Ang):
   XX=            -31.3512   YY=            -29.6851   ZZ=            -28.2882
   XY=              0.7652   XZ=             -0.1007   YZ=              0.9552

 Normal termination of Gaussian 09 at Wed Aug 26 19:51:35 2020.
