 Gaussian 09, Revision D.01,
 Gaussian 09:  ES64L-G09RevD.01 24-Apr-2013

 --------------------
 #p B2PLYPD3/Def2QZVP
 --------------------

 ----------
 butane_opt
 ----------
 Symbolic Z-matrix:
 Charge =  0 Multiplicity = 1

                         Standard orientation:
 ---------------------------------------------------------------------
 Center     Atomic      Atomic             Coordinates (Angstroms)
 Number     Number       Type             X           Y           Z
 ---------------------------------------------------------------------
      1          6           0        1.950642    0.130754    0.085600
      2          6           0        0.535175   -0.477551   -0.012755
      3          1           0        2.789633   -0.769429   -0.509580
      4          1           0        2.116912    1.188070    1.192660
      5          1           0        1.761991    0.318273   -0.483479
      6          6           0       -0.554819    0.494352   -0.189324
      7          1           0        0.297236   -1.145876    0.954519
      8          1           0        0.532188   -1.261803   -0.908487
      9          6           0       -1.914718   -0.110957    0.092533
     10          1           0       -0.352518    1.086709   -1.089386
     11          1           0       -0.383219    1.217371    0.594533
     12          1           0       -2.014161   -0.601751   -0.624757
     13          1           0       -2.775200    0.604085   -0.160226
     14          1           0       -2.070549   -0.855233    1.177881
 ---------------------------------------------------------------------

 SCF Done:  E(RB2PLYPD3) =  -157.497177385     A.U. after   12 cycles
 E2(B2PLYPD3) =    -0.2546960502D+00 E(B2PLYPD3) =    -0.15775187343565D+03

 The electronic state is 1-A.
 Alpha  occ. eigenvalues --  -10.63130 -10.62368 -10.60770 -10.60623  -0.95959
 Alpha  occ. eigenvalues --   -0.88285  -0.75783  -0.65982  -0.54258  -0.49000
 Alpha  occ. eigenvalues --   -0.47835  -0.46724  -0.42069  -0.40010  -0.38152
 Alpha  occ. eigenvalues --   -0.36609  -0.35867
 Alpha virt. eigenvalues --    0.02697   0.05563   0.06324   0.07614   0.10116
 Alpha virt. eigenvalues --    0.10867   0.11919   0.12463   0.13794   0.15427
 Alpha virt. eigenvalues --    0.15813   0.16201   0.17649   0.19805   0.20883

 Mulliken charges:
               1
     1  C   -0.892219
     2  C    0.018527
     3  H    0.057672
     4  H    0.057950
     5  H    0.712081
     6  C   -0.026537
     7  H    0.018414
     8  H    0.007569
     9  C   -0.231768
    10  H    0.029195
    11  H    0.031123
    12  H    0.134408
    13  H    0.035938
    14  H    0.047649
 Sum of Mulliken charges =   0.00000

 Dipole moment (field-independent basis, Debye):
    X=             -0.5904    Y=              0.1841    Z=             -0.6578  Tot=              0.9029
 Quadrupole moment (field-independent basis, Debye-Ang):
   XX=            -31.6487   YY=            -29.2729   ZZ=            -27.9365
   XY=              0.2515   XZ=             -0.3086   YZ=              0.6248

 Normal termination of Gaussian 09 at Wed Aug 26 10:41:48 2020.
