 Gaussian 09, Revision D.01,
 Gaussian 09:  ES64L-G09RevD.01 24-Apr-2013

 --------------------
 #p B2PLYPD3/Def2QZVP
 --------------------

 ----------
 butane_opt
 ----------
 Symbolic Z-matrix:
 Charge =  0 Multiplicity = 1

                         Standard orientation:
 ---------------------------------------------------------------------
 Center     Atomic      Atomic             Coordinates (Angstroms)
 Number     Number       Type             X           Y           Z
 ---------------------------------------------------------------------
      1          6           0        1.791577    0.038239   -0.118494
      2          6           0        0.583671   -0.495513    0.173106
      3          1           0        2.735981   -0.839686   -0.105106
      4          1           0        2.011486    0.440298    0.661646
      5          1           0        2.018754    0.905012   -1.198524
      6          6           0       -0.441087    0.596440    0.102479
      7          1           0        0.589414   -0.922940    1.021177
      8          1           0        0.218505   -1.082851   -0.713543
      9          6           0       -1.943179   -0.168381   -0.114708
     10          1           0       -0.107537    0.982314   -0.660983
     11          1           0       -0.297985    1.715811    1.171639
     12          1           0       -1.967295   -0.757694   -0.921443
     13          1           0       -2.748995    0.582283   -0.496090
     14          1           0       -2.398217   -0.847253    0.986932
 ---------------------------------------------------------------------

 SCF Done:  E(RB2PLYPD3) =  -157.833485295     A.U. after   11 cycles
 E2(B2PLYPD3) =    -0.2536346642D+00 E(B2PLYPD3) =    -0.15808711995890D+03

 The electronic state is 1-A.
 Alpha  occ. eigenvalues --  -10.64187 -10.64024 -10.61503 -10.58910  -0.96518
 Alpha  occ. eigenvalues --   -0.82839  -0.73836  -0.68206  -0.57393  -0.49574
 Alpha  occ. eigenvalues --   -0.47868  -0.46373  -0.41253  -0.41059  -0.39216
 Alpha  occ. eigenvalues --   -0.35730  -0.34814
 Alpha virt. eigenvalues --    0.04264   0.05537   0.05769   0.07778   0.10152
 Alpha virt. eigenvalues --    0.10607   0.12169   0.12414   0.13702   0.15289
 Alpha virt. eigenvalues --    0.15493   0.16339   0.18547   0.18854   0.20532

 Mulliken charges:
               1
     1  C   -0.197160
     2  C   -0.029438
     3  H    0.014906
     4  H    0.109404
     5  H    0.020977
     6  C   -0.137640
     7  H    0.072163
     8  H    0.045632
     9  C   -0.170837
    10  H    0.141869
    11  H   -0.023399
    12  H    0.078695
    13  H    0.039512
    14  H    0.035315
 Sum of Mulliken charges =   0.00000

 Dipole moment (field-independent basis, Debye):
    X=              0.0318    Y=             -0.4460    Z=             -0.2876  Tot=              0.5317
 Quadrupole moment (field-independent basis, Debye-Ang):
   XX=            -30.8724   YY=            -30.4038   ZZ=            -28.3232
   XY=              0.6635   XZ=              1.7459   YZ=             -0.9086

 Normal termination of Gaussian 09 at Wed Aug 26 14:59:12 2020.
