 Gaussian 09, Revision D.01,
 Gaussian 09:  ES64L-G09RevD.01 24-Apr-2013

 --------------------
 #p B2PLYPD3/Def2QZVP
 --------------------

 ----------
 butane_opt
 ----------
 Symbolic Z-matrix:
 Charge =  0 Multiplicity = 1

                         Standard orientation:
 ---------------------------------------------------------------------
 Center     Atomic      Atomic             Coordinates (Angstroms)
 Number     Number       Type             X           Y           Z
 ---------------------------------------------------------------------
      1          6           0        2.040186   -0.127991    0.177567
      2          6           0        0.556790    0.565970   -0.271852
      3          1           0        2.713674    0.419195    0.391947
      4          1           0        2.439985   -0.862566   -0.810966
      5          1           0        1.951340   -0.703532    1.078775
      6          6           0       -0.616291   -0.524745   -0.071808
      7          1           0        0.716888    1.355139   -1.124818
      8          1           0        0.191467    0.990429    0.391983
      9          6           0       -1.931643    0.077151    0.104671
     10          1           0       -0.646898   -1.013608    0.748269
     11          1           0       -0.828632   -1.114053   -0.843638
     12          1           0       -2.101716    1.256049    1.361164
     13          1           0       -2.588902   -0.654347   -0.233208
     14          1           0       -2.141468    0.384985   -0.590978
 ---------------------------------------------------------------------

 SCF Done:  E(RB2PLYPD3) =  -157.698147659     A.U. after   11 cycles
 E2(B2PLYPD3) =    -0.2516272009D+00 E(B2PLYPD3) =    -0.15794977485939D+03

 The electronic state is 1-A.
 Alpha  occ. eigenvalues --  -10.60612 -10.60455 -10.60264 -10.59057  -0.95320
 Alpha  occ. eigenvalues --   -0.85238  -0.77406  -0.71941  -0.55637  -0.50409
 Alpha  occ. eigenvalues --   -0.49720  -0.46341  -0.43048  -0.40806  -0.37672
 Alpha  occ. eigenvalues --   -0.36311  -0.35403
 Alpha virt. eigenvalues --    0.01616   0.05912   0.06933   0.08377   0.10694
 Alpha virt. eigenvalues --    0.10993   0.12536   0.13610   0.14230   0.15048
 Alpha virt. eigenvalues --    0.15437   0.16864   0.18175   0.19447   0.21130

 Mulliken charges:
               1
     1  C   -0.186438
     2  C   -0.224805
     3  H    0.094455
     4  H    0.021993
     5  H    0.043604
     6  C   -0.033188
     7  H    0.043753
     8  H    0.180482
     9  C   -0.354801
    10  H    0.093780
    11  H    0.033445
    12  H   -0.002465
    13  H    0.040005
    14  H    0.250181
 Sum of Mulliken charges =   0.00000

 Dipole moment (field-independent basis, Debye):
    X=             -0.1178    Y=             -0.1402    Z=             -0.4713  Tot=              0.5057
 Quadrupole moment (field-independent basis, Debye-Ang):
   XX=            -29.8738   YY=            -28.9193   ZZ=            -28.1026
   XY=              1.8083   XZ=              2.5977   YZ=              0.1327

 Normal termination of Gaussian 09 at Wed Aug 26 12:11:27 2020.
