 Gaussian 09, Revision D.01,
 Gaussian 09:  ES64L-G09RevD.01 24-Apr-2013

 --------------------
 #p B2PLYPD3/Def2QZVP
 --------------------

 ----------
 butane_opt
 ----------
 Symbolic Z-matrix:
 Charge =  0 Multiplicity = 1

                         Standard orientation:
 ---------------------------------------------------------------------
 Center     Atomic      Atomic             Coordinates (Angstroms)
 Number     Number       Type             X           Y           Z
 ---------------------------------------------------------------------
      1          6           0        2.004902    0.133702    0.049355
      2          6           0        0.543023   -0.560900   -0.006061
      3          1           0        2.804360   -0.631488   -0.362411
      4          1           0        2.264084    1.095059    1.092228
      5          1           0        2.062811    0.594256   -0.621867
      6          6           0       -0.622502    0.481803   -0.047309
      7          1           0        0.520769   -1.068969    0.781923
      8          1           0        0.456590   -1.245499   -1.013936
      9          6           0       -1.980563   -0.095900    0.039809
     10          1           0       -0.417681    1.282421   -1.049843
     11          1           0       -0.593014    1.125056    0.790556
     12          1           0       -1.860145   -0.558095   -0.726347
     13          1           0       -2.806337    0.693961   -0.231622
     14          1           0       -2.100597   -1.038930    1.126550
 ---------------------------------------------------------------------

 SCF Done:  E(RB2PLYPD3) =  -157.825271571     A.U. after   11 cycles
 E2(B2PLYPD3) =    -0.2518808878D+00 E(B2PLYPD3) =    -0.15807715245829D+03

 The electronic state is 1-A.
 Alpha  occ. eigenvalues --  -10.62430 -10.61845 -10.61617 -10.61383  -0.91902
 Alpha  occ. eigenvalues --   -0.85159  -0.74864  -0.66821  -0.54360  -0.48950
 Alpha  occ. eigenvalues --   -0.46891  -0.45951  -0.42430  -0.39651  -0.38398
 Alpha  occ. eigenvalues --   -0.37251  -0.36165
 Alpha virt. eigenvalues --    0.04660   0.04926   0.06551   0.07533   0.10377
 Alpha virt. eigenvalues --    0.11445   0.11700   0.12342   0.13380   0.15360
 Alpha virt. eigenvalues --    0.15760   0.15968   0.18815   0.19180   0.21053

 Mulliken charges:
               1
     1  C   -0.342174
     2  C   -0.043376
     3  H    0.038844
     4  H    0.031386
     5  H    0.225271
     6  C   -0.034416
     7  H    0.089743
     8  H    0.007403
     9  C   -0.219378
    10  H   -0.003421
    11  H    0.044882
    12  H    0.125899
    13  H    0.055535
    14  H    0.023800
 Sum of Mulliken charges =   0.00000

 Dipole moment (field-independent basis, Debye):
    X=             -0.0330    Y=              0.0669    Z=             -0.5429  Tot=              0.5480
 Quadrupole moment (field-independent basis, Debye-Ang):
   XX=            -31.2098   YY=            -29.1987   ZZ=            -28.5257
   XY=             -0.5319   XZ=             -0.6660   YZ=              0.0136

 Normal termination of Gaussian 09 at Wed Aug 26 22:30:57 2020.
