 Gaussian 09, Revision D.01,
 Gaussian 09:  ES64L-G09RevD.01 24-Apr-2013

 --------------------
 #p B2PLYPD3/Def2QZVP
 --------------------

 ----------
 butane_opt
 ----------
 Symbolic Z-matrix:
 Charge =  0 Multiplicity = 1

                         Standard orientation:
 ---------------------------------------------------------------------
 Center     Atomic      Atomic             Coordinates (Angstroms)
 Number     Number       Type             X           Y           Z
 ---------------------------------------------------------------------
      1          6           0        1.914042   -0.169589    0.144559
      2          6           0        0.508950    0.620349   -0.245424
      3          1           0        2.599150    0.514403    0.224614
      4          1           0        2.358313   -0.719839   -0.663938
      5          1           0        1.900164   -1.025226    1.123292
      6          6           0       -0.569748   -0.437621   -0.132304
      7          1           0        0.267819    1.360093   -1.109507
      8          1           0        0.538202    1.033336    0.474584
      9          6           0       -1.908070    0.082005    0.157994
     10          1           0       -0.438819   -1.155182    0.733556
     11          1           0       -0.637204   -1.309247   -1.104415
     12          1           0       -1.692675    1.147875    1.449908
     13          1           0       -2.721653   -0.817192   -0.180938
     14          1           0       -1.844339    0.400116   -0.496102
 ---------------------------------------------------------------------

 SCF Done:  E(RB2PLYPD3) =  -157.632192297     A.U. after   12 cycles
 E2(B2PLYPD3) =    -0.2554606595D+00 E(B2PLYPD3) =    -0.15788765295613D+03

 The electronic state is 1-A.
 Alpha  occ. eigenvalues --  -10.62759 -10.61587 -10.61517 -10.60132  -0.95139
 Alpha  occ. eigenvalues --   -0.86611  -0.75119  -0.67229  -0.55089  -0.49379
 Alpha  occ. eigenvalues --   -0.48000  -0.46080  -0.42126  -0.40867  -0.37728
 Alpha  occ. eigenvalues --   -0.35856  -0.34189
 Alpha virt. eigenvalues --    0.01074   0.05527   0.05792   0.07581   0.10506
 Alpha virt. eigenvalues --    0.10966   0.11983   0.13239   0.14145   0.14804
 Alpha virt. eigenvalues --    0.15361   0.15889   0.18025   0.19862   0.21457

 Mulliken charges:
               1
     1  C   -0.140201
     2  C   -0.273258
     3  H    0.061608
     4  H    0.035334
     5  H    0.044351
     6  C    0.002303
     7  H    0.053494
     8  H    0.234587
     9  C   -0.571352
    10  H    0.034969
    11  H   -0.001542
    12  H    0.003798
    13  H    0.061834
    14  H    0.454075
 Sum of Mulliken charges =   0.00000

 Dipole moment (field-independent basis, Debye):
    X=              0.6280    Y=              0.0957    Z=             -0.4276  Tot=              0.7658
 Quadrupole moment (field-independent basis, Debye-Ang):
   XX=            -31.0040   YY=            -28.6762   ZZ=            -28.9943
   XY=              1.3057   XZ=              1.6771   YZ=             -0.1148

 Normal termination of Gaussian 09 at Wed Aug 26 12:56:25 2020.
