 Gaussian 09, Revision D.01,
 Gaussian 09:  ES64L-G09RevD.01 24-Apr-2013

 --------------------
 #p B2PLYPD3/Def2QZVP
 --------------------

 ----------
 butane_opt
 ----------
 Symbolic Z-matrix:
 Charge =  0 Multiplicity = 1

                         Standard orientation:
 ---------------------------------------------------------------------
 Center     Atomic      Atomic             Coordinates (Angstroms)
 Number     Number       Type             X           Y           Z
 ---------------------------------------------------------------------
      1          6           0        2.066753   -0.156205    0.186859
      2          6           0        0.560550    0.637368   -0.144092
      3          1           0        2.650296    0.417708   -0.207382
      4          1           0        2.052599   -0.452107   -0.423669
      5          1           0        2.144994   -0.961648    1.068776
      6          6           0       -0.598169   -0.536994   -0.306382
      7          1           0        0.579304    1.190281   -0.967587
      8          1           0        0.034565    1.378435    0.819506
      9          6           0       -1.929920    0.017177    0.159420
     10          1           0       -0.422926   -1.108887    0.571841
     11          1           0       -0.536894   -1.174976   -1.296051
     12          1           0       -1.779482    0.613083    1.148684
     13          1           0       -2.715805   -0.539102    0.602265
     14          1           0       -2.601939    0.869140   -0.691215
 ---------------------------------------------------------------------

 SCF Done:  E(RB2PLYPD3) =  -157.671083016     A.U. after   11 cycles
 E2(B2PLYPD3) =    -0.2526772053D+00 E(B2PLYPD3) =    -0.15792376022170D+03

 The electronic state is 1-A.
 Alpha  occ. eigenvalues --  -10.63846 -10.62986 -10.62625 -10.56751  -0.92640
 Alpha  occ. eigenvalues --   -0.86886  -0.74364  -0.66743  -0.53241  -0.49961
 Alpha  occ. eigenvalues --   -0.48239  -0.47526  -0.43280  -0.40436  -0.37598
 Alpha  occ. eigenvalues --   -0.35475  -0.35338
 Alpha virt. eigenvalues --    0.05401   0.06231   0.07792   0.08415   0.09871
 Alpha virt. eigenvalues --    0.11526   0.11614   0.13929   0.14736   0.15237
 Alpha virt. eigenvalues --    0.15613   0.16356   0.18307   0.18830   0.20879

 Mulliken charges:
               1
     1  C   -0.656918
     2  C   -0.081463
     3  H    0.046302
     4  H    0.527370
     5  H    0.096031
     6  C   -0.078856
     7  H    0.077668
     8  H    0.017060
     9  C   -0.137930
    10  H    0.065152
    11  H    0.040244
    12  H    0.033097
    13  H    0.054458
    14  H   -0.002214
 Sum of Mulliken charges =   0.00000

 Dipole moment (field-independent basis, Debye):
    X=              0.4555    Y=             -0.6500    Z=             -0.2122  Tot=              0.8216
 Quadrupole moment (field-independent basis, Debye-Ang):
   XX=            -29.8934   YY=            -29.5056   ZZ=            -27.5631
   XY=             -0.2657   XZ=             -2.3686   YZ=             -0.9778

 Normal termination of Gaussian 09 at Wed Aug 26 23:30:55 2020.
