 Gaussian 09, Revision D.01,
 Gaussian 09:  ES64L-G09RevD.01 24-Apr-2013

 --------------------
 #p B2PLYPD3/Def2QZVP
 --------------------

 ----------
 butane_opt
 ----------
 Symbolic Z-matrix:
 Charge =  0 Multiplicity = 1

                         Standard orientation:
 ---------------------------------------------------------------------
 Center     Atomic      Atomic             Coordinates (Angstroms)
 Number     Number       Type             X           Y           Z
 ---------------------------------------------------------------------
      1          6           0        1.952747    0.034469   -0.211958
      2          6           0        0.620878   -0.334406    0.377384
      3          1           0        2.721815   -0.896157   -0.607075
      4          1           0        2.737515    0.860641    0.616505
      5          1           0        1.374579    0.130903   -0.937261
      6          6           0       -0.513595    0.582539   -0.013737
      7          1           0        0.768230   -0.755889    1.328487
      8          1           0        0.612006   -1.176911   -0.313952
      9          6           0       -2.119870   -0.150487   -0.079083
     10          1           0       -0.211944    0.938659   -0.928279
     11          1           0       -0.398547    1.435405    0.613938
     12          1           0       -2.167392   -1.212001   -0.856104
     13          1           0       -2.783894    0.403206   -0.270363
     14          1           0       -2.293327   -0.520538    0.918468
 ---------------------------------------------------------------------

 SCF Done:  E(RB2PLYPD3) =  -157.883556853     A.U. after   11 cycles
 E2(B2PLYPD3) =    -0.2523688699D+00 E(B2PLYPD3) =    -0.15813592572341D+03

 The electronic state is 1-A.
 Alpha  occ. eigenvalues --  -10.62563 -10.62094 -10.62043 -10.60435  -0.94433
 Alpha  occ. eigenvalues --   -0.83174  -0.75558  -0.66716  -0.55375  -0.50919
 Alpha  occ. eigenvalues --   -0.48533  -0.45829  -0.43221  -0.40960  -0.38826
 Alpha  occ. eigenvalues --   -0.38195  -0.32327
 Alpha virt. eigenvalues --    0.04927   0.05830   0.07845   0.08511   0.09683
 Alpha virt. eigenvalues --    0.10786   0.12554   0.13538   0.13922   0.14931
 Alpha virt. eigenvalues --    0.15987   0.17108   0.17871   0.19584   0.20750

 Mulliken charges:
               1
     1  C   -0.194796
     2  C   -0.062252
     3  H    0.028604
     4  H    0.025636
     5  H    0.091860
     6  C   -0.082370
     7  H    0.039989
     8  H    0.051473
     9  C   -0.203104
    10  H    0.059967
    11  H    0.045383
    12  H    0.025546
    13  H    0.118437
    14  H    0.055626
 Sum of Mulliken charges =   0.00000

 Dipole moment (field-independent basis, Debye):
    X=             -0.6668    Y=             -0.1248    Z=              0.0880  Tot=              0.6840
 Quadrupole moment (field-independent basis, Debye-Ang):
   XX=            -30.1229   YY=            -29.4952   ZZ=            -28.7436
   XY=             -1.2593   XZ=              0.4329   YZ=              0.8129

 Normal termination of Gaussian 09 at Wed Aug 26 18:47:36 2020.
