 Gaussian 09, Revision D.01,
 Gaussian 09:  ES64L-G09RevD.01 24-Apr-2013

 --------------------
 #p B2PLYPD3/Def2QZVP
 --------------------

 ----------
 butane_opt
 ----------
 Symbolic Z-matrix:
 Charge =  0 Multiplicity = 1

                         Standard orientation:
 ---------------------------------------------------------------------
 Center     Atomic      Atomic             Coordinates (Angstroms)
 Number     Number       Type             X           Y           Z
 ---------------------------------------------------------------------
      1          6           0        1.903570    0.007429   -0.135262
      2          6           0        0.596611   -0.346126    0.222902
      3          1           0        2.699132   -0.956247   -0.580775
      4          1           0        2.251171    0.930420    0.624161
      5          1           0        1.374812    0.436961   -1.003371
      6          6           0       -0.491577    0.597654    0.083134
      7          1           0        0.422556   -1.187118    1.591000
      8          1           0        0.209942   -0.983474   -0.459217
      9          6           0       -1.935804   -0.219122   -0.160724
     10          1           0        0.009379    1.013885   -0.637618
     11          1           0       -0.588770    1.570078    0.847730
     12          1           0       -1.765388   -0.883334   -0.868741
     13          1           0       -2.639199    0.494518   -0.397869
     14          1           0       -2.410437   -0.674704    0.824400
 ---------------------------------------------------------------------

 SCF Done:  E(RB2PLYPD3) =  -157.885179636     A.U. after   12 cycles
 E2(B2PLYPD3) =    -0.2549928782D+00 E(B2PLYPD3) =    -0.15814017251445D+03

 The electronic state is 1-A.
 Alpha  occ. eigenvalues --  -10.64702 -10.63682 -10.62404 -10.61249  -0.97551
 Alpha  occ. eigenvalues --   -0.83952  -0.75367  -0.65679  -0.54707  -0.51121
 Alpha  occ. eigenvalues --   -0.50377  -0.46527  -0.44324  -0.41716  -0.39012
 Alpha  occ. eigenvalues --   -0.37272  -0.30426
 Alpha virt. eigenvalues --    0.04348   0.05769   0.06486   0.07605   0.10012
 Alpha virt. eigenvalues --    0.10738   0.12314   0.12775   0.14362   0.14896
 Alpha virt. eigenvalues --    0.15767   0.16316   0.17628   0.18582   0.20976

 Mulliken charges:
               1
     1  C   -0.166960
     2  C   -0.015314
     3  H    0.070321
     4  H    0.063476
     5  H    0.031323
     6  C   -0.079138
     7  H   -0.105746
     8  H    0.084669
     9  C   -0.147550
    10  H    0.067301
    11  H    0.014105
    12  H    0.072330
    13  H    0.054992
    14  H    0.056192
 Sum of Mulliken charges =   0.00000

 Dipole moment (field-independent basis, Debye):
    X=             -0.2784    Y=              0.5032    Z=             -1.3895  Tot=              1.5038
 Quadrupole moment (field-independent basis, Debye-Ang):
   XX=            -28.7198   YY=            -30.1245   ZZ=            -30.8811
   XY=             -0.0520   XZ=             -0.7513   YZ=              2.3018

 Normal termination of Gaussian 09 at Wed Aug 26 22:57:55 2020.
