 Gaussian 09, Revision D.01,
 Gaussian 09:  ES64L-G09RevD.01 24-Apr-2013

 --------------------
 #p B2PLYPD3/Def2QZVP
 --------------------

 ----------
 butane_opt
 ----------
 Symbolic Z-matrix:
 Charge =  0 Multiplicity = 1

                         Standard orientation:
 ---------------------------------------------------------------------
 Center     Atomic      Atomic             Coordinates (Angstroms)
 Number     Number       Type             X           Y           Z
 ---------------------------------------------------------------------
      1          6           0       -1.948395   -0.229787   -0.102755
      2          6           0       -0.491589    0.602781    0.054096
      3          1           0       -2.728646    0.379189   -0.320711
      4          1           0       -1.992382   -0.570353    0.756085
      5          1           0       -2.023539   -0.945049   -0.921747
      6          6           0        0.590119   -0.386882    0.332820
      7          1           0       -0.492755    1.690295    0.788682
      8          1           0       -0.279921    1.004748   -0.793489
      9          6           0        1.801215    0.022634   -0.250820
     10          1           0        0.381249   -1.057371   -0.312080
     11          1           0        0.787553   -1.004786    1.535260
     12          1           0        1.604234    0.291231   -0.975188
     13          1           0        2.702615   -0.889258   -0.550324
     14          1           0        2.333492    1.048875    0.593458
 ---------------------------------------------------------------------

 SCF Done:  E(RB2PLYPD3) =  -157.816389131     A.U. after   11 cycles
 E2(B2PLYPD3) =    -0.2505260138D+00 E(B2PLYPD3) =    -0.15806691514506D+03

 The electronic state is 1-A.
 Alpha  occ. eigenvalues --  -10.62699 -10.61476 -10.61073 -10.58562  -0.95894
 Alpha  occ. eigenvalues --   -0.84842  -0.75238  -0.68590  -0.54773  -0.53804
 Alpha  occ. eigenvalues --   -0.48688  -0.46324  -0.45480  -0.40082  -0.38098
 Alpha  occ. eigenvalues --   -0.37145  -0.34727
 Alpha virt. eigenvalues --    0.04331   0.06639   0.07479   0.07823   0.09812
 Alpha virt. eigenvalues --    0.11104   0.12408   0.13467   0.14192   0.15560
 Alpha virt. eigenvalues --    0.15705   0.16836   0.18585   0.19530   0.20431

 Mulliken charges:
               1
     1  C   -0.161205
     2  C   -0.103254
     3  H    0.041484
     4  H    0.108024
     5  H    0.031020
     6  C   -0.065302
     7  H    0.012121
     8  H    0.077195
     9  C   -0.367321
    10  H    0.119918
    11  H    0.015998
    12  H    0.254622
    13  H    0.031419
    14  H    0.005282
 Sum of Mulliken charges =   0.00000

 Dipole moment (field-independent basis, Debye):
    X=             -0.6400    Y=             -0.3001    Z=             -0.8486  Tot=              1.1044
 Quadrupole moment (field-independent basis, Debye-Ang):
   XX=            -30.9250   YY=            -29.3669   ZZ=            -28.1983
   XY=             -0.6973   XZ=             -0.0499   YZ=              0.3018

 Normal termination of Gaussian 09 at Wed Aug 26 19:17:32 2020.
