 Gaussian 09, Revision D.01,
 Gaussian 09:  ES64L-G09RevD.01 24-Apr-2013

 --------------------
 #p B2PLYPD3/Def2QZVP
 --------------------

 ----------
 butane_opt
 ----------
 Symbolic Z-matrix:
 Charge =  0 Multiplicity = 1

                         Standard orientation:
 ---------------------------------------------------------------------
 Center     Atomic      Atomic             Coordinates (Angstroms)
 Number     Number       Type             X           Y           Z
 ---------------------------------------------------------------------
      1          6           0       -1.841621    0.018697   -0.139182
      2          6           0       -0.579243   -0.402383    0.195339
      3          1           0       -2.636868   -0.850305   -0.406271
      4          1           0       -1.695815    0.488837   -1.098729
      5          1           0       -2.270959    0.972131    0.736682
      6          6           0        0.493388    0.574881    0.132455
      7          1           0       -0.634222   -0.783998   -0.384082
      8          1           0       -0.576706   -1.147289    1.189699
      9          6           0        1.886215   -0.215741   -0.135064
     10          1           0        0.430887    1.372397    0.968279
     11          1           0        0.425615    1.139660   -0.836677
     12          1           0        2.602938   -0.714716    0.825801
     13          1           0        2.806477    0.553568   -0.384490
     14          1           0        1.796217   -0.883016   -0.931505
 ---------------------------------------------------------------------

 SCF Done:  E(RB2PLYPD3) =  -157.754128703     A.U. after   11 cycles
 E2(B2PLYPD3) =    -0.2515511504D+00 E(B2PLYPD3) =    -0.15800567985363D+03

 The electronic state is 1-A.
 Alpha  occ. eigenvalues --  -10.63685 -10.63281 -10.62952 -10.56859  -0.99223
 Alpha  occ. eigenvalues --   -0.83586  -0.71478  -0.68259  -0.56380  -0.51233
 Alpha  occ. eigenvalues --   -0.49359  -0.47112  -0.42897  -0.38990  -0.38334
 Alpha  occ. eigenvalues --   -0.36303  -0.35765
 Alpha virt. eigenvalues --    0.05062   0.05988   0.07490   0.08486   0.10469
 Alpha virt. eigenvalues --    0.10755   0.11918   0.12291   0.14643   0.15052
 Alpha virt. eigenvalues --    0.15689   0.16431   0.18646   0.19803   0.21548

 Mulliken charges:
               1
     1  C   -0.135279
     2  C   -0.606182
     3  H    0.046665
     4  H    0.044813
     5  H   -0.000233
     6  C    0.003065
     7  H    0.549777
     8  H    0.051212
     9  C   -0.163913
    10  H    0.049933
    11  H    0.036989
    12  H    0.026520
    13  H    0.017269
    14  H    0.079366
 Sum of Mulliken charges =   0.00000

 Dipole moment (field-independent basis, Debye):
    X=              0.1045    Y=             -0.2202    Z=             -0.7037  Tot=              0.7447
 Quadrupole moment (field-independent basis, Debye-Ang):
   XX=            -31.1663   YY=            -29.4211   ZZ=            -28.5321
   XY=              1.3151   XZ=              0.7800   YZ=              0.7747

 Normal termination of Gaussian 09 at Wed Aug 26 23:47:00 2020.
