 Gaussian 09, Revision D.01,
 Gaussian 09:  ES64L-G09RevD.01 24-Apr-2013

 --------------------
 #p B2PLYPD3/Def2QZVP
 --------------------

 ----------
 butane_opt
 ----------
 Symbolic Z-matrix:
 Charge =  0 Multiplicity = 1

                         Standard orientation:
 ---------------------------------------------------------------------
 Center     Atomic      Atomic             Coordinates (Angstroms)
 Number     Number       Type             X           Y           Z
 ---------------------------------------------------------------------
      1          6           0        1.937019    0.133345    0.138327
      2          6           0        0.489485   -0.496838   -0.102727
      3          1           0        2.594007   -0.778897   -0.709822
      4          1           0        2.340335    1.640609    1.387293
      5          1           0        1.898386    0.140199   -0.363180
      6          6           0       -0.597946    0.417218   -0.214507
      7          1           0        0.324231   -1.293926    0.926556
      8          1           0        0.618751   -1.109662   -0.912567
      9          6           0       -1.872545   -0.073780    0.171743
     10          1           0       -0.392782    1.032038   -1.154281
     11          1           0       -0.330585    0.961084    0.366416
     12          1           0       -1.851029   -0.371248   -0.406023
     13          1           0       -2.790354    0.902073   -0.418531
     14          1           0       -2.147034   -1.001938    1.327122
 ---------------------------------------------------------------------

 SCF Done:  E(RB2PLYPD3) =  -156.329894044     A.U. after   14 cycles
 E2(B2PLYPD3) =    -0.2687788063D+00 E(B2PLYPD3) =    -0.15659867285044D+03

 The electronic state is 1-A.
 Alpha  occ. eigenvalues --  -10.68304 -10.63781 -10.62205 -10.58235  -1.00429
 Alpha  occ. eigenvalues --   -0.95044  -0.81552  -0.69850  -0.55749  -0.50004
 Alpha  occ. eigenvalues --   -0.48687  -0.44920  -0.40271  -0.38348  -0.37034
 Alpha  occ. eigenvalues --   -0.35657  -0.32500
 Alpha virt. eigenvalues --   -0.06314   0.02600   0.02803   0.05388   0.08954
 Alpha virt. eigenvalues --    0.09922   0.10905   0.11636   0.13347   0.14903
 Alpha virt. eigenvalues --    0.15512   0.16884   0.17110   0.18281   0.20489

 Mulliken charges:
               1
     1  C   -1.148733
     2  C   -0.006683
     3  H    0.016611
     4  H    0.071449
     5  H    0.974834
     6  C   -0.137934
     7  H    0.017659
     8  H    0.047155
     9  C   -0.814940
    10  H    0.028780
    11  H    0.193672
    12  H    0.655463
    13  H    0.016702
    14  H    0.085965
 Sum of Mulliken charges =   0.00000

 Dipole moment (field-independent basis, Debye):
    X=             -0.1275    Y=              0.2349    Z=             -0.9504  Tot=              0.9872
 Quadrupole moment (field-independent basis, Debye-Ang):
   XX=            -34.7138   YY=            -28.7734   ZZ=            -27.1740
   XY=              2.3209   XZ=             -1.0259   YZ=              0.8972

 Normal termination of Gaussian 09 at Wed Aug 26 21:25:03 2020.
