 Gaussian 09, Revision D.01,
 Gaussian 09:  ES64L-G09RevD.01 24-Apr-2013

 --------------------
 #p B2PLYPD3/Def2QZVP
 --------------------

 ----------
 butane_opt
 ----------
 Symbolic Z-matrix:
 Charge =  0 Multiplicity = 1

                         Standard orientation:
 ---------------------------------------------------------------------
 Center     Atomic      Atomic             Coordinates (Angstroms)
 Number     Number       Type             X           Y           Z
 ---------------------------------------------------------------------
      1          6           0       -1.867262    0.086222   -0.196634
      2          6           0       -0.549828   -0.518361    0.268364
      3          1           0       -2.560134   -0.607068   -0.318498
      4          1           0       -1.581862    0.950507   -1.293189
      5          1           0       -2.263265    0.545135    0.434376
      6          6           0        0.569403    0.522404    0.271735
      7          1           0       -0.471831   -1.219700   -0.703630
      8          1           0       -0.686008   -0.933875    1.086890
      9          6           0        1.916711   -0.174818   -0.163505
     10          1           0        0.241268    1.597894    1.350052
     11          1           0        0.284732    1.018795   -0.628153
     12          1           0        2.329069   -0.824758    0.858007
     13          1           0        2.666617    0.698437   -0.903814
     14          1           0        1.627271   -0.718050   -0.961797
 ---------------------------------------------------------------------

 SCF Done:  E(RB2PLYPD3) =  -157.842729314     A.U. after   11 cycles
 E2(B2PLYPD3) =    -0.2545179411D+00 E(B2PLYPD3) =    -0.15809724725519D+03

 The electronic state is 1-A.
 Alpha  occ. eigenvalues --  -10.64932 -10.64679 -10.60409 -10.59345  -0.92545
 Alpha  occ. eigenvalues --   -0.84107  -0.73908  -0.66169  -0.55951  -0.50446
 Alpha  occ. eigenvalues --   -0.47920  -0.46446  -0.41602  -0.38929  -0.37445
 Alpha  occ. eigenvalues --   -0.36373  -0.35277
 Alpha virt. eigenvalues --    0.03851   0.04813   0.05831   0.07875   0.10042
 Alpha virt. eigenvalues --    0.10641   0.11258   0.12925   0.13222   0.14701
 Alpha virt. eigenvalues --    0.16026   0.16823   0.17623   0.19230   0.20014

 Mulliken charges:
               1
     1  C   -0.166095
     2  C   -0.038118
     3  H    0.047817
     4  H   -0.001238
     5  H    0.089947
     6  C   -0.088174
     7  H    0.023022
     8  H    0.064544
     9  C   -0.180531
    10  H   -0.005941
    11  H    0.073116
    12  H    0.057611
    13  H    0.025457
    14  H    0.098585
 Sum of Mulliken charges =   0.00000

 Dipole moment (field-independent basis, Debye):
    X=             -0.6744    Y=             -0.6613    Z=             -0.0553  Tot=              0.9461
 Quadrupole moment (field-independent basis, Debye-Ang):
   XX=            -30.9905   YY=            -30.3674   ZZ=            -28.4796
   XY=              0.1902   XZ=             -1.8062   YZ=             -0.6753

 Normal termination of Gaussian 09 at Wed Aug 26 16:01:57 2020.
