 Gaussian 09, Revision D.01,
 Gaussian 09:  ES64L-G09RevD.01 24-Apr-2013

 --------------------
 #p B2PLYPD3/Def2QZVP
 --------------------

 ----------
 butane_opt
 ----------
 Symbolic Z-matrix:
 Charge =  0 Multiplicity = 1

                         Standard orientation:
 ---------------------------------------------------------------------
 Center     Atomic      Atomic             Coordinates (Angstroms)
 Number     Number       Type             X           Y           Z
 ---------------------------------------------------------------------
      1          6           0        2.067421   -0.147728   -0.033156
      2          6           0        0.521337    0.512907   -0.036112
      3          1           0        2.846298    0.530343    0.018768
      4          1           0        2.145354   -0.914732   -0.955737
      5          1           0        2.152218   -0.721109    0.918951
      6          6           0       -0.600904   -0.434938    0.088303
      7          1           0        0.183027    1.060907   -0.839393
      8          1           0        0.721517    1.514658    0.812274
      9          6           0       -1.959225    0.016973   -0.034942
     10          1           0       -0.509827   -1.008558    1.048613
     11          1           0       -0.543365   -1.033380   -0.642317
     12          1           0       -2.385331    0.962643    0.801270
     13          1           0       -2.842512   -0.724298   -0.051437
     14          1           0       -1.939150    0.650245   -1.015548
 ---------------------------------------------------------------------

 SCF Done:  E(RB2PLYPD3) =  -158.009787565     A.U. after   11 cycles
 E2(B2PLYPD3) =    -0.2501985881D+00 E(B2PLYPD3) =    -0.15825998615292D+03

 The electronic state is 1-A.
 Alpha  occ. eigenvalues --  -10.63478 -10.63184 -10.62412 -10.59310  -0.93212
 Alpha  occ. eigenvalues --   -0.81910  -0.73192  -0.66388  -0.54567  -0.50460
 Alpha  occ. eigenvalues --   -0.49131  -0.45887  -0.43603  -0.41699  -0.37642
 Alpha  occ. eigenvalues --   -0.36966  -0.34581
 Alpha virt. eigenvalues --    0.05513   0.06162   0.07839   0.08669   0.10148
 Alpha virt. eigenvalues --    0.11266   0.12578   0.13541   0.14043   0.14269
 Alpha virt. eigenvalues --    0.15274   0.16436   0.18598   0.20109   0.21452

 Mulliken charges:
               1
     1  C   -0.145855
     2  C   -0.062022
     3  H    0.067037
     4  H    0.030875
     5  H    0.054680
     6  C   -0.029369
     7  H    0.045342
     8  H   -0.009046
     9  C   -0.158953
    10  H    0.018261
    11  H    0.088998
    12  H    0.012368
    13  H    0.065238
    14  H    0.022447
 Sum of Mulliken charges =   0.00000

 Dipole moment (field-independent basis, Debye):
    X=              0.1581    Y=             -0.4010    Z=             -0.3326  Tot=              0.5445
 Quadrupole moment (field-independent basis, Debye-Ang):
   XX=            -29.0478   YY=            -29.6035   ZZ=            -29.3505
   XY=              1.2193   XZ=              0.8233   YZ=              0.0010

 Normal termination of Gaussian 09 at Wed Aug 26 12:19:09 2020.
