 Gaussian 09, Revision D.01,
 Gaussian 09:  ES64L-G09RevD.01 24-Apr-2013

 --------------------
 #p B2PLYPD3/Def2QZVP
 --------------------

 ----------
 butane_opt
 ----------
 Symbolic Z-matrix:
 Charge =  0 Multiplicity = 1

                         Standard orientation:
 ---------------------------------------------------------------------
 Center     Atomic      Atomic             Coordinates (Angstroms)
 Number     Number       Type             X           Y           Z
 ---------------------------------------------------------------------
      1          6           0       -1.888653    0.096254    0.034369
      2          6           0       -0.512025   -0.561304   -0.163428
      3          1           0       -2.690796   -0.514308    0.021227
      4          1           0       -2.236410    0.754100   -0.764748
      5          1           0       -2.165720    0.745881    1.104773
      6          6           0        0.531697    0.522606    0.061975
      7          1           0       -0.234828   -1.118299   -1.154588
      8          1           0       -0.315271   -1.269743    0.730400
      9          6           0        1.913544   -0.079643    0.064435
     10          1           0        0.122261    0.987512    0.907617
     11          1           0        0.583161    1.446081   -0.914342
     12          1           0        2.014373   -1.076671    1.106078
     13          1           0        2.766752    0.839893   -0.261451
     14          1           0        1.889102   -0.661923   -0.759070
 ---------------------------------------------------------------------

 SCF Done:  E(RB2PLYPD3) =  -157.974440900     A.U. after   11 cycles
 E2(B2PLYPD3) =    -0.2530999326D+00 E(B2PLYPD3) =    -0.15822754083260D+03

 The electronic state is 1-A.
 Alpha  occ. eigenvalues --  -10.64402 -10.63163 -10.62600 -10.61380  -0.91757
 Alpha  occ. eigenvalues --   -0.82592  -0.72457  -0.65431  -0.52610  -0.49616
 Alpha  occ. eigenvalues --   -0.47887  -0.44518  -0.41964  -0.41136  -0.38754
 Alpha  occ. eigenvalues --   -0.36616  -0.35079
 Alpha virt. eigenvalues --    0.04306   0.05719   0.06163   0.07900   0.10194
 Alpha virt. eigenvalues --    0.11465   0.12020   0.13506   0.14105   0.14453
 Alpha virt. eigenvalues --    0.15493   0.15782   0.18757   0.19939   0.21089

 Mulliken charges:
               1
     1  C   -0.122474
     2  C   -0.058279
     3  H    0.046220
     4  H    0.039391
     5  H    0.012648
     6  C   -0.017634
     7  H    0.036723
     8  H    0.042616
     9  C   -0.170191
    10  H    0.066297
    11  H   -0.012260
    12  H    0.007037
    13  H    0.044536
    14  H    0.085370
 Sum of Mulliken charges =   0.00000

 Dipole moment (field-independent basis, Debye):
    X=             -0.5327    Y=             -0.1928    Z=             -0.3529  Tot=              0.6675
 Quadrupole moment (field-independent basis, Debye-Ang):
   XX=            -30.5941   YY=            -29.9379   ZZ=            -29.0668
   XY=              0.1052   XZ=             -1.2957   YZ=             -0.0813

 Normal termination of Gaussian 09 at Wed Aug 26 16:27:11 2020.
