 Gaussian 09, Revision D.01,
 Gaussian 09:  ES64L-G09RevD.01 24-Apr-2013

 --------------------
 #p B2PLYPD3/Def2QZVP
 --------------------

 ----------
 butane_opt
 ----------
 Symbolic Z-matrix:
 Charge =  0 Multiplicity = 1

                         Standard orientation:
 ---------------------------------------------------------------------
 Center     Atomic      Atomic             Coordinates (Angstroms)
 Number     Number       Type             X           Y           Z
 ---------------------------------------------------------------------
      1          6           0       -2.003695    0.071635   -0.154864
      2          6           0       -0.642144   -0.514760    0.241337
      3          1           0       -2.736531   -0.483707   -0.307477
      4          1           0       -1.653192    0.762382   -1.081032
      5          1           0       -2.427536    0.705792    0.575434
      6          6           0        0.568141    0.543612    0.108523
      7          1           0       -0.529906   -1.234192   -0.441785
      8          1           0       -0.299431   -1.142857    1.168746
      9          6           0        1.979318   -0.117113   -0.149350
     10          1           0        0.683863    1.478692    1.084437
     11          1           0        0.424928    1.143105   -0.785508
     12          1           0        2.322944   -0.505613    0.609810
     13          1           0        2.576611    0.394295   -0.071437
     14          1           0        2.228528   -1.018137   -1.025062
 ---------------------------------------------------------------------

 SCF Done:  E(RB2PLYPD3) =  -157.863550645     A.U. after   11 cycles
 E2(B2PLYPD3) =    -0.2488836898D+00 E(B2PLYPD3) =    -0.15811243433524D+03

 The electronic state is 1-A.
 Alpha  occ. eigenvalues --  -10.64166 -10.61229 -10.59448 -10.56673  -0.90889
 Alpha  occ. eigenvalues --   -0.86854  -0.76272  -0.67802  -0.52804  -0.51578
 Alpha  occ. eigenvalues --   -0.49032  -0.45605  -0.42190  -0.40831  -0.39444
 Alpha  occ. eigenvalues --   -0.37881  -0.35863
 Alpha virt. eigenvalues --    0.05792   0.06499   0.07183   0.08573   0.10572
 Alpha virt. eigenvalues --    0.12367   0.12881   0.14526   0.14738   0.15098
 Alpha virt. eigenvalues --    0.15703   0.16911   0.18994   0.19698   0.21607

 Mulliken charges:
               1
     1  C   -0.131801
     2  C   -0.057116
     3  H    0.054172
     4  H    0.041813
     5  H    0.034369
     6  C   -0.030723
     7  H    0.060080
     8  H    0.020554
     9  C   -0.319408
    10  H   -0.000442
    11  H    0.044119
    12  H    0.049550
    13  H    0.203826
    14  H    0.031007
 Sum of Mulliken charges =   0.00000

 Dipole moment (field-independent basis, Debye):
    X=              0.0849    Y=             -0.2057    Z=              0.0184  Tot=              0.2233
 Quadrupole moment (field-independent basis, Debye-Ang):
   XX=            -26.9886   YY=            -28.8159   ZZ=            -29.1535
   XY=              0.4038   XZ=              0.7567   YZ=              0.3376

 Normal termination of Gaussian 09 at Wed Aug 26 09:48:21 2020.
