 Gaussian 09, Revision D.01,
 Gaussian 09:  ES64L-G09RevD.01 24-Apr-2013

 --------------------
 #p B2PLYPD3/Def2QZVP
 --------------------

 ----------
 butane_opt
 ----------
 Symbolic Z-matrix:
 Charge =  0 Multiplicity = 1

                         Standard orientation:
 ---------------------------------------------------------------------
 Center     Atomic      Atomic             Coordinates (Angstroms)
 Number     Number       Type             X           Y           Z
 ---------------------------------------------------------------------
      1          6           0        1.909136   -0.211666   -0.133300
      2          6           0        0.515737    0.647281   -0.068796
      3          1           0        2.702460    0.459330   -0.195173
      4          1           0        2.201015   -1.263111   -0.846424
      5          1           0        2.299886   -0.496202    0.703648
      6          6           0       -0.571256   -0.350890    0.369046
      7          1           0        0.163770    0.816714   -0.852994
      8          1           0        0.387418    1.721869    0.707471
      9          6           0       -1.915367    0.029787   -0.161902
     10          1           0       -0.251875   -0.938658    1.734646
     11          1           0       -0.513670   -0.952408   -0.227555
     12          1           0       -2.219016    0.961962    0.562255
     13          1           0       -2.807820   -1.038680   -0.639024
     14          1           0       -1.591665    0.042111   -0.977135
 ---------------------------------------------------------------------

 SCF Done:  E(RB2PLYPD3) =  -157.707293080     A.U. after   11 cycles
 E2(B2PLYPD3) =    -0.2552882685D+00 E(B2PLYPD3) =    -0.15796258134855D+03

 The electronic state is 1-A.
 Alpha  occ. eigenvalues --  -10.63256 -10.63183 -10.61433 -10.61390  -0.96446
 Alpha  occ. eigenvalues --   -0.84852  -0.76278  -0.68132  -0.56646  -0.49783
 Alpha  occ. eigenvalues --   -0.47503  -0.46734  -0.41769  -0.40955  -0.38083
 Alpha  occ. eigenvalues --   -0.36733  -0.33660
 Alpha virt. eigenvalues --    0.03276   0.05374   0.06067   0.07469   0.09730
 Alpha virt. eigenvalues --    0.10892   0.11718   0.13242   0.13877   0.14814
 Alpha virt. eigenvalues --    0.15436   0.16597   0.17575   0.18455   0.19864

 Mulliken charges:
               1
     1  C   -0.127116
     2  C   -0.150212
     3  H    0.035996
     4  H    0.031575
     5  H    0.056196
     6  C   -0.243385
     7  H    0.165781
     8  H    0.022000
     9  C   -0.280521
    10  H   -0.017498
    11  H    0.242434
    12  H    0.078644
    13  H    0.012055
    14  H    0.174048
 Sum of Mulliken charges =   0.00000

 Dipole moment (field-independent basis, Debye):
    X=              0.5994    Y=              0.2499    Z=             -0.6485  Tot=              0.9178
 Quadrupole moment (field-independent basis, Debye-Ang):
   XX=            -30.4714   YY=            -29.5487   ZZ=            -29.4903
   XY=             -0.8643   XZ=              1.5697   YZ=              1.9039

 Normal termination of Gaussian 09 at Wed Aug 26 11:50:58 2020.
