 Gaussian 09, Revision D.01,
 Gaussian 09:  ES64L-G09RevD.01 24-Apr-2013

 --------------------
 #p B2PLYPD3/Def2QZVP
 --------------------

 ----------
 butane_opt
 ----------
 Symbolic Z-matrix:
 Charge =  0 Multiplicity = 1

                         Standard orientation:
 ---------------------------------------------------------------------
 Center     Atomic      Atomic             Coordinates (Angstroms)
 Number     Number       Type             X           Y           Z
 ---------------------------------------------------------------------
      1          6           0       -1.858759    0.026206    0.155055
      2          6           0       -0.577154   -0.402239   -0.078311
      3          1           0       -2.659583   -0.846810   -0.536047
      4          1           0       -1.662162    0.429338   -0.595375
      5          1           0       -2.365708    0.889530    1.265408
      6          6           0        0.499694    0.546105   -0.179700
      7          1           0       -0.510069   -1.099523   -1.063618
      8          1           0       -0.406704   -0.972479    0.754766
      9          6           0        1.985163   -0.112407    0.072679
     10          1           0        0.172317    1.056636    0.805867
     11          1           0        0.260002    1.465292   -1.161065
     12          1           0        2.085490   -1.076171    1.095531
     13          1           0        2.666031    0.555499    0.312394
     14          1           0        2.126718   -0.747298   -0.696204
 ---------------------------------------------------------------------

 SCF Done:  E(RB2PLYPD3) =  -157.777307416     A.U. after   11 cycles
 E2(B2PLYPD3) =    -0.2571276852D+00 E(B2PLYPD3) =    -0.15803443510115D+03

 The electronic state is 1-A.
 Alpha  occ. eigenvalues --  -10.64690 -10.62908 -10.61908 -10.60704  -0.97886
 Alpha  occ. eigenvalues --   -0.84596  -0.74454  -0.64695  -0.56354  -0.51862
 Alpha  occ. eigenvalues --   -0.48620  -0.44875  -0.42603  -0.39745  -0.36822
 Alpha  occ. eigenvalues --   -0.34562  -0.33485
 Alpha virt. eigenvalues --    0.03722   0.04758   0.04962   0.07175   0.09861
 Alpha virt. eigenvalues --    0.10850   0.11786   0.12689   0.13798   0.14550
 Alpha virt. eigenvalues --    0.15581   0.15624   0.18615   0.19162   0.20329

 Mulliken charges:
               1
     1  C   -0.322565
     2  C   -0.008093
     3  H    0.033888
     4  H    0.182892
     5  H    0.057089
     6  C   -0.071997
     7  H    0.008832
     8  H    0.058050
     9  C   -0.153243
    10  H    0.031665
    11  H    0.015421
    12  H   -0.000140
    13  H    0.090520
    14  H    0.077682
 Sum of Mulliken charges =   0.00000

 Dipole moment (field-independent basis, Debye):
    X=              0.5613    Y=              0.0661    Z=             -0.2781  Tot=              0.6299
 Quadrupole moment (field-independent basis, Debye-Ang):
   XX=            -31.0179   YY=            -30.2481   ZZ=            -28.6858
   XY=             -0.3263   XZ=              0.0174   YZ=              0.9788

 Normal termination of Gaussian 09 at Wed Aug 26 23:02:37 2020.
