 Gaussian 09, Revision D.01,
 Gaussian 09:  ES64L-G09RevD.01 24-Apr-2013

 --------------------
 #p B2PLYPD3/Def2QZVP
 --------------------

 ----------
 butane_opt
 ----------
 Symbolic Z-matrix:
 Charge =  0 Multiplicity = 1

                         Standard orientation:
 ---------------------------------------------------------------------
 Center     Atomic      Atomic             Coordinates (Angstroms)
 Number     Number       Type             X           Y           Z
 ---------------------------------------------------------------------
      1          6           0       -2.010160   -0.110941   -0.177338
      2          6           0       -0.476230    0.569766    0.262444
      3          1           0       -2.774357    0.591340   -0.644987
      4          1           0       -2.587303   -1.269688    0.929956
      5          1           0       -1.574627   -0.585575   -0.989289
      6          6           0        0.562175   -0.453616    0.079083
      7          1           0       -0.229513    1.556397    1.287096
      8          1           0       -0.230654    0.748092   -0.348518
      9          6           0        1.859133    0.076652   -0.147668
     10          1           0        0.419659   -0.829494   -0.576512
     11          1           0        0.810991   -1.273101    0.989487
     12          1           0        1.748152    0.967423   -1.072135
     13          1           0        2.738413   -0.839890   -0.142266
     14          1           0        2.069737    0.443333    0.468035
 ---------------------------------------------------------------------

 SCF Done:  E(RB2PLYPD3) =  -157.325333981     A.U. after   12 cycles
 E2(B2PLYPD3) =    -0.2555610282D+00 E(B2PLYPD3) =    -0.15758089500933D+03

 The electronic state is 1-A.
 Alpha  occ. eigenvalues --  -10.67058 -10.61890 -10.59695 -10.58602  -1.00517
 Alpha  occ. eigenvalues --   -0.86614  -0.76039  -0.73412  -0.55845  -0.50844
 Alpha  occ. eigenvalues --   -0.48081  -0.46090  -0.45194  -0.39912  -0.37927
 Alpha  occ. eigenvalues --   -0.36661  -0.34913
 Alpha virt. eigenvalues --    0.01681   0.04684   0.06895   0.07691   0.08969
 Alpha virt. eigenvalues --    0.10539   0.11975   0.12201   0.14387   0.14686
 Alpha virt. eigenvalues --    0.15987   0.16488   0.17557   0.19092   0.19877

 Mulliken charges:
               1
     1  C   -0.185859
     2  C   -0.693275
     3  H    0.074985
     4  H    0.015883
     5  H    0.087373
     6  C   -0.289780
     7  H    0.037093
     8  H    0.649673
     9  C   -0.428756
    10  H    0.326667
    11  H    0.010903
    12  H    0.019839
    13  H    0.050248
    14  H    0.325004
 Sum of Mulliken charges =   0.00000

 Dipole moment (field-independent basis, Debye):
    X=              0.4590    Y=              0.2184    Z=             -0.6498  Tot=              0.8249
 Quadrupole moment (field-independent basis, Debye-Ang):
   XX=            -30.6595   YY=            -29.5708   ZZ=            -28.7320
   XY=             -1.0855   XZ=              2.4545   YZ=             -0.0959

 Normal termination of Gaussian 09 at Wed Aug 26 14:37:44 2020.
