 Gaussian 09, Revision D.01,
 Gaussian 09:  ES64L-G09RevD.01 24-Apr-2013

 --------------------
 #p B2PLYPD3/Def2QZVP
 --------------------

 ----------
 butane_opt
 ----------
 Symbolic Z-matrix:
 Charge =  0 Multiplicity = 1

                         Standard orientation:
 ---------------------------------------------------------------------
 Center     Atomic      Atomic             Coordinates (Angstroms)
 Number     Number       Type             X           Y           Z
 ---------------------------------------------------------------------
      1          6           0       -2.036559    0.115442    0.069638
      2          6           0       -0.556568   -0.539198   -0.092082
      3          1           0       -2.822828   -0.642428    0.056954
      4          1           0       -2.591142    0.545206   -0.664425
      5          1           0       -2.083235    1.134779    1.169321
      6          6           0        0.604891    0.444081   -0.243503
      7          1           0       -0.356252   -1.167444   -0.869261
      8          1           0       -0.207573   -1.058094    0.868873
      9          6           0        1.969151   -0.069050    0.170586
     10          1           0        0.240651    1.085150    0.681079
     11          1           0        0.894742    1.241262   -1.257717
     12          1           0        1.889231   -0.684084    0.958292
     13          1           0        2.857193    0.770334    0.282844
     14          1           0        2.293719   -0.932331   -0.653793
 ---------------------------------------------------------------------

 SCF Done:  E(RB2PLYPD3) =  -157.951724676     A.U. after   11 cycles
 E2(B2PLYPD3) =    -0.2534729849D+00 E(B2PLYPD3) =    -0.15820519766045D+03

 The electronic state is 1-A.
 Alpha  occ. eigenvalues --  -10.64323 -10.63614 -10.63083 -10.62047  -0.90946
 Alpha  occ. eigenvalues --   -0.82258  -0.74654  -0.64637  -0.54331  -0.49847
 Alpha  occ. eigenvalues --   -0.47586  -0.44561  -0.42664  -0.39628  -0.37695
 Alpha  occ. eigenvalues --   -0.37115  -0.34218
 Alpha virt. eigenvalues --    0.04247   0.05541   0.07369   0.08270   0.10005
 Alpha virt. eigenvalues --    0.11069   0.11888   0.12561   0.14020   0.14598
 Alpha virt. eigenvalues --    0.15376   0.16359   0.18893   0.19592   0.20345

 Mulliken charges:
               1
     1  C   -0.141152
     2  C   -0.053718
     3  H    0.045605
     4  H    0.052546
     5  H    0.013300
     6  C   -0.061409
     7  H    0.063861
     8  H    0.055717
     9  C   -0.149361
    10  H    0.021572
    11  H    0.027490
    12  H    0.059273
    13  H    0.057441
    14  H    0.008836
 Sum of Mulliken charges =   0.00000

 Dipole moment (field-independent basis, Debye):
    X=             -0.2514    Y=             -0.4305    Z=             -0.1570  Tot=              0.5227
 Quadrupole moment (field-independent basis, Debye-Ang):
   XX=            -28.8636   YY=            -30.0515   ZZ=            -29.6948
   XY=              0.5505   XZ=              1.5672   YZ=              0.2331

 Normal termination of Gaussian 09 at Wed Aug 26 22:11:46 2020.
