 Gaussian 09, Revision D.01,
 Gaussian 09:  ES64L-G09RevD.01 24-Apr-2013

 --------------------
 #p B2PLYPD3/Def2QZVP
 --------------------

 ----------
 butane_opt
 ----------
 Symbolic Z-matrix:
 Charge =  0 Multiplicity = 1

                         Standard orientation:
 ---------------------------------------------------------------------
 Center     Atomic      Atomic             Coordinates (Angstroms)
 Number     Number       Type             X           Y           Z
 ---------------------------------------------------------------------
      1          6           0        1.850491    0.021594   -0.163337
      2          6           0        0.598245   -0.347170    0.292840
      3          1           0        2.778771   -0.974116   -0.700136
      4          1           0        2.224793    1.246896    0.696189
      5          1           0        1.598702    0.233749   -0.822907
      6          6           0       -0.455047    0.516304   -0.025332
      7          1           0        0.702476   -0.991090    1.560844
      8          1           0        0.236040   -0.822788   -0.262790
      9          6           0       -1.999038   -0.199146   -0.067002
     10          1           0       -0.246914    0.862451   -0.961283
     11          1           0       -0.518717    1.453976    0.596603
     12          1           0       -1.850598   -1.064879   -0.835711
     13          1           0       -2.799964    0.429883   -0.214981
     14          1           0       -2.092497   -0.323580    0.721156
 ---------------------------------------------------------------------

 SCF Done:  E(RB2PLYPD3) =  -157.529402643     A.U. after   12 cycles
 E2(B2PLYPD3) =    -0.2536567519D+00 E(B2PLYPD3) =    -0.15778305939500D+03

 The electronic state is 1-A.
 Alpha  occ. eigenvalues --  -10.62828 -10.61723 -10.59566 -10.58914  -1.00991
 Alpha  occ. eigenvalues --   -0.87259  -0.79348  -0.69070  -0.58376  -0.52870
 Alpha  occ. eigenvalues --   -0.49256  -0.47570  -0.45855  -0.41267  -0.37236
 Alpha  occ. eigenvalues --   -0.35717  -0.34185
 Alpha virt. eigenvalues --    0.02189   0.06217   0.06760   0.07756   0.09548
 Alpha virt. eigenvalues --    0.10047   0.12016   0.13582   0.14259   0.15162
 Alpha virt. eigenvalues --    0.15312   0.16411   0.18117   0.19499   0.20368

 Mulliken charges:
               1
     1  C   -0.526944
     2  C   -0.223674
     3  H    0.036640
     4  H    0.013760
     5  H    0.422672
     6  C   -0.076330
     7  H   -0.002869
     8  H    0.267288
     9  C   -0.335051
    10  H    0.059254
    11  H    0.014330
    12  H    0.060373
    13  H    0.049565
    14  H    0.240987
 Sum of Mulliken charges =   0.00000

 Dipole moment (field-independent basis, Debye):
    X=             -1.0285    Y=              0.0142    Z=             -0.8439  Tot=              1.3305
 Quadrupole moment (field-independent basis, Debye-Ang):
   XX=            -30.8892   YY=            -29.7537   ZZ=            -28.4335
   XY=             -0.9427   XZ=             -1.2652   YZ=              1.2048

 Normal termination of Gaussian 09 at Wed Aug 26 21:45:10 2020.
