 Gaussian 09, Revision D.01,
 Gaussian 09:  ES64L-G09RevD.01 24-Apr-2013

 --------------------
 #p B2PLYPD3/Def2QZVP
 --------------------

 ----------
 butane_opt
 ----------
 Symbolic Z-matrix:
 Charge =  0 Multiplicity = 1

                         Standard orientation:
 ---------------------------------------------------------------------
 Center     Atomic      Atomic             Coordinates (Angstroms)
 Number     Number       Type             X           Y           Z
 ---------------------------------------------------------------------
      1          6           0        1.943135   -0.170247   -0.096637
      2          6           0        0.504090    0.525578    0.157188
      3          1           0        2.658007    0.434145   -0.778801
      4          1           0        1.726670   -0.607734   -0.887721
      5          1           0        2.623737   -0.967686    0.957068
      6          6           0       -0.615725   -0.404733    0.082333
      7          1           0        0.292230    1.203631   -0.666569
      8          1           0        0.789631    1.297606    1.068431
      9          6           0       -1.902755    0.050209   -0.081258
     10          1           0       -0.691692   -0.993411    1.017781
     11          1           0       -0.394394   -1.181708   -0.866969
     12          1           0       -1.622609    0.774193    0.887832
     13          1           0       -2.901606   -0.834212   -0.016408
     14          1           0       -2.052444    0.870336   -1.084407
 ---------------------------------------------------------------------

 SCF Done:  E(RB2PLYPD3) =  -157.877733366     A.U. after   11 cycles
 E2(B2PLYPD3) =    -0.2565515980D+00 E(B2PLYPD3) =    -0.15813428496427D+03

 The electronic state is 1-A.
 Alpha  occ. eigenvalues --  -10.65411 -10.63399 -10.62871 -10.62249  -0.94669
 Alpha  occ. eigenvalues --   -0.84388  -0.72468  -0.63496  -0.54863  -0.51244
 Alpha  occ. eigenvalues --   -0.48511  -0.45134  -0.41199  -0.38978  -0.37558
 Alpha  occ. eigenvalues --   -0.36344  -0.33263
 Alpha virt. eigenvalues --    0.04481   0.04506   0.07113   0.07459   0.09433
 Alpha virt. eigenvalues --    0.09983   0.11165   0.12256   0.12741   0.14661
 Alpha virt. eigenvalues --    0.16063   0.16330   0.18616   0.19290   0.19956

 Mulliken charges:
               1
     1  C   -0.234207
     2  C   -0.050435
     3  H    0.039328
     4  H    0.118756
     5  H    0.045235
     6  C   -0.004496
     7  H    0.050326
     8  H    0.030474
     9  C   -0.158759
    10  H    0.053369
    11  H   -0.011269
    12  H    0.037637
    13  H    0.063990
    14  H    0.020051
 Sum of Mulliken charges =   0.00000

 Dipole moment (field-independent basis, Debye):
    X=             -0.0001    Y=             -0.1064    Z=             -0.2835  Tot=              0.3029
 Quadrupole moment (field-independent basis, Debye-Ang):
   XX=            -31.3516   YY=            -30.5905   ZZ=            -28.7662
   XY=              1.3954   XZ=             -0.2197   YZ=             -0.7987

 Normal termination of Gaussian 09 at Wed Aug 26 11:43:38 2020.
