 Gaussian 09, Revision D.01,
 Gaussian 09:  ES64L-G09RevD.01 24-Apr-2013

 --------------------
 #p B2PLYPD3/Def2QZVP
 --------------------

 ----------
 butane_opt
 ----------
 Symbolic Z-matrix:
 Charge =  0 Multiplicity = 1

                         Standard orientation:
 ---------------------------------------------------------------------
 Center     Atomic      Atomic             Coordinates (Angstroms)
 Number     Number       Type             X           Y           Z
 ---------------------------------------------------------------------
      1          6           0        2.004896   -0.196610   -0.183398
      2          6           0        0.551058    0.655135    0.170768
      3          1           0        2.685043    0.370170   -0.575084
      4          1           0        1.835116   -0.669499   -0.928297
      5          1           0        2.436713   -0.932842    1.012854
      6          6           0       -0.584508   -0.473843    0.156334
      7          1           0        0.055007    0.972595   -0.459738
      8          1           0        0.729019    1.551703    1.138294
      9          6           0       -1.934066    0.081186   -0.154923
     10          1           0       -0.870599   -1.170324    1.092365
     11          1           0       -0.512488   -1.083679   -0.499730
     12          1           0       -2.265026    0.503530    0.480698
     13          1           0       -2.575933   -0.573219   -0.086032
     14          1           0       -1.741130    0.636361   -1.108011
 ---------------------------------------------------------------------

 SCF Done:  E(RB2PLYPD3) =  -157.741175657     A.U. after   11 cycles
 E2(B2PLYPD3) =    -0.2497602875D+00 E(B2PLYPD3) =    -0.15799093594436D+03

 The electronic state is 1-A.
 Alpha  occ. eigenvalues --  -10.62382 -10.61304 -10.59426 -10.54782  -0.93901
 Alpha  occ. eigenvalues --   -0.85376  -0.78385  -0.70966  -0.55230  -0.50669
 Alpha  occ. eigenvalues --   -0.49746  -0.47936  -0.43879  -0.40753  -0.38399
 Alpha  occ. eigenvalues --   -0.36714  -0.35338
 Alpha virt. eigenvalues --    0.04640   0.06603   0.07980   0.08701   0.10390
 Alpha virt. eigenvalues --    0.11150   0.12813   0.13680   0.14327   0.15943
 Alpha virt. eigenvalues --    0.16422   0.17395   0.17845   0.19344   0.21510

 Mulliken charges:
               1
     1  C   -0.206417
     2  C   -0.239427
     3  H    0.059505
     4  H    0.108123
     5  H    0.043227
     6  C   -0.068972
     7  H    0.198251
     8  H    0.035174
     9  C   -0.225568
    10  H   -0.012820
    11  H    0.113261
    12  H    0.122555
    13  H    0.032712
    14  H    0.040396
 Sum of Mulliken charges =   0.00000

 Dipole moment (field-independent basis, Debye):
    X=             -0.3379    Y=             -0.0202    Z=             -0.5641  Tot=              0.6579
 Quadrupole moment (field-independent basis, Debye-Ang):
   XX=            -28.3522   YY=            -29.1250   ZZ=            -27.8825
   XY=              0.7659   XZ=             -1.4657   YZ=              0.2823

 Normal termination of Gaussian 09 at Wed Aug 26 23:38:10 2020.
