 Gaussian 09, Revision D.01,
 Gaussian 09:  ES64L-G09RevD.01 24-Apr-2013

 --------------------
 #p B2PLYPD3/Def2QZVP
 --------------------

 ----------
 butane_opt
 ----------
 Symbolic Z-matrix:
 Charge =  0 Multiplicity = 1

                         Standard orientation:
 ---------------------------------------------------------------------
 Center     Atomic      Atomic             Coordinates (Angstroms)
 Number     Number       Type             X           Y           Z
 ---------------------------------------------------------------------
      1          6           0        1.885892    0.110111   -0.184453
      2          6           0        0.532471   -0.496920    0.206928
      3          1           0        2.518698   -0.450987   -0.183781
      4          1           0        2.024721    0.389271    0.476690
      5          1           0        1.798392    0.845621   -1.138652
      6          6           0       -0.478190    0.474489    0.316704
      7          1           0        0.619319   -0.956200    0.987692
      8          1           0        0.460861   -1.125957   -0.797053
      9          6           0       -1.905512   -0.093583   -0.197197
     10          1           0       -0.056469    0.881980   -0.455323
     11          1           0       -0.596571    1.283074    1.227897
     12          1           0       -1.797481   -0.532685   -0.997843
     13          1           0       -2.816549    0.610363   -0.797453
     14          1           0       -2.362891   -0.909061    0.825937
 ---------------------------------------------------------------------

 SCF Done:  E(RB2PLYPD3) =  -157.665941563     A.U. after   11 cycles
 E2(B2PLYPD3) =    -0.2508863243D+00 E(B2PLYPD3) =    -0.15791682788710D+03

 The electronic state is 1-A.
 Alpha  occ. eigenvalues --  -10.63014 -10.60309 -10.59082 -10.54421  -0.96922
 Alpha  occ. eigenvalues --   -0.86917  -0.76757  -0.68256  -0.58658  -0.54098
 Alpha  occ. eigenvalues --   -0.47759  -0.46672  -0.45007  -0.40643  -0.39460
 Alpha  occ. eigenvalues --   -0.36335  -0.33633
 Alpha virt. eigenvalues --    0.05162   0.06373   0.07559   0.08772   0.10134
 Alpha virt. eigenvalues --    0.11272   0.12074   0.13698   0.14519   0.15527
 Alpha virt. eigenvalues --    0.15954   0.17379   0.18765   0.19733   0.21424

 Mulliken charges:
               1
     1  C   -0.482040
     2  C   -0.039500
     3  H    0.073287
     4  H    0.326173
     5  H    0.057981
     6  C   -0.093433
     7  H    0.056384
     8  H    0.030396
     9  C   -0.209669
    10  H    0.087551
    11  H    0.039291
    12  H    0.114197
    13  H    0.022338
    14  H    0.017044
 Sum of Mulliken charges =   0.00000

 Dipole moment (field-independent basis, Debye):
    X=              0.9950    Y=             -0.0790    Z=             -0.1450  Tot=              1.0086
 Quadrupole moment (field-independent basis, Debye-Ang):
   XX=            -30.2895   YY=            -29.9052   ZZ=            -26.7667
   XY=             -0.4490   XZ=              1.2371   YZ=             -0.2018

 Normal termination of Gaussian 09 at Wed Aug 26 23:05:55 2020.
