 Gaussian 09, Revision D.01,
 Gaussian 09:  ES64L-G09RevD.01 24-Apr-2013

 --------------------
 #p B2PLYPD3/Def2QZVP
 --------------------

 ----------
 butane_opt
 ----------
 Symbolic Z-matrix:
 Charge =  0 Multiplicity = 1

                         Standard orientation:
 ---------------------------------------------------------------------
 Center     Atomic      Atomic             Coordinates (Angstroms)
 Number     Number       Type             X           Y           Z
 ---------------------------------------------------------------------
      1          6           0        1.943872   -0.117070    0.056077
      2          6           0        0.572402    0.470522   -0.067867
      3          1           0        2.692490    0.648535    0.061391
      4          1           0        1.983682   -0.559482   -0.724937
      5          1           0        2.097785   -0.920502    1.091066
      6          6           0       -0.583143   -0.487768   -0.161395
      7          1           0        0.467198    1.272283   -0.927825
      8          1           0        0.245668    1.151643    0.924892
      9          6           0       -1.891846    0.122286    0.103756
     10          1           0       -0.505526   -1.140839    0.622666
     11          1           0       -0.479326   -1.190989   -1.068037
     12          1           0       -1.898433    0.641049    0.901855
     13          1           0       -2.651692   -0.647208    0.275258
     14          1           0       -2.199556    0.817690   -0.739752
 ---------------------------------------------------------------------

 SCF Done:  E(RB2PLYPD3) =  -158.024905345     A.U. after   11 cycles
 E2(B2PLYPD3) =    -0.2474854590D+00 E(B2PLYPD3) =    -0.15827239080433D+03

 The electronic state is 1-A.
 Alpha  occ. eigenvalues --  -10.62614 -10.59912 -10.59655 -10.58335  -0.92662
 Alpha  occ. eigenvalues --   -0.85533  -0.73758  -0.65780  -0.54059  -0.51583
 Alpha  occ. eigenvalues --   -0.49640  -0.47240  -0.44432  -0.40971  -0.38554
 Alpha  occ. eigenvalues --   -0.37731  -0.35693
 Alpha virt. eigenvalues --    0.05669   0.06769   0.07802   0.08123   0.10906
 Alpha virt. eigenvalues --    0.11783   0.12893   0.14087   0.14459   0.15347
 Alpha virt. eigenvalues --    0.15944   0.16211   0.19550   0.20072   0.21540

 Mulliken charges:
               1
     1  C   -0.196928
     2  C   -0.034669
     3  H    0.056466
     4  H    0.116881
     5  H    0.021586
     6  C   -0.017817
     7  H    0.022434
     8  H   -0.007370
     9  C   -0.138350
    10  H    0.040281
    11  H    0.008507
    12  H    0.065475
    13  H    0.035955
    14  H    0.027549
 Sum of Mulliken charges =   0.00000

 Dipole moment (field-independent basis, Debye):
    X=              0.0460    Y=             -0.1139    Z=             -0.0456  Tot=              0.1311
 Quadrupole moment (field-independent basis, Debye-Ang):
   XX=            -29.4653   YY=            -29.0921   ZZ=            -28.4019
   XY=              0.4533   XZ=             -1.0676   YZ=             -0.3668

 Normal termination of Gaussian 09 at Wed Aug 26 11:17:43 2020.
