 Gaussian 09, Revision D.01,
 Gaussian 09:  ES64L-G09RevD.01 24-Apr-2013

 --------------------
 #p B2PLYPD3/Def2QZVP
 --------------------

 ----------
 butane_opt
 ----------
 Symbolic Z-matrix:
 Charge =  0 Multiplicity = 1

                         Standard orientation:
 ---------------------------------------------------------------------
 Center     Atomic      Atomic             Coordinates (Angstroms)
 Number     Number       Type             X           Y           Z
 ---------------------------------------------------------------------
      1          6           0        1.981743   -0.064810   -0.049327
      2          6           0        0.677336    0.412357   -0.023260
      3          1           0        2.778108    0.691396   -0.153204
      4          1           0        2.010754   -0.515496   -0.645318
      5          1           0        1.941516   -0.696439    0.979357
      6          6           0       -0.576617   -0.563476    0.203070
      7          1           0        0.434376    0.950031   -1.008855
      8          1           0        0.552603    1.119848    0.746755
      9          6           0       -1.994711    0.195571   -0.129804
     10          1           0       -0.574106   -0.956749    1.053684
     11          1           0       -0.377619   -1.321162   -0.723418
     12          1           0       -2.761392    1.258285    1.028705
     13          1           0       -2.751570   -0.641401   -0.585475
     14          1           0       -1.779173    0.233830   -0.696299
 ---------------------------------------------------------------------

 SCF Done:  E(RB2PLYPD3) =  -157.309553026     A.U. after   12 cycles
 E2(B2PLYPD3) =    -0.2537995416D+00 E(B2PLYPD3) =    -0.15756335256795D+03

 The electronic state is 1-A.
 Alpha  occ. eigenvalues --  -10.63348 -10.62205 -10.60011 -10.56991  -0.94692
 Alpha  occ. eigenvalues --   -0.90544  -0.77515  -0.68498  -0.56506  -0.51443
 Alpha  occ. eigenvalues --   -0.48768  -0.47520  -0.43706  -0.40956  -0.38102
 Alpha  occ. eigenvalues --   -0.36636  -0.33600
 Alpha virt. eigenvalues --    0.00205   0.05467   0.06813   0.08490   0.09687
 Alpha virt. eigenvalues --    0.10551   0.12102   0.12617   0.14204   0.15999
 Alpha virt. eigenvalues --    0.16243   0.16508   0.18654   0.18814   0.20975

 Mulliken charges:
               1
     1  C   -0.435410
     2  C   -0.010352
     3  H    0.065270
     4  H    0.306461
     5  H    0.039780
     6  C   -0.028651
     7  H    0.002374
     8  H    0.045175
     9  C   -0.891303
    10  H    0.081933
    11  H    0.002159
    12  H    0.054382
    13  H    0.063988
    14  H    0.704195
 Sum of Mulliken charges =   0.00000

 Dipole moment (field-independent basis, Debye):
    X=              0.4334    Y=             -0.1399    Z=             -0.2681  Tot=              0.5285
 Quadrupole moment (field-independent basis, Debye-Ang):
   XX=            -30.1438   YY=            -29.7567   ZZ=            -27.2968
   XY=              0.5218   XZ=             -0.7663   YZ=              0.8894

 Normal termination of Gaussian 09 at Wed Aug 26 09:44:50 2020.
