 Gaussian 09, Revision D.01,
 Gaussian 09:  ES64L-G09RevD.01 24-Apr-2013

 --------------------
 #p B2PLYPD3/Def2QZVP
 --------------------

 ----------
 butane_opt
 ----------
 Symbolic Z-matrix:
 Charge =  0 Multiplicity = 1

                         Standard orientation:
 ---------------------------------------------------------------------
 Center     Atomic      Atomic             Coordinates (Angstroms)
 Number     Number       Type             X           Y           Z
 ---------------------------------------------------------------------
      1          6           0        2.014539    0.173818    0.027785
      2          6           0        0.574617   -0.608985    0.052976
      3          1           0        2.734838   -0.500413   -0.490994
      4          1           0        2.444126    1.445590    1.038712
      5          1           0        2.116317    0.424211   -0.451852
      6          6           0       -0.684784    0.368870   -0.254578
      7          1           0        0.549641   -1.112211    0.943539
      8          1           0        0.339460   -1.352373   -0.761004
      9          6           0       -1.984441   -0.021496    0.098896
     10          1           0       -0.453712    0.862623   -1.111931
     11          1           0       -0.505529    1.187574    0.458105
     12          1           0       -2.317127   -0.524973   -0.516231
     13          1           0       -2.778602    0.707280    0.127830
     14          1           0       -1.648993   -0.610547    1.213354
 ---------------------------------------------------------------------

 SCF Done:  E(RB2PLYPD3) =  -157.212972794     A.U. after   12 cycles
 E2(B2PLYPD3) =    -0.2531074789D+00 E(B2PLYPD3) =    -0.15746608027320D+03

 The electronic state is 1-A.
 Alpha  occ. eigenvalues --  -10.63422 -10.62483 -10.59106 -10.58684  -0.93494
 Alpha  occ. eigenvalues --   -0.90415  -0.78528  -0.69353  -0.55692  -0.52561
 Alpha  occ. eigenvalues --   -0.47468  -0.46675  -0.43601  -0.40416  -0.37809
 Alpha  occ. eigenvalues --   -0.36564  -0.34160
 Alpha virt. eigenvalues --    0.01092   0.05329   0.07388   0.08629   0.10035
 Alpha virt. eigenvalues --    0.10801   0.11911   0.13020   0.14053   0.15438
 Alpha virt. eigenvalues --    0.15693   0.16373   0.18677   0.19631   0.20545

 Mulliken charges:
               1
     1  C   -0.829890
     2  C   -0.022134
     3  H    0.054554
     4  H    0.035470
     5  H    0.663003
     6  C   -0.020121
     7  H    0.067172
     8  H    0.021217
     9  C   -0.207754
    10  H    0.027480
    11  H    0.020558
    12  H    0.108542
    13  H    0.044142
    14  H    0.037762
 Sum of Mulliken charges =   0.00000

 Dipole moment (field-independent basis, Debye):
    X=             -0.3841    Y=              0.0561    Z=             -0.9805  Tot=              1.0546
 Quadrupole moment (field-independent basis, Debye-Ang):
   XX=            -29.6827   YY=            -28.8272   ZZ=            -28.1998
   XY=             -0.0555   XZ=             -0.6596   YZ=              0.3460

 Normal termination of Gaussian 09 at Wed Aug 26 11:41:54 2020.
