 Gaussian 09, Revision D.01,
 Gaussian 09:  ES64L-G09RevD.01 24-Apr-2013

 --------------------
 #p B2PLYPD3/Def2QZVP
 --------------------

 ----------
 butane_opt
 ----------
 Symbolic Z-matrix:
 Charge =  0 Multiplicity = 1

                         Standard orientation:
 ---------------------------------------------------------------------
 Center     Atomic      Atomic             Coordinates (Angstroms)
 Number     Number       Type             X           Y           Z
 ---------------------------------------------------------------------
      1          6           0        2.026944    0.131313    0.045430
      2          6           0        0.569755   -0.540010   -0.033193
      3          1           0        2.766913   -0.608808   -0.440528
      4          1           0        2.218814    1.333504    1.201853
      5          1           0        2.066566    0.333684   -0.538491
      6          6           0       -0.634984    0.492497   -0.111189
      7          1           0        0.414343   -1.111585    0.913723
      8          1           0        0.409076   -1.241008   -0.908731
      9          6           0       -1.946050   -0.093080    0.089436
     10          1           0       -0.679389    1.183465   -1.068718
     11          1           0       -0.400108    0.946512    0.575540
     12          1           0       -2.060397   -0.526098   -0.705311
     13          1           0       -2.699053    0.702869   -0.142008
     14          1           0       -2.130760   -0.956852    1.169766
 ---------------------------------------------------------------------

 SCF Done:  E(RB2PLYPD3) =  -157.432039700     A.U. after   12 cycles
 E2(B2PLYPD3) =    -0.2533102867D+00 E(B2PLYPD3) =    -0.15768534998679D+03

 The electronic state is 1-A.
 Alpha  occ. eigenvalues --  -10.62528 -10.62153 -10.60322 -10.58541  -0.93761
 Alpha  occ. eigenvalues --   -0.89523  -0.76925  -0.68652  -0.53876  -0.49686
 Alpha  occ. eigenvalues --   -0.47592  -0.45926  -0.41883  -0.40641  -0.38440
 Alpha  occ. eigenvalues --   -0.37478  -0.35338
 Alpha virt. eigenvalues --    0.01177   0.05565   0.06672   0.07533   0.10200
 Alpha virt. eigenvalues --    0.10726   0.12255   0.12697   0.13379   0.15386
 Alpha virt. eigenvalues --    0.15847   0.16673   0.18250   0.18837   0.21157

 Mulliken charges:
               1
     1  C   -0.806671
     2  C   -0.007414
     3  H    0.062386
     4  H    0.044204
     5  H    0.635770
     6  C   -0.151220
     7  H    0.045633
     8  H    0.022769
     9  C   -0.180756
    10  H    0.013280
    11  H    0.158790
    12  H    0.094144
    13  H    0.038489
    14  H    0.030596
 Sum of Mulliken charges =   0.00000

 Dipole moment (field-independent basis, Debye):
    X=             -0.1550    Y=              0.1878    Z=             -0.8284  Tot=              0.8634
 Quadrupole moment (field-independent basis, Debye-Ang):
   XX=            -30.9925   YY=            -29.0845   ZZ=            -27.6830
   XY=             -0.1066   XZ=             -0.6121   YZ=              0.4289

 Normal termination of Gaussian 09 at Wed Aug 26 13:26:10 2020.
