 Gaussian 09, Revision D.01,
 Gaussian 09:  ES64L-G09RevD.01 24-Apr-2013

 --------------------
 #p B2PLYPD3/Def2QZVP
 --------------------

 ----------
 butane_opt
 ----------
 Symbolic Z-matrix:
 Charge =  0 Multiplicity = 1

                         Standard orientation:
 ---------------------------------------------------------------------
 Center     Atomic      Atomic             Coordinates (Angstroms)
 Number     Number       Type             X           Y           Z
 ---------------------------------------------------------------------
      1          6           0       -2.077507   -0.111674    0.028556
      2          6           0       -0.509120    0.563799   -0.075743
      3          1           0       -2.648757    0.382638   -0.420261
      4          1           0       -2.459181   -0.868892    1.107521
      5          1           0       -2.090191   -0.814561   -0.766057
      6          6           0        0.600434   -0.488940    0.098695
      7          1           0       -0.472291    1.372844    0.788108
      8          1           0       -0.197669    1.317211   -1.146480
      9          6           0        1.950313    0.047866    0.049212
     10          1           0        0.801261   -1.313197   -0.778032
     11          1           0        0.511633   -0.789134    0.992353
     12          1           0        1.712461    0.472144   -0.737323
     13          1           0        2.629144   -0.810225   -0.689178
     14          1           0        2.428864    0.984865    1.045030
 ---------------------------------------------------------------------

 SCF Done:  E(RB2PLYPD3) =  -157.803143560     A.U. after   11 cycles
 E2(B2PLYPD3) =    -0.2559407510D+00 E(B2PLYPD3) =    -0.15805908431082D+03

 The electronic state is 1-A.
 Alpha  occ. eigenvalues --  -10.66101 -10.62426 -10.61607 -10.60805  -0.93238
 Alpha  occ. eigenvalues --   -0.84118  -0.74009  -0.66033  -0.53579  -0.49110
 Alpha  occ. eigenvalues --   -0.48083  -0.43994  -0.42124  -0.39105  -0.37737
 Alpha  occ. eigenvalues --   -0.36814  -0.34748
 Alpha virt. eigenvalues --    0.03567   0.05319   0.06486   0.06955   0.09769
 Alpha virt. eigenvalues --    0.11186   0.11304   0.12551   0.13445   0.14702
 Alpha virt. eigenvalues --    0.15652   0.17307   0.17922   0.18409   0.20134

 Mulliken charges:
               1
     1  C   -0.210202
     2  C   -0.061485
     3  H    0.116895
     4  H    0.055869
     5  H    0.038362
     6  C   -0.052438
     7  H    0.037628
     8  H   -0.001315
     9  C   -0.238538
    10  H    0.040962
    11  H    0.083087
    12  H    0.138371
    13  H    0.018330
    14  H    0.034473
 Sum of Mulliken charges =   0.00000

 Dipole moment (field-independent basis, Debye):
    X=             -0.5388    Y=             -0.1156    Z=             -0.3458  Tot=              0.6506
 Quadrupole moment (field-independent basis, Debye-Ang):
   XX=            -31.6676   YY=            -29.8262   ZZ=            -28.1411
   XY=              0.3456   XZ=             -0.2678   YZ=              0.6542

 Normal termination of Gaussian 09 at Wed Aug 26 09:35:03 2020.
