 Gaussian 09, Revision D.01,
 Gaussian 09:  ES64L-G09RevD.01 24-Apr-2013

 --------------------
 #p B2PLYPD3/Def2QZVP
 --------------------

 ----------
 butane_opt
 ----------
 Symbolic Z-matrix:
 Charge =  0 Multiplicity = 1

                         Standard orientation:
 ---------------------------------------------------------------------
 Center     Atomic      Atomic             Coordinates (Angstroms)
 Number     Number       Type             X           Y           Z
 ---------------------------------------------------------------------
      1          6           0       -2.040195    0.121074    0.127763
      2          6           0       -0.520131   -0.525073   -0.047461
      3          1           0       -2.847135   -0.643421   -0.794937
      4          1           0       -1.993533    0.186165   -0.399104
      5          1           0       -2.735081    1.497753    1.185434
      6          6           0        0.657592    0.469978   -0.211052
      7          1           0       -0.518948   -1.227420   -0.846765
      8          1           0       -0.285838   -1.223440    0.829066
      9          6           0        1.971601   -0.048389    0.128362
     10          1           0        0.351117    0.861193    0.462222
     11          1           0        0.585725    1.041009   -1.055677
     12          1           0        2.076580   -0.967152    1.299494
     13          1           0        2.789749    0.809727   -0.146156
     14          1           0        2.164165   -0.439947   -0.519248
 ---------------------------------------------------------------------

 SCF Done:  E(RB2PLYPD3) =  -156.834554549     A.U. after   13 cycles
 E2(B2PLYPD3) =    -0.2615734840D+00 E(B2PLYPD3) =    -0.15709612803292D+03

 The electronic state is 1-A.
 Alpha  occ. eigenvalues --  -10.67083 -10.63518 -10.61188 -10.57288  -0.96130
 Alpha  occ. eigenvalues --   -0.91340  -0.79729  -0.70136  -0.56511  -0.49576
 Alpha  occ. eigenvalues --   -0.48147  -0.45081  -0.40042  -0.39619  -0.38592
 Alpha  occ. eigenvalues --   -0.37199  -0.32761
 Alpha virt. eigenvalues --   -0.03674   0.03260   0.04226   0.07226   0.09337
 Alpha virt. eigenvalues --    0.10273   0.11820   0.12416   0.13640   0.15504
 Alpha virt. eigenvalues --    0.15827   0.16413   0.17347   0.18497   0.19968

 Mulliken charges:
               1
     1  C   -1.081272
     2  C   -0.006488
     3  H    0.007314
     4  H    0.917303
     5  H    0.063990
     6  C   -0.214359
     7  H    0.033759
     8  H    0.030507
     9  C   -0.385465
    10  H    0.236526
    11  H    0.035611
    12  H    0.041511
    13  H    0.035625
    14  H    0.285438
 Sum of Mulliken charges =   0.00000

 Dipole moment (field-independent basis, Debye):
    X=              0.6680    Y=              0.4217    Z=             -1.1344  Tot=              1.3824
 Quadrupole moment (field-independent basis, Debye-Ang):
   XX=            -32.3988   YY=            -28.8249   ZZ=            -27.8012
   XY=             -1.9825   XZ=             -0.1147   YZ=              0.4771

 Normal termination of Gaussian 09 at Wed Aug 26 23:23:30 2020.
