 Gaussian 09, Revision D.01,
 Gaussian 09:  ES64L-G09RevD.01 24-Apr-2013

 --------------------
 #p B2PLYPD3/Def2QZVP
 --------------------

 ----------
 butane_opt
 ----------
 Symbolic Z-matrix:
 Charge =  0 Multiplicity = 1

                         Standard orientation:
 ---------------------------------------------------------------------
 Center     Atomic      Atomic             Coordinates (Angstroms)
 Number     Number       Type             X           Y           Z
 ---------------------------------------------------------------------
      1          6           0        1.947224   -0.199076   -0.059673
      2          6           0        0.507485    0.600013   -0.035461
      3          1           0        2.602474    0.538445   -0.206358
      4          1           0        2.211995   -1.028102   -0.852605
      5          1           0        1.920333   -0.569664    0.885542
      6          6           0       -0.559841   -0.405018    0.281320
      7          1           0        0.327525    0.896958   -0.939343
      8          1           0        0.290318    1.513525    0.858909
      9          6           0       -1.796417    0.030331   -0.164455
     10          1           0       -0.654118   -0.940314    1.392908
     11          1           0       -0.657941   -0.819803   -0.228751
     12          1           0       -2.658911    0.976427    0.662782
     13          1           0       -2.614019   -0.920603   -0.770328
     14          1           0       -1.358365    0.195629   -0.933149
 ---------------------------------------------------------------------

 SCF Done:  E(RB2PLYPD3) =  -157.541740083     A.U. after   12 cycles
 E2(B2PLYPD3) =    -0.2539197070D+00 E(B2PLYPD3) =    -0.15779565979009D+03

 The electronic state is 1-A.
 Alpha  occ. eigenvalues --  -10.63953 -10.62734 -10.60177 -10.57939  -1.03098
 Alpha  occ. eigenvalues --   -0.85503  -0.73251  -0.68842  -0.58181  -0.52269
 Alpha  occ. eigenvalues --   -0.48522  -0.47156  -0.43934  -0.40917  -0.38762
 Alpha  occ. eigenvalues --   -0.36748  -0.32961
 Alpha virt. eigenvalues --    0.03735   0.06273   0.07232   0.07889   0.08719
 Alpha virt. eigenvalues --    0.10962   0.12211   0.13006   0.14375   0.14982
 Alpha virt. eigenvalues --    0.15643   0.17209   0.18104   0.19132   0.20482

 Mulliken charges:
               1
     1  C   -0.165204
     2  C   -0.054274
     3  H    0.063539
     4  H    0.033547
     5  H    0.076214
     6  C   -0.730669
     7  H    0.083795
     8  H    0.040072
     9  C   -0.208687
    10  H    0.051316
    11  H    0.650080
    12  H    0.015868
    13  H    0.004494
    14  H    0.139909
 Sum of Mulliken charges =   0.00000

 Dipole moment (field-independent basis, Debye):
    X=              0.7391    Y=             -0.1903    Z=             -0.5172  Tot=              0.9220
 Quadrupole moment (field-independent basis, Debye-Ang):
   XX=            -31.7308   YY=            -29.8264   ZZ=            -27.8587
   XY=              0.3932   XZ=             -0.5209   YZ=              0.7336

 Normal termination of Gaussian 09 at Wed Aug 26 14:30:20 2020.
