 Gaussian 09, Revision D.01,
 Gaussian 09:  ES64L-G09RevD.01 24-Apr-2013

 --------------------
 #p B2PLYPD3/Def2QZVP
 --------------------

 ----------
 butane_opt
 ----------
 Symbolic Z-matrix:
 Charge =  0 Multiplicity = 1

                         Standard orientation:
 ---------------------------------------------------------------------
 Center     Atomic      Atomic             Coordinates (Angstroms)
 Number     Number       Type             X           Y           Z
 ---------------------------------------------------------------------
      1          6           0       -1.928893    0.106339   -0.185429
      2          6           0       -0.629090   -0.407247    0.266103
      3          1           0       -2.918620   -0.823271   -0.555307
      4          1           0       -1.281452    0.525941   -0.985582
      5          1           0       -2.467858    0.687840    0.660548
      6          6           0        0.575518    0.595816    0.128287
      7          1           0       -0.240345   -1.079411   -0.567931
      8          1           0       -0.610341   -1.067656    1.250381
      9          6           0        1.916950   -0.228368   -0.071462
     10          1           0        0.509845    1.320093    0.841636
     11          1           0        0.326110    1.051910   -0.650467
     12          1           0        2.486051   -0.590437    0.701752
     13          1           0        2.793075    0.536196   -0.622448
     14          1           0        1.796623   -0.960443   -0.897575
 ---------------------------------------------------------------------

 SCF Done:  E(RB2PLYPD3) =  -157.973425697     A.U. after   11 cycles
 E2(B2PLYPD3) =    -0.2521249217D+00 E(B2PLYPD3) =    -0.15822555061910D+03

 The electronic state is 1-A.
 Alpha  occ. eigenvalues --  -10.63729 -10.62556 -10.62039 -10.59942  -0.93179
 Alpha  occ. eigenvalues --   -0.83153  -0.73607  -0.65629  -0.56650  -0.51296
 Alpha  occ. eigenvalues --   -0.46782  -0.45643  -0.43835  -0.42157  -0.37599
 Alpha  occ. eigenvalues --   -0.36899  -0.34180
 Alpha virt. eigenvalues --    0.04793   0.06089   0.08362   0.08691   0.09734
 Alpha virt. eigenvalues --    0.11126   0.11509   0.13138   0.15079   0.15289
 Alpha virt. eigenvalues --    0.15872   0.17144   0.18057   0.19078   0.21106

 Mulliken charges:
               1
     1  C   -0.169688
     2  C   -0.045275
     3  H    0.021701
     4  H    0.056882
     5  H    0.052190
     6  C   -0.066329
     7  H    0.037709
     8  H    0.016459
     9  C   -0.145933
    10  H    0.037176
    11  H    0.083982
    12  H    0.068922
    13  H    0.000629
    14  H    0.051575
 Sum of Mulliken charges =   0.00000

 Dipole moment (field-independent basis, Debye):
    X=              0.3985    Y=              0.1192    Z=              0.1274  Tot=              0.4350
 Quadrupole moment (field-independent basis, Debye-Ang):
   XX=            -30.5872   YY=            -29.8421   ZZ=            -28.9760
   XY=             -0.3087   XZ=             -0.8601   YZ=              0.5206

 Normal termination of Gaussian 09 at Wed Aug 26 12:36:03 2020.
