 Gaussian 09, Revision D.01,
 Gaussian 09:  ES64L-G09RevD.01 24-Apr-2013

 --------------------
 #p B2PLYPD3/Def2QZVP
 --------------------

 ----------
 butane_opt
 ----------
 Symbolic Z-matrix:
 Charge =  0 Multiplicity = 1

                         Standard orientation:
 ---------------------------------------------------------------------
 Center     Atomic      Atomic             Coordinates (Angstroms)
 Number     Number       Type             X           Y           Z
 ---------------------------------------------------------------------
      1          6           0        2.029625   -0.160405   -0.088005
      2          6           0        0.533560    0.548002    0.010541
      3          1           0        2.626731    0.291141   -0.272782
      4          1           0        2.152253   -0.879530   -0.862528
      5          1           0        2.461839   -0.614899    0.774842
      6          6           0       -0.586193   -0.353615    0.347451
      7          1           0        0.374463    1.026283   -0.941755
      8          1           0        0.452449    1.330120    0.637766
      9          6           0       -1.965997    0.040451   -0.151695
     10          1           0       -0.751279   -0.696232    1.265511
     11          1           0       -0.393634   -1.244665   -0.371437
     12          1           0       -2.346122    1.091837    0.563070
     13          1           0       -2.939179   -1.099143   -0.620094
     14          1           0       -1.703491    0.348489   -0.882343
 ---------------------------------------------------------------------

 SCF Done:  E(RB2PLYPD3) =  -157.783200856     A.U. after   11 cycles
 E2(B2PLYPD3) =    -0.2497245238D+00 E(B2PLYPD3) =    -0.15803292538014D+03

 The electronic state is 1-A.
 Alpha  occ. eigenvalues --  -10.62966 -10.61168 -10.59964 -10.56999  -0.93024
 Alpha  occ. eigenvalues --   -0.86422  -0.77668  -0.68702  -0.55460  -0.50490
 Alpha  occ. eigenvalues --   -0.48067  -0.46364  -0.43694  -0.42646  -0.40080
 Alpha  occ. eigenvalues --   -0.37552  -0.34486
 Alpha virt. eigenvalues --    0.02676   0.06194   0.07904   0.08869   0.09929
 Alpha virt. eigenvalues --    0.11094   0.12493   0.13899   0.14452   0.15665
 Alpha virt. eigenvalues --    0.15973   0.16791   0.18785   0.19770   0.21007

 Mulliken charges:
               1
     1  C   -0.333605
     2  C   -0.024508
     3  H    0.242584
     4  H    0.030161
     5  H    0.032925
     6  C   -0.029110
     7  H    0.028508
     8  H    0.041959
     9  C   -0.322008
    10  H    0.060072
    11  H    0.018575
    12  H    0.019932
    13  H    0.021629
    14  H    0.212887
 Sum of Mulliken charges =   0.00000

 Dipole moment (field-independent basis, Debye):
    X=              0.9567    Y=              0.3640    Z=             -0.2400  Tot=              1.0514
 Quadrupole moment (field-independent basis, Debye-Ang):
   XX=            -30.3515   YY=            -28.8671   ZZ=            -28.0965
   XY=              0.0707   XZ=             -0.1271   YZ=              0.5242

 Normal termination of Gaussian 09 at Wed Aug 26 12:03:33 2020.
