 Gaussian 09, Revision D.01,
 Gaussian 09:  ES64L-G09RevD.01 24-Apr-2013

 --------------------
 #p B2PLYPD3/Def2QZVP
 --------------------

 ----------
 butane_opt
 ----------
 Symbolic Z-matrix:
 Charge =  0 Multiplicity = 1

                         Standard orientation:
 ---------------------------------------------------------------------
 Center     Atomic      Atomic             Coordinates (Angstroms)
 Number     Number       Type             X           Y           Z
 ---------------------------------------------------------------------
      1          6           0        1.974463    0.083607   -0.035251
      2          6           0        0.588769   -0.468693    0.031678
      3          1           0        2.828891   -0.777708   -0.062093
      4          1           0        1.886595    0.753112    0.870274
      5          1           0        2.007002    0.788039   -0.984357
      6          6           0       -0.593220    0.567509    0.072760
      7          1           0        0.585423   -1.182857    0.848532
      8          1           0        0.466159   -0.990052   -0.739141
      9          6           0       -1.975348   -0.161418   -0.080058
     10          1           0       -0.269681    1.018795   -0.631112
     11          1           0       -0.515470    1.325500    1.051968
     12          1           0       -1.862000   -0.659279   -0.798405
     13          1           0       -2.659660    0.551870   -0.442794
     14          1           0       -2.435245   -0.953451    0.952356
 ---------------------------------------------------------------------

 SCF Done:  E(RB2PLYPD3) =  -157.946799958     A.U. after   11 cycles
 E2(B2PLYPD3) =    -0.2484857859D+00 E(B2PLYPD3) =    -0.15819528574388D+03

 The electronic state is 1-A.
 Alpha  occ. eigenvalues --  -10.62187 -10.60649 -10.60549 -10.58165  -0.92547
 Alpha  occ. eigenvalues --   -0.84392  -0.73964  -0.67924  -0.54807  -0.50380
 Alpha  occ. eigenvalues --   -0.48834  -0.46729  -0.42289  -0.40097  -0.39218
 Alpha  occ. eigenvalues --   -0.38022  -0.36519
 Alpha virt. eigenvalues --    0.05199   0.06200   0.08302   0.08963   0.10813
 Alpha virt. eigenvalues --    0.11196   0.12769   0.13030   0.14562   0.15392
 Alpha virt. eigenvalues --    0.15718   0.16170   0.18895   0.19959   0.21240

 Mulliken charges:
               1
     1  C   -0.173597
     2  C   -0.042801
     3  H    0.054979
     4  H    0.055906
     5  H    0.022560
     6  C   -0.126811
     7  H    0.017937
     8  H    0.060942
     9  C   -0.225173
    10  H    0.134455
    11  H    0.007656
    12  H    0.128124
    13  H    0.048231
    14  H    0.037592
 Sum of Mulliken charges =   0.00000

 Dipole moment (field-independent basis, Debye):
    X=             -0.1401    Y=             -0.2156    Z=             -0.5883  Tot=              0.6420
 Quadrupole moment (field-independent basis, Debye-Ang):
   XX=            -30.4859   YY=            -28.9136   ZZ=            -28.2151
   XY=             -0.8303   XZ=              0.4329   YZ=             -0.2549

 Normal termination of Gaussian 09 at Wed Aug 26 13:06:04 2020.
