 Gaussian 09, Revision D.01,
 Gaussian 09:  ES64L-G09RevD.01 24-Apr-2013

 --------------------
 #p B2PLYPD3/Def2QZVP
 --------------------

 ----------
 butane_opt
 ----------
 Symbolic Z-matrix:
 Charge =  0 Multiplicity = 1

                         Standard orientation:
 ---------------------------------------------------------------------
 Center     Atomic      Atomic             Coordinates (Angstroms)
 Number     Number       Type             X           Y           Z
 ---------------------------------------------------------------------
      1          6           0       -1.822433    0.056266    0.111047
      2          6           0       -0.534957   -0.438317   -0.137419
      3          1           0       -2.622184   -0.768527   -0.158285
      4          1           0       -2.109684    0.664317   -0.763221
      5          1           0       -2.199780    0.789489    1.245620
      6          6           0        0.506936    0.564386    0.033872
      7          1           0       -0.680434   -1.238381   -1.369356
      8          1           0       -0.646399   -0.954761    0.498376
      9          6           0        1.947273   -0.158195    0.078495
     10          1           0        0.185830    0.930855    0.862640
     11          1           0        0.592556    1.487068   -0.949939
     12          1           0        2.294198   -1.309848    1.154935
     13          1           0        2.651482    0.653379   -0.520734
     14          1           0        1.953496   -0.398429   -0.516007
 ---------------------------------------------------------------------

 SCF Done:  E(RB2PLYPD3) =  -157.393018215     A.U. after   12 cycles
 E2(B2PLYPD3) =    -0.2573141082D+00 E(B2PLYPD3) =    -0.15765033232306D+03

 The electronic state is 1-A.
 Alpha  occ. eigenvalues --  -10.63344 -10.63315 -10.62247 -10.60509  -0.97161
 Alpha  occ. eigenvalues --   -0.89311  -0.76850  -0.68138  -0.54794  -0.50615
 Alpha  occ. eigenvalues --   -0.48201  -0.44658  -0.42611  -0.38683  -0.37215
 Alpha  occ. eigenvalues --   -0.36764  -0.34815
 Alpha virt. eigenvalues --    0.01974   0.03668   0.05231   0.06211   0.10240
 Alpha virt. eigenvalues --    0.10890   0.11549   0.12286   0.12866   0.15213
 Alpha virt. eigenvalues --    0.15585   0.16243   0.17137   0.18934   0.21076

 Mulliken charges:
               1
     1  C   -0.173716
     2  C   -0.236139
     3  H    0.042682
     4  H    0.038123
     5  H    0.026943
     6  C    0.001561
     7  H   -0.013894
     8  H    0.270250
     9  C   -0.790476
    10  H    0.095762
    11  H    0.008165
    12  H    0.049999
    13  H    0.039762
    14  H    0.640978
 Sum of Mulliken charges =   0.00000

 Dipole moment (field-independent basis, Debye):
    X=             -0.4294    Y=             -0.1536    Z=             -0.2170  Tot=              0.5050
 Quadrupole moment (field-independent basis, Debye-Ang):
   XX=            -31.8721   YY=            -29.6800   ZZ=            -28.3970
   XY=             -0.0720   XZ=             -1.2546   YZ=             -0.8261

 Normal termination of Gaussian 09 at Wed Aug 26 10:15:15 2020.
