 Gaussian 09, Revision D.01,
 Gaussian 09:  ES64L-G09RevD.01 24-Apr-2013

 --------------------
 #p B2PLYPD3/Def2QZVP
 --------------------

 ----------
 butane_opt
 ----------
 Symbolic Z-matrix:
 Charge =  0 Multiplicity = 1

                         Standard orientation:
 ---------------------------------------------------------------------
 Center     Atomic      Atomic             Coordinates (Angstroms)
 Number     Number       Type             X           Y           Z
 ---------------------------------------------------------------------
      1          6           0       -1.918583   -0.078412   -0.257496
      2          6           0       -0.561564    0.361159    0.433665
      3          1           0       -2.742468    0.963564   -0.486974
      4          1           0       -2.340997   -0.978504    0.489874
      5          1           0       -1.486028   -0.201285   -1.186563
      6          6           0        0.521040   -0.548116    0.018938
      7          1           0       -0.674193    0.668545    1.468260
      8          1           0       -0.295920    1.094058   -0.106059
      9          6           0        1.934902    0.139417   -0.110773
     10          1           0        0.378359   -0.690092   -0.865268
     11          1           0        0.583881   -1.421293    0.708200
     12          1           0        2.033309    1.329876   -0.946057
     13          1           0        2.692269   -0.515404   -0.385564
     14          1           0        1.997013    0.506250    0.804152
 ---------------------------------------------------------------------

 SCF Done:  E(RB2PLYPD3) =  -157.938628325     A.U. after   11 cycles
 E2(B2PLYPD3) =    -0.2503625869D+00 E(B2PLYPD3) =    -0.15818899091185D+03

 The electronic state is 1-A.
 Alpha  occ. eigenvalues --  -10.63658 -10.61840 -10.59101 -10.58500  -0.93962
 Alpha  occ. eigenvalues --   -0.82717  -0.72350  -0.68185  -0.57236  -0.52244
 Alpha  occ. eigenvalues --   -0.47839  -0.46689  -0.42248  -0.40761  -0.38475
 Alpha  occ. eigenvalues --   -0.36674  -0.35354
 Alpha virt. eigenvalues --    0.04973   0.05549   0.07770   0.08608   0.10380
 Alpha virt. eigenvalues --    0.11200   0.12057   0.13181   0.14006   0.14291
 Alpha virt. eigenvalues --    0.16038   0.16892   0.18432   0.19573   0.20914

 Mulliken charges:
               1
     1  C   -0.183577
     2  C   -0.094930
     3  H    0.018907
     4  H    0.057314
     5  H    0.071465
     6  C   -0.125587
     7  H    0.039172
     8  H    0.098729
     9  C   -0.178639
    10  H    0.121751
    11  H    0.030089
    12  H   -0.008980
    13  H    0.069118
    14  H    0.085166
 Sum of Mulliken charges =   0.00000

 Dipole moment (field-independent basis, Debye):
    X=              0.3665    Y=             -0.2666    Z=              0.2295  Tot=              0.5080
 Quadrupole moment (field-independent basis, Debye-Ang):
   XX=            -31.5310   YY=            -29.4276   ZZ=            -28.2073
   XY=             -1.1092   XZ=             -0.3188   YZ=             -0.7351

 Normal termination of Gaussian 09 at Wed Aug 26 15:58:37 2020.
