 Gaussian 09, Revision D.01,
 Gaussian 09:  ES64L-G09RevD.01 24-Apr-2013

 --------------------
 #p B2PLYPD3/Def2QZVP
 --------------------

 ----------
 butane_opt
 ----------
 Symbolic Z-matrix:
 Charge =  0 Multiplicity = 1

                         Standard orientation:
 ---------------------------------------------------------------------
 Center     Atomic      Atomic             Coordinates (Angstroms)
 Number     Number       Type             X           Y           Z
 ---------------------------------------------------------------------
      1          6           0        2.048032    0.145436    0.005443
      2          6           0        0.558095   -0.525038    0.021743
      3          1           0        2.866866   -0.530071   -0.317953
      4          1           0        2.389358    0.665163    0.842009
      5          1           0        1.889826    0.759884   -0.921247
      6          6           0       -0.659087    0.469758    0.032101
      7          1           0        0.514083   -1.155985    0.895586
      8          1           0        0.624228   -1.170907   -0.747137
      9          6           0       -1.995678   -0.121055   -0.087096
     10          1           0       -0.713632    1.147097   -0.852668
     11          1           0       -0.446727    1.445654    1.132768
     12          1           0       -1.841605   -0.520680   -0.772853
     13          1           0       -2.791656    0.499121   -0.105685
     14          1           0       -2.198917   -0.953878    1.014033
 ---------------------------------------------------------------------

 SCF Done:  E(RB2PLYPD3) =  -157.916754861     A.U. after   11 cycles
 E2(B2PLYPD3) =    -0.2496512445D+00 E(B2PLYPD3) =    -0.15816640610545D+03

 The electronic state is 1-A.
 Alpha  occ. eigenvalues --  -10.65053 -10.61360 -10.60577 -10.59370  -0.92797
 Alpha  occ. eigenvalues --   -0.85013  -0.73676  -0.66260  -0.55603  -0.53368
 Alpha  occ. eigenvalues --   -0.48666  -0.47822  -0.43360  -0.40966  -0.38318
 Alpha  occ. eigenvalues --   -0.36194  -0.34528
 Alpha virt. eigenvalues --    0.04843   0.06583   0.07385   0.08169   0.10189
 Alpha virt. eigenvalues --    0.11487   0.12343   0.12944   0.14175   0.15320
 Alpha virt. eigenvalues --    0.15647   0.16413   0.18984   0.19160   0.20967

 Mulliken charges:
               1
     1  C   -0.158436
     2  C   -0.036601
     3  H    0.036586
     4  H    0.065744
     5  H    0.041173
     6  C   -0.036605
     7  H    0.035285
     8  H    0.043183
     9  C   -0.319254
    10  H    0.036879
    11  H   -0.026410
    12  H    0.248566
    13  H    0.071554
    14  H   -0.001664
 Sum of Mulliken charges =   0.00000

 Dipole moment (field-independent basis, Debye):
    X=             -0.0039    Y=             -0.2169    Z=             -0.7973  Tot=              0.8263
 Quadrupole moment (field-independent basis, Debye-Ang):
   XX=            -28.7597   YY=            -30.1026   ZZ=            -28.5622
   XY=             -1.4751   XZ=              1.2933   YZ=             -0.0402

 Normal termination of Gaussian 09 at Wed Aug 26 16:20:35 2020.
