 Gaussian 09, Revision D.01,
 Gaussian 09:  ES64L-G09RevD.01 24-Apr-2013

 --------------------
 #p B2PLYPD3/Def2QZVP
 --------------------

 ----------
 butane_opt
 ----------
 Symbolic Z-matrix:
 Charge =  0 Multiplicity = 1

                         Standard orientation:
 ---------------------------------------------------------------------
 Center     Atomic      Atomic             Coordinates (Angstroms)
 Number     Number       Type             X           Y           Z
 ---------------------------------------------------------------------
      1          6           0       -1.956845   -0.079226    0.131306
      2          6           0       -0.602657    0.503961   -0.114953
      3          1           0       -2.779646    0.799774   -0.348904
      4          1           0       -2.064374   -0.937039    1.153246
      5          1           0       -1.938490   -0.565266   -0.525123
      6          6           0        0.474890   -0.601352   -0.110093
      7          1           0       -0.261310    1.122843    0.768162
      8          1           0       -0.641533    1.307435   -0.949301
      9          6           0        2.017528    0.116705    0.047011
     10          1           0        0.495152   -1.214846   -0.849122
     11          1           0        0.585101   -1.429048    0.878714
     12          1           0        1.939310    0.431134   -0.666440
     13          1           0        2.546030   -0.443437   -0.507026
     14          1           0        2.522269    1.287922    1.326164
 ---------------------------------------------------------------------

 SCF Done:  E(RB2PLYPD3) =  -157.606721768     A.U. after   12 cycles
 E2(B2PLYPD3) =    -0.2576709008D+00 E(B2PLYPD3) =    -0.15786439266903D+03

 The electronic state is 1-A.
 Alpha  occ. eigenvalues --  -10.63446 -10.62314 -10.60814 -10.60657  -0.93124
 Alpha  occ. eigenvalues --   -0.88669  -0.76594  -0.68195  -0.52586  -0.49684
 Alpha  occ. eigenvalues --   -0.47209  -0.45029  -0.41454  -0.38401  -0.37425
 Alpha  occ. eigenvalues --   -0.36805  -0.34579
 Alpha virt. eigenvalues --   -0.00916   0.04869   0.06342   0.07098   0.09843
 Alpha virt. eigenvalues --    0.10662   0.11682   0.12857   0.13355   0.15511
 Alpha virt. eigenvalues --    0.15756   0.16966   0.17510   0.18303   0.19698

 Mulliken charges:
               1
     1  C   -0.364528
     2  C   -0.008034
     3  H    0.022733
     4  H    0.050173
     5  H    0.253457
     6  C   -0.084098
     7  H    0.034443
     8  H    0.028041
     9  C   -0.494933
    10  H    0.067570
    11  H    0.021860
    12  H    0.345164
    13  H    0.075780
    14  H    0.052374
 Sum of Mulliken charges =   0.00000

 Dipole moment (field-independent basis, Debye):
    X=              0.1146    Y=             -0.1304    Z=             -1.1759  Tot=              1.1887
 Quadrupole moment (field-independent basis, Debye-Ang):
   XX=            -32.3390   YY=            -28.6044   ZZ=            -28.0208
   XY=              0.2961   XZ=             -0.2131   YZ=              0.3449

 Normal termination of Gaussian 09 at Wed Aug 26 10:59:09 2020.
