 Gaussian 09, Revision D.01,
 Gaussian 09:  ES64L-G09RevD.01 24-Apr-2013

 --------------------
 #p B2PLYPD3/Def2QZVP
 --------------------

 ----------
 butane_opt
 ----------
 Symbolic Z-matrix:
 Charge =  0 Multiplicity = 1

                         Standard orientation:
 ---------------------------------------------------------------------
 Center     Atomic      Atomic             Coordinates (Angstroms)
 Number     Number       Type             X           Y           Z
 ---------------------------------------------------------------------
      1          6           0        2.048439   -0.173796    0.123459
      2          6           0        0.532712    0.633226   -0.220607
      3          1           0        2.767762    0.383874    0.834678
      4          1           0        2.633992   -0.838021   -0.825070
      5          1           0        1.491470   -0.678921    0.856965
      6          6           0       -0.636820   -0.440623   -0.199367
      7          1           0        0.380648    1.449502   -1.044380
      8          1           0        0.562153    1.008092    0.607357
      9          6           0       -1.942572    0.069396    0.117726
     10          1           0       -0.414405   -1.431092    0.743073
     11          1           0       -0.689122   -1.128303   -1.068737
     12          1           0       -1.998765    0.817251    1.316646
     13          1           0       -2.630627   -0.586839    0.179693
     14          1           0       -2.113664    0.475236   -0.527497
 ---------------------------------------------------------------------

 SCF Done:  E(RB2PLYPD3) =  -157.811166504     A.U. after   11 cycles
 E2(B2PLYPD3) =    -0.2521500204D+00 E(B2PLYPD3) =    -0.15806331652453D+03

 The electronic state is 1-A.
 Alpha  occ. eigenvalues --  -10.63905 -10.63476 -10.62094 -10.57859  -0.93113
 Alpha  occ. eigenvalues --   -0.84944  -0.73018  -0.67318  -0.55231  -0.51819
 Alpha  occ. eigenvalues --   -0.49113  -0.47248  -0.42419  -0.40537  -0.37929
 Alpha  occ. eigenvalues --   -0.35266  -0.34859
 Alpha virt. eigenvalues --    0.04895   0.06160   0.07264   0.07853   0.10096
 Alpha virt. eigenvalues --    0.11319   0.11892   0.12993   0.14372   0.14988
 Alpha virt. eigenvalues --    0.16078   0.16904   0.17271   0.19166   0.21027

 Mulliken charges:
               1
     1  C   -0.199188
     2  C   -0.172377
     3  H    0.046332
     4  H    0.051197
     5  H    0.097922
     6  C   -0.007737
     7  H    0.038751
     8  H    0.156650
     9  C   -0.321316
    10  H   -0.039260
    11  H    0.039752
    12  H    0.004716
    13  H    0.055602
    14  H    0.248958
 Sum of Mulliken charges =   0.00000

 Dipole moment (field-independent basis, Debye):
    X=             -0.5224    Y=              0.0975    Z=             -0.2677  Tot=              0.5950
 Quadrupole moment (field-independent basis, Debye-Ang):
   XX=            -29.4299   YY=            -29.8460   ZZ=            -28.2526
   XY=              0.8090   XZ=              1.5342   YZ=              0.6210

 Normal termination of Gaussian 09 at Wed Aug 26 14:18:46 2020.
