 Gaussian 09, Revision D.01,
 Gaussian 09:  ES64L-G09RevD.01 24-Apr-2013

 --------------------
 #p B2PLYPD3/Def2QZVP
 --------------------

 ----------
 butane_opt
 ----------
 Symbolic Z-matrix:
 Charge =  0 Multiplicity = 1

                         Standard orientation:
 ---------------------------------------------------------------------
 Center     Atomic      Atomic             Coordinates (Angstroms)
 Number     Number       Type             X           Y           Z
 ---------------------------------------------------------------------
      1          6           0       -1.963652   -0.047438    0.129225
      2          6           0       -0.672180    0.474509   -0.091702
      3          1           0       -2.711195    0.656288   -0.038235
      4          1           0       -1.946783   -0.850689    1.131823
      5          1           0       -1.973113   -0.650873   -0.689177
      6          6           0        0.526265   -0.586726   -0.024969
      7          1           0       -0.641765    0.674049    0.481540
      8          1           0       -0.575082    1.456463   -1.203478
      9          6           0        2.047086    0.133531    0.033051
     10          1           0        0.233751   -1.200739   -0.927716
     11          1           0        0.687540   -1.037595    0.808184
     12          1           0        1.844689    0.281353   -0.543965
     13          1           0        2.779456   -0.652924   -0.459532
     14          1           0        2.677389    1.481416    1.166928
 ---------------------------------------------------------------------

 SCF Done:  E(RB2PLYPD3) =  -156.957761635     A.U. after   13 cycles
 E2(B2PLYPD3) =    -0.2591142261D+00 E(B2PLYPD3) =    -0.15721687586108D+03

 The electronic state is 1-A.
 Alpha  occ. eigenvalues --  -10.62657 -10.62173 -10.60268 -10.59981  -0.97599
 Alpha  occ. eigenvalues --   -0.90650  -0.76217  -0.71873  -0.56932  -0.50822
 Alpha  occ. eigenvalues --   -0.48124  -0.46900  -0.42652  -0.38644  -0.37064
 Alpha  occ. eigenvalues --   -0.35476  -0.34005
 Alpha virt. eigenvalues --   -0.02393   0.04955   0.05880   0.07362   0.10392
 Alpha virt. eigenvalues --    0.10474   0.11660   0.11978   0.13535   0.15336
 Alpha virt. eigenvalues --    0.15867   0.15993   0.17957   0.18584   0.20518

 Mulliken charges:
               1
     1  C   -0.108757
     2  C   -0.845326
     3  H    0.073168
     4  H    0.041011
     5  H    0.053444
     6  C   -0.042182
     7  H    0.734682
     8  H    0.011925
     9  C   -0.866747
    10  H    0.056605
    11  H    0.088735
    12  H    0.675180
    13  H    0.083476
    14  H    0.044786
 Sum of Mulliken charges =   0.00000

 Dipole moment (field-independent basis, Debye):
    X=             -0.5049    Y=             -0.1415    Z=             -0.3109  Tot=              0.6096
 Quadrupole moment (field-independent basis, Debye-Ang):
   XX=            -30.6220   YY=            -29.0870   ZZ=            -27.9385
   XY=             -0.6423   XZ=             -0.2598   YZ=              0.5798

 Normal termination of Gaussian 09 at Wed Aug 26 19:19:14 2020.
