 Gaussian 09, Revision D.01,
 Gaussian 09:  ES64L-G09RevD.01 24-Apr-2013

 --------------------
 #p B2PLYPD3/Def2QZVP
 --------------------

 ----------
 butane_opt
 ----------
 Symbolic Z-matrix:
 Charge =  0 Multiplicity = 1

                         Standard orientation:
 ---------------------------------------------------------------------
 Center     Atomic      Atomic             Coordinates (Angstroms)
 Number     Number       Type             X           Y           Z
 ---------------------------------------------------------------------
      1          6           0       -1.855835    0.113056    0.137213
      2          6           0       -0.606810   -0.482440   -0.203885
      3          1           0       -2.727812   -0.899655    0.343289
      4          1           0       -2.300635    0.616436   -0.644999
      5          1           0       -1.869318    0.875673    1.212946
      6          6           0        0.482212    0.581730   -0.152346
      7          1           0       -0.618794   -1.382926   -1.197789
      8          1           0       -0.419434   -0.911281    0.475638
      9          6           0        1.964705   -0.191419    0.073683
     10          1           0        0.356359    1.260387    0.868825
     11          1           0        0.571800    1.411014   -1.058668
     12          1           0        2.040519   -1.255709    1.259684
     13          1           0        2.864563    0.588092    0.166879
     14          1           0        2.197117   -0.427592   -0.553794
 ---------------------------------------------------------------------

 SCF Done:  E(RB2PLYPD3) =  -157.635498899     A.U. after   11 cycles
 E2(B2PLYPD3) =    -0.2544827805D+00 E(B2PLYPD3) =    -0.15788998167945D+03

 The electronic state is 1-A.
 Alpha  occ. eigenvalues --  -10.65607 -10.63552 -10.62481 -10.60156  -0.93784
 Alpha  occ. eigenvalues --   -0.85572  -0.73993  -0.67952  -0.53152  -0.49084
 Alpha  occ. eigenvalues --   -0.48140  -0.46251  -0.40758  -0.40167  -0.37986
 Alpha  occ. eigenvalues --   -0.36678  -0.35258
 Alpha virt. eigenvalues --    0.03496   0.05271   0.05523   0.06962   0.10095
 Alpha virt. eigenvalues --    0.10845   0.11028   0.13083   0.13947   0.14513
 Alpha virt. eigenvalues --    0.15398   0.15951   0.18766   0.18923   0.20727

 Mulliken charges:
               1
     1  C   -0.151067
     2  C   -0.238176
     3  H    0.004372
     4  H    0.070779
     5  H    0.037139
     6  C   -0.028442
     7  H    0.023807
     8  H    0.270786
     9  C   -0.541193
    10  H    0.040396
    11  H    0.032594
    12  H    0.015086
    13  H    0.050048
    14  H    0.413872
 Sum of Mulliken charges =   0.00000

 Dipole moment (field-independent basis, Debye):
    X=              0.1458    Y=              0.2444    Z=             -0.4359  Tot=              0.5206
 Quadrupole moment (field-independent basis, Debye-Ang):
   XX=            -31.3338   YY=            -29.2624   ZZ=            -28.9485
   XY=              0.2583   XZ=             -0.6406   YZ=             -0.0360

 Normal termination of Gaussian 09 at Wed Aug 26 22:21:33 2020.
