 Gaussian 09, Revision D.01,
 Gaussian 09:  ES64L-G09RevD.01 24-Apr-2013

 --------------------
 #p B2PLYPD3/Def2QZVP
 --------------------

 ----------
 butane_opt
 ----------
 Symbolic Z-matrix:
 Charge =  0 Multiplicity = 1

                         Standard orientation:
 ---------------------------------------------------------------------
 Center     Atomic      Atomic             Coordinates (Angstroms)
 Number     Number       Type             X           Y           Z
 ---------------------------------------------------------------------
      1          6           0       -1.959353   -0.138077    0.062982
      2          6           0       -0.510449    0.550987   -0.230136
      3          1           0       -2.694178    0.397966    0.736426
      4          1           0       -1.699484   -0.476047    0.807621
      5          1           0       -2.224859   -0.919911   -0.874428
      6          6           0        0.552665   -0.455912    0.011664
      7          1           0       -0.249180    1.448215    0.642495
      8          1           0       -0.571894    1.140496   -1.167852
      9          6           0        1.933002    0.069835    0.060130
     10          1           0        0.466926   -1.118601   -0.767477
     11          1           0        0.073222   -1.234885    0.981383
     12          1           0        1.912849    0.451000   -0.702547
     13          1           0        2.784342   -0.844491   -0.144693
     14          1           0        2.107060    0.995262    1.061236
 ---------------------------------------------------------------------

 SCF Done:  E(RB2PLYPD3) =  -157.851508599     A.U. after   11 cycles
 E2(B2PLYPD3) =    -0.2530264654D+00 E(B2PLYPD3) =    -0.15810453506469D+03

 The electronic state is 1-A.
 Alpha  occ. eigenvalues --  -10.63452 -10.62271 -10.62034 -10.59924  -0.93285
 Alpha  occ. eigenvalues --   -0.85547  -0.74643  -0.65955  -0.54248  -0.49803
 Alpha  occ. eigenvalues --   -0.48614  -0.47217  -0.40710  -0.39802  -0.38673
 Alpha  occ. eigenvalues --   -0.36914  -0.35254
 Alpha virt. eigenvalues --    0.04723   0.06091   0.07432   0.07666   0.10393
 Alpha virt. eigenvalues --    0.10824   0.12044   0.13123   0.13874   0.14981
 Alpha virt. eigenvalues --    0.15976   0.16346   0.18243   0.18626   0.20012

 Mulliken charges:
               1
     1  C   -0.307979
     2  C   -0.046849
     3  H    0.049328
     4  H    0.196838
     5  H    0.055507
     6  C   -0.016262
     7  H   -0.005207
     8  H    0.044422
     9  C   -0.295055
    10  H    0.048384
    11  H   -0.007240
    12  H    0.207861
    13  H    0.041878
    14  H    0.034373
 Sum of Mulliken charges =   0.00000

 Dipole moment (field-independent basis, Debye):
    X=              0.0544    Y=             -0.2212    Z=             -0.4253  Tot=              0.4824
 Quadrupole moment (field-independent basis, Debye-Ang):
   XX=            -31.1502   YY=            -29.9205   ZZ=            -28.0260
   XY=              0.3381   XZ=             -1.6794   YZ=              0.9462

 Normal termination of Gaussian 09 at Wed Aug 26 12:40:13 2020.
