 Gaussian 09, Revision D.01,
 Gaussian 09:  ES64L-G09RevD.01 24-Apr-2013

 --------------------
 #p B2PLYPD3/Def2QZVP
 --------------------

 ----------
 butane_opt
 ----------
 Symbolic Z-matrix:
 Charge =  0 Multiplicity = 1

                         Standard orientation:
 ---------------------------------------------------------------------
 Center     Atomic      Atomic             Coordinates (Angstroms)
 Number     Number       Type             X           Y           Z
 ---------------------------------------------------------------------
      1          6           0        1.918176    0.053746    0.016562
      2          6           0        0.530118   -0.512349    0.105381
      3          1           0        2.515026   -0.791140   -0.892492
      4          1           0        2.599349    1.400991    1.177743
      5          1           0        1.789767    0.209267   -0.525397
      6          6           0       -0.507439    0.575912   -0.125498
      7          1           0        0.566368   -0.924117    0.830940
      8          1           0        0.593304   -1.253946   -0.707601
      9          6           0       -2.005313   -0.100139    0.025160
     10          1           0       -0.401149    1.311806   -1.154269
     11          1           0       -0.405150    0.897849    0.616238
     12          1           0       -2.281327   -0.590880   -0.681496
     13          1           0       -2.668710    0.473796   -0.023182
     14          1           0       -1.920733   -0.836641    1.229895
 ---------------------------------------------------------------------

 SCF Done:  E(RB2PLYPD3) =  -157.044297346     A.U. after   13 cycles
 E2(B2PLYPD3) =    -0.2576022362D+00 E(B2PLYPD3) =    -0.15730189958174D+03

 The electronic state is 1-A.
 Alpha  occ. eigenvalues --  -10.63874 -10.60919 -10.59641 -10.59018  -0.98041
 Alpha  occ. eigenvalues --   -0.88623  -0.80622  -0.73401  -0.56189  -0.49913
 Alpha  occ. eigenvalues --   -0.49171  -0.46822  -0.43364  -0.41249  -0.38103
 Alpha  occ. eigenvalues --   -0.36267  -0.33277
 Alpha virt. eigenvalues --   -0.02790   0.04350   0.05571   0.07452   0.09792
 Alpha virt. eigenvalues --    0.10758   0.11978   0.12873   0.13579   0.15140
 Alpha virt. eigenvalues --    0.16221   0.16861   0.18185   0.19296   0.20229

 Mulliken charges:
               1
     1  C   -0.998675
     2  C   -0.090167
     3  H    0.014199
     4  H    0.019237
     5  H    0.830270
     6  C   -0.303826
     7  H    0.169793
     8  H    0.039945
     9  C   -0.189330
    10  H    0.045678
    11  H    0.285425
    12  H    0.070400
    13  H    0.093295
    14  H    0.013756
 Sum of Mulliken charges =   0.00000

 Dipole moment (field-independent basis, Debye):
    X=             -1.1343    Y=              0.1545    Z=             -0.7609  Tot=              1.3746
 Quadrupole moment (field-independent basis, Debye-Ang):
   XX=            -32.5777   YY=            -29.1316   ZZ=            -27.2067
   XY=             -0.1205   XZ=              0.1779   YZ=              0.5291

 Normal termination of Gaussian 09 at Wed Aug 26 15:57:31 2020.
