 Gaussian 09, Revision D.01,
 Gaussian 09:  ES64L-G09RevD.01 24-Apr-2013

 --------------------
 #p B2PLYPD3/Def2QZVP
 --------------------

 ----------
 butane_opt
 ----------
 Symbolic Z-matrix:
 Charge =  0 Multiplicity = 1

                         Standard orientation:
 ---------------------------------------------------------------------
 Center     Atomic      Atomic             Coordinates (Angstroms)
 Number     Number       Type             X           Y           Z
 ---------------------------------------------------------------------
      1          6           0        1.991127   -0.171492   -0.203823
      2          6           0        0.488009    0.532382    0.143445
      3          1           0        2.828805    0.489582   -0.696234
      4          1           0        1.783469   -0.798380   -0.978626
      5          1           0        2.338164   -0.829004    0.993427
      6          6           0       -0.626760   -0.389066    0.272701
      7          1           0        0.123726    0.645350   -0.440307
      8          1           0        0.595539    1.695564    1.171291
      9          6           0       -1.859323    0.015437   -0.192515
     10          1           0       -0.470757   -0.810437    1.210381
     11          1           0       -0.391779   -0.930807   -0.409101
     12          1           0       -1.920813    0.683602    0.379078
     13          1           0       -2.760380   -0.753918    0.046913
     14          1           0       -2.084286    0.684885   -1.395673
 ---------------------------------------------------------------------

 SCF Done:  E(RB2PLYPD3) =  -157.551293337     A.U. after   12 cycles
 E2(B2PLYPD3) =    -0.2543392066D+00 E(B2PLYPD3) =    -0.15780563254331D+03

 The electronic state is 1-A.
 Alpha  occ. eigenvalues --  -10.64987 -10.61072 -10.61043 -10.57834  -1.01223
 Alpha  occ. eigenvalues --   -0.85138  -0.75866  -0.70128  -0.59030  -0.51007
 Alpha  occ. eigenvalues --   -0.47706  -0.46229  -0.43354  -0.40347  -0.39445
 Alpha  occ. eigenvalues --   -0.35734  -0.33147
 Alpha virt. eigenvalues --    0.04476   0.05276   0.06092   0.07791   0.10225
 Alpha virt. eigenvalues --    0.10786   0.12278   0.12738   0.13525   0.14500
 Alpha virt. eigenvalues --    0.15608   0.16363   0.17905   0.19148   0.20423

 Mulliken charges:
               1
     1  C   -0.164408
     2  C   -0.572716
     3  H    0.063488
     4  H    0.077859
     5  H    0.030265
     6  C   -0.128148
     7  H    0.542156
     8  H   -0.017550
     9  C   -0.253006
    10  H    0.050183
    11  H    0.130905
    12  H    0.151452
    13  H    0.059078
    14  H    0.030443
 Sum of Mulliken charges =   0.00000

 Dipole moment (field-independent basis, Debye):
    X=             -0.3810    Y=             -0.5602    Z=             -0.4435  Tot=              0.8097
 Quadrupole moment (field-independent basis, Debye-Ang):
   XX=            -29.4881   YY=            -30.6497   ZZ=            -28.1348
   XY=              0.1748   XZ=             -1.2043   YZ=             -0.4286

 Normal termination of Gaussian 09 at Wed Aug 26 09:54:57 2020.
