 Gaussian 09, Revision D.01,
 Gaussian 09:  ES64L-G09RevD.01 24-Apr-2013

 --------------------
 #p B2PLYPD3/Def2QZVP
 --------------------

 ----------
 butane_opt
 ----------
 Symbolic Z-matrix:
 Charge =  0 Multiplicity = 1

                         Standard orientation:
 ---------------------------------------------------------------------
 Center     Atomic      Atomic             Coordinates (Angstroms)
 Number     Number       Type             X           Y           Z
 ---------------------------------------------------------------------
      1          6           0        1.936666    0.041302   -0.109384
      2          6           0        0.610905   -0.384135    0.321702
      3          1           0        2.832652   -1.072357   -0.587933
      4          1           0        2.719294    1.142090    0.641397
      5          1           0        1.717682    0.211221   -0.982351
      6          6           0       -0.570697    0.591165   -0.032186
      7          1           0        0.644517   -0.698377    1.260569
      8          1           0        0.465648   -1.238086   -0.430155
      9          6           0       -2.061079   -0.142657   -0.040407
     10          1           0        0.092028    0.917884   -1.010693
     11          1           0       -0.608128    1.349967    0.642674
     12          1           0       -2.130763   -1.049923   -0.784176
     13          1           0       -2.863424    0.363071   -0.533365
     14          1           0       -2.364276   -0.559543    0.945683
 ---------------------------------------------------------------------

 SCF Done:  E(RB2PLYPD3) =  -157.893017378     A.U. after   11 cycles
 E2(B2PLYPD3) =    -0.2545818009D+00 E(B2PLYPD3) =    -0.15814759917846D+03

 The electronic state is 1-A.
 Alpha  occ. eigenvalues --  -10.65226 -10.63457 -10.62795 -10.60832  -0.92796
 Alpha  occ. eigenvalues --   -0.82713  -0.73407  -0.67552  -0.55339  -0.49529
 Alpha  occ. eigenvalues --   -0.47081  -0.45366  -0.42855  -0.40110  -0.38869
 Alpha  occ. eigenvalues --   -0.37599  -0.33288
 Alpha virt. eigenvalues --    0.02729   0.05593   0.06548   0.08694   0.09202
 Alpha virt. eigenvalues --    0.09834   0.12196   0.12645   0.14157   0.14711
 Alpha virt. eigenvalues --    0.15599   0.16975   0.18138   0.18490   0.20033

 Mulliken charges:
               1
     1  C   -0.237784
     2  C   -0.031263
     3  H    0.004009
     4  H    0.024636
     5  H    0.132361
     6  C   -0.103850
     7  H    0.054769
     8  H    0.056261
     9  C   -0.125298
    10  H    0.030097
    11  H    0.064849
    12  H    0.014011
    13  H    0.054992
    14  H    0.062211
 Sum of Mulliken charges =   0.00000

 Dipole moment (field-independent basis, Debye):
    X=             -0.8848    Y=             -0.0785    Z=             -0.0587  Tot=              0.8902
 Quadrupole moment (field-independent basis, Debye-Ang):
   XX=            -31.4130   YY=            -30.3024   ZZ=            -28.5655
   XY=              0.6745   XZ=             -0.5190   YZ=              0.9537

 Normal termination of Gaussian 09 at Wed Aug 26 21:33:55 2020.
