 Gaussian 09, Revision D.01,
 Gaussian 09:  ES64L-G09RevD.01 24-Apr-2013

 --------------------
 #p B2PLYPD3/Def2QZVP
 --------------------

 ----------
 butane_opt
 ----------
 Symbolic Z-matrix:
 Charge =  0 Multiplicity = 1

                         Standard orientation:
 ---------------------------------------------------------------------
 Center     Atomic      Atomic             Coordinates (Angstroms)
 Number     Number       Type             X           Y           Z
 ---------------------------------------------------------------------
      1          6           0       -1.944356    0.052056   -0.006917
      2          6           0       -0.581855   -0.491970    0.058377
      3          1           0       -2.685649   -0.605790   -0.611960
      4          1           0       -1.984840    0.119358   -0.503860
      5          1           0       -2.463826    1.085663    1.142931
      6          6           0        0.484470    0.649591   -0.009499
      7          1           0       -0.477415   -1.181193   -0.843776
      8          1           0       -0.640260   -1.109924    0.748872
      9          6           0        2.047104   -0.151039    0.038822
     10          1           0        0.641250    1.068681    0.690455
     11          1           0        0.224932    1.392010   -0.986394
     12          1           0        2.410160   -0.989287    1.041527
     13          1           0        2.869368    0.660581   -0.499311
     14          1           0        2.074100   -0.791929   -0.663183
 ---------------------------------------------------------------------

 SCF Done:  E(RB2PLYPD3) =  -156.855654039     A.U. after   13 cycles
 E2(B2PLYPD3) =    -0.2562977324D+00 E(B2PLYPD3) =    -0.15711195177120D+03

 The electronic state is 1-A.
 Alpha  occ. eigenvalues --  -10.64299 -10.63572 -10.62030 -10.60056  -0.97807
 Alpha  occ. eigenvalues --   -0.86637  -0.76952  -0.72196  -0.55204  -0.51092
 Alpha  occ. eigenvalues --   -0.46300  -0.44105  -0.41399  -0.40402  -0.39205
 Alpha  occ. eigenvalues --   -0.35690  -0.34176
 Alpha virt. eigenvalues --    0.02895   0.04785   0.04978   0.07821   0.09659
 Alpha virt. eigenvalues --    0.11051   0.11719   0.12254   0.13690   0.15012
 Alpha virt. eigenvalues --    0.16101   0.16826   0.18450   0.19152   0.20286

 Mulliken charges:
               1
     1  C   -1.019802
     2  C    0.059602
     3  H    0.014251
     4  H    0.848738
     5  H    0.045556
     6  C   -0.208968
     7  H    0.003409
     8  H    0.067319
     9  C   -0.230342
    10  H    0.201822
    11  H    0.045072
    12  H    0.045539
    13  H    0.031703
    14  H    0.096101
 Sum of Mulliken charges =   0.00000

 Dipole moment (field-independent basis, Debye):
    X=             -0.0886    Y=             -0.1807    Z=             -0.6608  Tot=              0.6908
 Quadrupole moment (field-independent basis, Debye-Ang):
   XX=            -31.8390   YY=            -28.5019   ZZ=            -27.5490
   XY=             -0.8124   XZ=              0.8097   YZ=              0.2503

 Normal termination of Gaussian 09 at Wed Aug 26 18:31:37 2020.
