 Gaussian 09, Revision D.01,
 Gaussian 09:  ES64L-G09RevD.01 24-Apr-2013

 --------------------
 #p B2PLYPD3/Def2QZVP
 --------------------

 ----------
 butane_opt
 ----------
 Symbolic Z-matrix:
 Charge =  0 Multiplicity = 1

                         Standard orientation:
 ---------------------------------------------------------------------
 Center     Atomic      Atomic             Coordinates (Angstroms)
 Number     Number       Type             X           Y           Z
 ---------------------------------------------------------------------
      1          6           0        2.002719    0.004990   -0.166059
      2          6           0        0.590898   -0.340218    0.359864
      3          1           0        2.897691   -0.994189   -0.460206
      4          1           0        2.319809    0.959685    0.621322
      5          1           0        1.630628    0.299451   -0.990482
      6          6           0       -0.504871    0.630636   -0.045693
      7          1           0        0.663148   -0.684474    1.366092
      8          1           0        0.372937   -1.067890   -0.396872
      9          6           0       -1.993146   -0.223301   -0.069252
     10          1           0       -0.190450    0.980961   -0.899834
     11          1           0       -0.790673    1.380122    0.592310
     12          1           0       -2.255987   -1.322750   -0.868013
     13          1           0       -2.889368    0.471515   -0.273293
     14          1           0       -2.331337   -0.455069    0.835812
 ---------------------------------------------------------------------

 SCF Done:  E(RB2PLYPD3) =  -157.940710391     A.U. after   11 cycles
 E2(B2PLYPD3) =    -0.2516045098D+00 E(B2PLYPD3) =    -0.15819231490104D+03

 The electronic state is 1-A.
 Alpha  occ. eigenvalues --  -10.63274 -10.62892 -10.61491 -10.60322  -0.92363
 Alpha  occ. eigenvalues --   -0.82040  -0.73704  -0.67409  -0.56628  -0.48965
 Alpha  occ. eigenvalues --   -0.47231  -0.45262  -0.42672  -0.40956  -0.38918
 Alpha  occ. eigenvalues --   -0.37946  -0.34081
 Alpha virt. eigenvalues --    0.04650   0.05551   0.08276   0.08782   0.10079
 Alpha virt. eigenvalues --    0.10989   0.12061   0.12997   0.13515   0.14542
 Alpha virt. eigenvalues --    0.15791   0.16456   0.18755   0.19025   0.20897

 Mulliken charges:
               1
     1  C   -0.201326
     2  C   -0.073376
     3  H    0.042429
     4  H    0.027013
     5  H    0.089216
     6  C   -0.066350
     7  H    0.049565
     8  H    0.063390
     9  C   -0.155958
    10  H    0.070688
    11  H    0.042291
    12  H    0.017359
    13  H    0.024427
    14  H    0.070631
 Sum of Mulliken charges =   0.00000

 Dipole moment (field-independent basis, Debye):
    X=             -0.3337    Y=              0.2691    Z=              0.1675  Tot=              0.4602
 Quadrupole moment (field-independent basis, Debye-Ang):
   XX=            -31.0243   YY=            -29.4289   ZZ=            -28.5421
   XY=             -1.1828   XZ=             -1.0810   YZ=              0.7921

 Normal termination of Gaussian 09 at Wed Aug 26 12:16:09 2020.
