 Gaussian 09, Revision D.01,
 Gaussian 09:  ES64L-G09RevD.01 24-Apr-2013

 --------------------
 #p B2PLYPD3/Def2QZVP
 --------------------

 ----------
 butane_opt
 ----------
 Symbolic Z-matrix:
 Charge =  0 Multiplicity = 1

                         Standard orientation:
 ---------------------------------------------------------------------
 Center     Atomic      Atomic             Coordinates (Angstroms)
 Number     Number       Type             X           Y           Z
 ---------------------------------------------------------------------
      1          6           0       -1.939866   -0.226925    0.064023
      2          6           0       -0.516915    0.580435   -0.169688
      3          1           0       -2.699104    0.599073    0.756225
      4          1           0       -1.876686   -0.440702    0.741272
      5          1           0       -2.457874   -1.013423   -1.023559
      6          6           0        0.595433   -0.403853   -0.079113
      7          1           0       -0.364398    1.189070    0.740017
      8          1           0       -0.305323    1.361697   -1.136117
      9          6           0        1.907349    0.050757    0.072089
     10          1           0        0.492630   -0.837028   -0.824314
     11          1           0        0.231022   -1.403449    1.014983
     12          1           0        1.902400    0.711035   -0.704170
     13          1           0        2.908503   -1.110250   -0.076220
     14          1           0        1.892827    0.941488    1.188016
 ---------------------------------------------------------------------

 SCF Done:  E(RB2PLYPD3) =  -157.563652609     A.U. after   12 cycles
 E2(B2PLYPD3) =    -0.2587919773D+00 E(B2PLYPD3) =    -0.15782244458609D+03

 The electronic state is 1-A.
 Alpha  occ. eigenvalues --  -10.66164 -10.64511 -10.63385 -10.61474  -0.95268
 Alpha  occ. eigenvalues --   -0.87136  -0.75094  -0.67380  -0.54582  -0.49574
 Alpha  occ. eigenvalues --   -0.47728  -0.45819  -0.41702  -0.39143  -0.38337
 Alpha  occ. eigenvalues --   -0.35415  -0.33247
 Alpha virt. eigenvalues --    0.01710   0.04079   0.05425   0.06714   0.08289
 Alpha virt. eigenvalues --    0.09893   0.11464   0.11659   0.13269   0.14237
 Alpha virt. eigenvalues --    0.15331   0.16378   0.17573   0.18189   0.19321

 Mulliken charges:
               1
     1  C   -0.604203
     2  C   -0.030455
     3  H    0.008386
     4  H    0.497763
     5  H    0.081410
     6  C   -0.086467
     7  H    0.037638
     8  H    0.020716
     9  C   -0.176380
    10  H    0.155557
    11  H   -0.057238
    12  H    0.088607
    13  H    0.048601
    14  H    0.016066
 Sum of Mulliken charges =   0.00000

 Dipole moment (field-independent basis, Debye):
    X=             -0.0309    Y=              0.1377    Z=             -0.6269  Tot=              0.6425
 Quadrupole moment (field-independent basis, Debye-Ang):
   XX=            -32.8508   YY=            -30.3584   ZZ=            -28.5860
   XY=              0.6285   XZ=             -1.5551   YZ=              1.2470

 Normal termination of Gaussian 09 at Wed Aug 26 09:57:15 2020.
