 Gaussian 09, Revision D.01,
 Gaussian 09:  ES64L-G09RevD.01 24-Apr-2013

 --------------------
 #p B2PLYPD3/Def2QZVP
 --------------------

 ----------
 butane_opt
 ----------
 Symbolic Z-matrix:
 Charge =  0 Multiplicity = 1

                         Standard orientation:
 ---------------------------------------------------------------------
 Center     Atomic      Atomic             Coordinates (Angstroms)
 Number     Number       Type             X           Y           Z
 ---------------------------------------------------------------------
      1          6           0        1.872452   -0.127868   -0.147951
      2          6           0        0.554770    0.509680    0.167891
      3          1           0        2.463598    0.480609   -0.575855
      4          1           0        1.764604   -0.545017   -0.963882
      5          1           0        2.539466   -0.815963    0.834273
      6          6           0       -0.598042   -0.477500    0.054173
      7          1           0        0.190590    0.959968   -0.505793
      8          1           0        0.698657    1.469832    1.245703
      9          6           0       -1.896774    0.070315   -0.086016
     10          1           0       -0.539377   -1.399557    1.159627
     11          1           0       -0.213424   -1.001611   -0.816480
     12          1           0       -1.692796    0.771154    0.749310
     13          1           0       -2.624719   -0.701775    0.082444
     14          1           0       -2.181032    0.934596   -1.137934
 ---------------------------------------------------------------------

 SCF Done:  E(RB2PLYPD3) =  -157.835482282     A.U. after   11 cycles
 E2(B2PLYPD3) =    -0.2536287021D+00 E(B2PLYPD3) =    -0.15808911098381D+03

 The electronic state is 1-A.
 Alpha  occ. eigenvalues --  -10.63971 -10.62733 -10.61864 -10.59380  -0.95515
 Alpha  occ. eigenvalues --   -0.86780  -0.75787  -0.64708  -0.54432  -0.53306
 Alpha  occ. eigenvalues --   -0.49331  -0.46177  -0.42144  -0.41530  -0.37671
 Alpha  occ. eigenvalues --   -0.36073  -0.33711
 Alpha virt. eigenvalues --    0.04543   0.05306   0.06449   0.06835   0.10218
 Alpha virt. eigenvalues --    0.11119   0.12296   0.12839   0.13499   0.14528
 Alpha virt. eigenvalues --    0.15918   0.16260   0.18561   0.19985   0.20306

 Mulliken charges:
               1
     1  C   -0.173551
     2  C   -0.158157
     3  H    0.055650
     4  H    0.068922
     5  H    0.044550
     6  C   -0.024074
     7  H    0.173532
     8  H   -0.009463
     9  C   -0.181318
    10  H   -0.019573
    11  H    0.049074
    12  H    0.074919
    13  H    0.085368
    14  H    0.014120
 Sum of Mulliken charges =   0.00000

 Dipole moment (field-independent basis, Debye):
    X=              0.1029    Y=              0.0426    Z=             -0.8670  Tot=              0.8741
 Quadrupole moment (field-independent basis, Debye-Ang):
   XX=            -29.6435   YY=            -30.5224   ZZ=            -28.9397
   XY=              0.5238   XZ=             -0.6548   YZ=             -0.4636

 Normal termination of Gaussian 09 at Wed Aug 26 12:49:31 2020.
