 Gaussian 09, Revision D.01,
 Gaussian 09:  ES64L-G09RevD.01 24-Apr-2013

 --------------------
 #p B2PLYPD3/Def2QZVP
 --------------------

 ----------
 butane_opt
 ----------
 Symbolic Z-matrix:
 Charge =  0 Multiplicity = 1

                         Standard orientation:
 ---------------------------------------------------------------------
 Center     Atomic      Atomic             Coordinates (Angstroms)
 Number     Number       Type             X           Y           Z
 ---------------------------------------------------------------------
      1          6           0       -2.064952    0.153775   -0.174881
      2          6           0       -0.560086   -0.568402    0.355116
      3          1           0       -2.885969   -0.654570   -0.760118
      4          1           0       -1.630667    0.377607   -0.940435
      5          1           0       -2.639627    1.098533    0.747546
      6          6           0        0.585747    0.473227    0.043241
      7          1           0       -0.243240   -0.871450   -0.396229
      8          1           0       -0.305665   -1.375140    1.478806
      9          6           0        1.940480   -0.115417   -0.219376
     10          1           0        0.935085    1.629450    1.125643
     11          1           0        0.154072    0.866954   -0.776769
     12          1           0        2.267777   -0.487707    0.626440
     13          1           0        2.920307    0.677247   -0.045082
     14          1           0        2.020788   -0.920020   -1.084408
 ---------------------------------------------------------------------

 SCF Done:  E(RB2PLYPD3) =  -157.738444791     A.U. after   12 cycles
 E2(B2PLYPD3) =    -0.2590429589D+00 E(B2PLYPD3) =    -0.15799748774958D+03

 The electronic state is 1-A.
 Alpha  occ. eigenvalues --  -10.65918 -10.65816 -10.64196 -10.62398  -0.94089
 Alpha  occ. eigenvalues --   -0.83451  -0.75310  -0.66431  -0.52827  -0.49375
 Alpha  occ. eigenvalues --   -0.48091  -0.44765  -0.43095  -0.40564  -0.36945
 Alpha  occ. eigenvalues --   -0.36620  -0.32337
 Alpha virt. eigenvalues --    0.03116   0.04229   0.06026   0.07040   0.09077
 Alpha virt. eigenvalues --    0.09813   0.11601   0.12085   0.13936   0.14591
 Alpha virt. eigenvalues --    0.15372   0.16427   0.17304   0.18004   0.18885

 Mulliken charges:
               1
     1  C   -0.254357
     2  C   -0.259269
     3  H    0.038508
     4  H    0.164119
     5  H    0.074246
     6  C   -0.075917
     7  H    0.230834
     8  H    0.035618
     9  C   -0.152866
    10  H   -0.056911
    11  H    0.097593
    12  H    0.076808
    13  H    0.041517
    14  H    0.040077
 Sum of Mulliken charges =   0.00000

 Dipole moment (field-independent basis, Debye):
    X=              0.2009    Y=             -0.6043    Z=             -0.7625  Tot=              0.9935
 Quadrupole moment (field-independent basis, Debye-Ang):
   XX=            -29.5175   YY=            -31.6505   ZZ=            -29.0631
   XY=             -1.3174   XZ=              1.3656   YZ=              0.4268

 Normal termination of Gaussian 09 at Wed Aug 26 23:04:28 2020.
