 Gaussian 09, Revision D.01,
 Gaussian 09:  ES64L-G09RevD.01 24-Apr-2013

 --------------------
 #p B2PLYPD3/Def2QZVP
 --------------------

 ----------
 butane_opt
 ----------
 Symbolic Z-matrix:
 Charge =  0 Multiplicity = 1

                         Standard orientation:
 ---------------------------------------------------------------------
 Center     Atomic      Atomic             Coordinates (Angstroms)
 Number     Number       Type             X           Y           Z
 ---------------------------------------------------------------------
      1          6           0        1.992533   -0.176763   -0.161912
      2          6           0        0.483583    0.548733   -0.004897
      3          1           0        2.869409    0.819739    0.408959
      4          1           0        2.304690   -1.405218   -1.120884
      5          1           0        1.999399   -0.505233    0.598141
      6          6           0       -0.635947   -0.404916    0.232093
      7          1           0        0.042771    0.855638   -0.689843
      8          1           0        0.519089    1.693425    0.918909
      9          6           0       -1.858716    0.066045   -0.192647
     10          1           0       -0.382850   -1.087394    1.487132
     11          1           0       -0.462779   -0.986482   -0.328890
     12          1           0       -2.029054    0.600607    0.516460
     13          1           0       -2.735167   -0.928544    0.204857
     14          1           0       -2.014221    0.744867   -1.230662
 ---------------------------------------------------------------------

 SCF Done:  E(RB2PLYPD3) =  -157.539293892     A.U. after   12 cycles
 E2(B2PLYPD3) =    -0.2594854714D+00 E(B2PLYPD3) =    -0.15779877936350D+03

 The electronic state is 1-A.
 Alpha  occ. eigenvalues --  -10.65770 -10.63384 -10.61992 -10.60488  -0.97938
 Alpha  occ. eigenvalues --   -0.84729  -0.76761  -0.70530  -0.54489  -0.49240
 Alpha  occ. eigenvalues --   -0.48230  -0.44633  -0.41510  -0.39243  -0.38859
 Alpha  occ. eigenvalues --   -0.35231  -0.34093
 Alpha virt. eigenvalues --    0.00391   0.03110   0.05058   0.05953   0.09684
 Alpha virt. eigenvalues --    0.10992   0.11084   0.12135   0.13664   0.14375
 Alpha virt. eigenvalues --    0.14887   0.15651   0.17250   0.18542   0.20547

 Mulliken charges:
               1
     1  C   -0.380298
     2  C   -0.142564
     3  H    0.022979
     4  H    0.051882
     5  H    0.284340
     6  C   -0.238993
     7  H    0.175646
     8  H   -0.014154
     9  C   -0.230812
    10  H   -0.008135
    11  H    0.254903
    12  H    0.132582
    13  H    0.026583
    14  H    0.066041
 Sum of Mulliken charges =   0.00000

 Dipole moment (field-independent basis, Debye):
    X=             -0.4625    Y=             -0.1936    Z=             -0.0259  Tot=              0.5020
 Quadrupole moment (field-independent basis, Debye-Ang):
   XX=            -32.3418   YY=            -29.4243   ZZ=            -29.3868
   XY=             -1.8382   XZ=              1.5643   YZ=              0.5734

 Normal termination of Gaussian 09 at Wed Aug 26 11:19:46 2020.
