 Gaussian 09, Revision D.01,
 Gaussian 09:  ES64L-G09RevD.01 24-Apr-2013

 --------------------
 #p B2PLYPD3/Def2QZVP
 --------------------

 ----------
 butane_opt
 ----------
 Symbolic Z-matrix:
 Charge =  0 Multiplicity = 1

                         Standard orientation:
 ---------------------------------------------------------------------
 Center     Atomic      Atomic             Coordinates (Angstroms)
 Number     Number       Type             X           Y           Z
 ---------------------------------------------------------------------
      1          6           0       -2.064037   -0.124017    0.070906
      2          6           0       -0.517045    0.596287   -0.196772
      3          1           0       -2.569934    0.344329   -0.114315
      4          1           0       -2.343209   -0.716673    1.089929
      5          1           0       -2.200471   -0.821826   -0.745135
      6          6           0        0.604079   -0.445759    0.112657
      7          1           0       -0.517096    1.243160    0.584184
      8          1           0       -0.306123    1.108879   -1.203447
      9          6           0        1.962023   -0.006588    0.100432
     10          1           0        0.649946   -1.245987   -0.691410
     11          1           0        0.329008   -0.782912    0.972548
     12          1           0        1.744870    0.313277   -0.731425
     13          1           0        2.766108   -0.890582   -0.715471
     14          1           0        2.536780    1.328802    1.031210
 ---------------------------------------------------------------------

 SCF Done:  E(RB2PLYPD3) =  -157.636037758     A.U. after   12 cycles
 E2(B2PLYPD3) =    -0.2558160074D+00 E(B2PLYPD3) =    -0.15789185376495D+03

 The electronic state is 1-A.
 Alpha  occ. eigenvalues --  -10.64642 -10.62548 -10.60602 -10.58903  -0.94255
 Alpha  occ. eigenvalues --   -0.86843  -0.76572  -0.67489  -0.54765  -0.51307
 Alpha  occ. eigenvalues --   -0.47264  -0.45944  -0.44045  -0.41898  -0.37687
 Alpha  occ. eigenvalues --   -0.35975  -0.33132
 Alpha virt. eigenvalues --   -0.00133   0.04828   0.06165   0.08198   0.09551
 Alpha virt. eigenvalues --    0.10797   0.11970   0.13509   0.13908   0.14972
 Alpha virt. eigenvalues --    0.15537   0.17186   0.17924   0.19425   0.20428

 Mulliken charges:
               1
     1  C   -0.490608
     2  C   -0.079302
     3  H    0.363629
     4  H    0.058396
     5  H    0.044908
     6  C   -0.033420
     7  H    0.069021
     8  H    0.035907
     9  C   -0.265197
    10  H    0.043937
    11  H    0.065724
    12  H    0.156005
    13  H    0.021484
    14  H    0.009515
 Sum of Mulliken charges =   0.00000

 Dipole moment (field-independent basis, Debye):
    X=             -1.1044    Y=              0.0575    Z=             -0.7067  Tot=              1.3124
 Quadrupole moment (field-independent basis, Debye-Ang):
   XX=            -32.0751   YY=            -29.4629   ZZ=            -27.9338
   XY=              0.0049   XZ=             -1.8566   YZ=              0.7959

 Normal termination of Gaussian 09 at Wed Aug 26 16:07:17 2020.
