 Gaussian 09, Revision D.01,
 Gaussian 09:  ES64L-G09RevD.01 24-Apr-2013

 --------------------
 #p B2PLYPD3/Def2QZVP
 --------------------

 ----------
 butane_opt
 ----------
 Symbolic Z-matrix:
 Charge =  0 Multiplicity = 1

                         Standard orientation:
 ---------------------------------------------------------------------
 Center     Atomic      Atomic             Coordinates (Angstroms)
 Number     Number       Type             X           Y           Z
 ---------------------------------------------------------------------
      1          6           0       -1.802505    0.037097   -0.101306
      2          6           0       -0.574772   -0.428077    0.123365
      3          1           0       -2.665087   -0.908010   -0.199210
      4          1           0       -2.040374    0.662836   -0.955569
      5          1           0       -2.170205    0.971628    0.833574
      6          6           0        0.434417    0.546235    0.086953
      7          1           0       -0.464732   -0.982802   -0.642040
      8          1           0       -0.638869   -1.246337    1.038918
      9          6           0        1.977877   -0.173524   -0.076083
     10          1           0        0.467670    1.368136    0.964188
     11          1           0        0.287981    1.092229   -0.699806
     12          1           0        2.685248   -0.680564    0.874875
     13          1           0        2.639889    0.530201   -0.540162
     14          1           0        1.688380   -0.697707   -0.872349
 ---------------------------------------------------------------------

 SCF Done:  E(RB2PLYPD3) =  -157.940162393     A.U. after   11 cycles
 E2(B2PLYPD3) =    -0.2514001298D+00 E(B2PLYPD3) =    -0.15819156252302D+03

 The electronic state is 1-A.
 Alpha  occ. eigenvalues --  -10.63289 -10.61593 -10.61319 -10.58911  -0.96741
 Alpha  occ. eigenvalues --   -0.83198  -0.73315  -0.67290  -0.55808  -0.51882
 Alpha  occ. eigenvalues --   -0.50100  -0.47504  -0.42036  -0.40391  -0.38378
 Alpha  occ. eigenvalues --   -0.36239  -0.34274
 Alpha virt. eigenvalues --    0.04940   0.05999   0.07485   0.08281   0.10136
 Alpha virt. eigenvalues --    0.10998   0.11894   0.12947   0.14266   0.15343
 Alpha virt. eigenvalues --    0.16259   0.16439   0.18228   0.19979   0.21500

 Mulliken charges:
               1
     1  C   -0.171864
     2  C   -0.019189
     3  H    0.033434
     4  H    0.048500
     5  H   -0.000104
     6  C   -0.075320
     7  H    0.082124
     8  H    0.030823
     9  C   -0.198105
    10  H    0.022626
    11  H    0.079447
    12  H    0.059379
    13  H    0.039282
    14  H    0.068968
 Sum of Mulliken charges =   0.00000

 Dipole moment (field-independent basis, Debye):
    X=              0.2775    Y=             -0.0970    Z=             -0.8482  Tot=              0.8977
 Quadrupole moment (field-independent basis, Debye-Ang):
   XX=            -30.9264   YY=            -29.1841   ZZ=            -28.7604
   XY=              0.7802   XZ=              1.1265   YZ=             -0.4694

 Normal termination of Gaussian 09 at Wed Aug 26 15:37:24 2020.
