 Gaussian 09, Revision D.01,
 Gaussian 09:  ES64L-G09RevD.01 24-Apr-2013

 --------------------
 #p B2PLYPD3/Def2QZVP
 --------------------

 ----------
 butane_opt
 ----------
 Symbolic Z-matrix:
 Charge =  0 Multiplicity = 1

                         Standard orientation:
 ---------------------------------------------------------------------
 Center     Atomic      Atomic             Coordinates (Angstroms)
 Number     Number       Type             X           Y           Z
 ---------------------------------------------------------------------
      1          6           0       -2.060680    0.163512    0.035800
      2          6           0       -0.564542   -0.575185    0.013509
      3          1           0       -2.845391   -0.695190   -0.236582
      4          1           0       -2.083311    0.424483   -0.597664
      5          1           0       -2.243406    1.259737    1.222848
      6          6           0        0.550962    0.493319   -0.112865
      7          1           0       -0.527556   -1.352690   -0.767757
      8          1           0       -0.267990   -1.016250    0.771229
      9          6           0        1.970417   -0.127173    0.072267
     10          1           0        0.668621    0.956132    0.418097
     11          1           0        0.643935    1.212831   -1.195516
     12          1           0        2.461748   -0.589547    1.026773
     13          1           0        2.848698    0.656723   -0.043752
     14          1           0        1.967707   -0.583067   -0.649946
 ---------------------------------------------------------------------

 SCF Done:  E(RB2PLYPD3) =  -157.429536227     A.U. after   11 cycles
 E2(B2PLYPD3) =    -0.2512627099D+00 E(B2PLYPD3) =    -0.15768079893708D+03

 The electronic state is 1-A.
 Alpha  occ. eigenvalues --  -10.62708 -10.61009 -10.59171 -10.58651  -0.93630
 Alpha  occ. eigenvalues --   -0.87119  -0.77734  -0.73363  -0.55347  -0.49561
 Alpha  occ. eigenvalues --   -0.48796  -0.47355  -0.42927  -0.41773  -0.38169
 Alpha  occ. eigenvalues --   -0.37205  -0.35009
 Alpha virt. eigenvalues --    0.02635   0.05887   0.07289   0.08009   0.10296
 Alpha virt. eigenvalues --    0.11335   0.12066   0.13167   0.14609   0.15300
 Alpha virt. eigenvalues --    0.15715   0.17093   0.18336   0.19045   0.20737

 Mulliken charges:
               1
     1  C   -0.636196
     2  C   -0.016091
     3  H    0.056715
     4  H    0.501053
     5  H    0.033228
     6  C   -0.512463
     7  H    0.024304
     8  H    0.106570
     9  C   -0.249459
    10  H    0.452035
    11  H    0.020365
    12  H    0.043063
    13  H    0.016101
    14  H    0.160775
 Sum of Mulliken charges =   0.00000

 Dipole moment (field-independent basis, Debye):
    X=              0.2642    Y=             -0.2835    Z=             -0.2211  Tot=              0.4462
 Quadrupole moment (field-independent basis, Debye-Ang):
   XX=            -30.0649   YY=            -28.6079   ZZ=            -28.0358
   XY=              0.5584   XZ=              1.9485   YZ=              0.8374

 Normal termination of Gaussian 09 at Wed Aug 26 11:49:14 2020.
