 Gaussian 09, Revision D.01,
 Gaussian 09:  ES64L-G09RevD.01 24-Apr-2013

 --------------------
 #p B2PLYPD3/Def2QZVP
 --------------------

 ----------
 butane_opt
 ----------
 Symbolic Z-matrix:
 Charge =  0 Multiplicity = 1

                         Standard orientation:
 ---------------------------------------------------------------------
 Center     Atomic      Atomic             Coordinates (Angstroms)
 Number     Number       Type             X           Y           Z
 ---------------------------------------------------------------------
      1          6           0       -1.962593    0.141993   -0.259715
      2          6           0       -0.607064   -0.560193    0.264490
      3          1           0       -2.886844   -0.737217   -0.415211
      4          1           0       -1.754575    0.487658   -0.968715
      5          1           0       -2.528231    1.100369    0.779526
      6          6           0        0.533079    0.570526    0.112883
      7          1           0       -0.215598   -0.978095   -0.330468
      8          1           0       -0.785323   -1.452212    1.356577
      9          6           0        1.972015   -0.156765   -0.114924
     10          1           0        0.723389    1.448209    1.010874
     11          1           0        0.656229    1.188958   -0.919434
     12          1           0        2.206466   -0.465463    0.680345
     13          1           0        2.737175    0.562716    0.089802
     14          1           0        2.234691   -1.128284   -1.299706
 ---------------------------------------------------------------------

 SCF Done:  E(RB2PLYPD3) =  -157.652980411     A.U. after   11 cycles
 E2(B2PLYPD3) =    -0.2571158603D+00 E(B2PLYPD3) =    -0.15791009627139D+03

 The electronic state is 1-A.
 Alpha  occ. eigenvalues --  -10.66052 -10.63858 -10.63157 -10.61885  -0.91623
 Alpha  occ. eigenvalues --   -0.84489  -0.76085  -0.67381  -0.53284  -0.49228
 Alpha  occ. eigenvalues --   -0.46083  -0.44609  -0.41137  -0.38924  -0.37504
 Alpha  occ. eigenvalues --   -0.36767  -0.34673
 Alpha virt. eigenvalues --    0.03694   0.03702   0.05971   0.06682   0.09200
 Alpha virt. eigenvalues --    0.10374   0.11430   0.12943   0.13479   0.13865
 Alpha virt. eigenvalues --    0.15357   0.16362   0.17710   0.19092   0.20144

 Mulliken charges:
               1
     1  C   -0.323208
     2  C   -0.261705
     3  H    0.037297
     4  H    0.247369
     5  H    0.019277
     6  C   -0.064853
     7  H    0.276027
     8  H    0.032175
     9  C   -0.237815
    10  H    0.020718
    11  H    0.047523
    12  H    0.129509
    13  H    0.046430
    14  H    0.031256
 Sum of Mulliken charges =   0.00000

 Dipole moment (field-independent basis, Debye):
    X=              0.4876    Y=             -0.1122    Z=             -0.1091  Tot=              0.5121
 Quadrupole moment (field-independent basis, Debye-Ang):
   XX=            -30.9128   YY=            -29.7441   ZZ=            -28.8740
   XY=              1.3289   XZ=              1.1511   YZ=              0.3154

 Normal termination of Gaussian 09 at Wed Aug 26 14:34:54 2020.
