 Gaussian 09, Revision D.01,
 Gaussian 09:  ES64L-G09RevD.01 24-Apr-2013

 --------------------
 #p B2PLYPD3/Def2QZVP
 --------------------

 ----------
 butane_opt
 ----------
 Symbolic Z-matrix:
 Charge =  0 Multiplicity = 1

                         Standard orientation:
 ---------------------------------------------------------------------
 Center     Atomic      Atomic             Coordinates (Angstroms)
 Number     Number       Type             X           Y           Z
 ---------------------------------------------------------------------
      1          6           0        1.845446    0.075459   -0.238659
      2          6           0        0.587073   -0.376649    0.308120
      3          1           0        2.774660   -0.987506   -0.015674
      4          1           0        2.090860    0.706718    0.477083
      5          1           0        1.781321    0.582231   -1.246588
      6          6           0       -0.523722    0.595004    0.137465
      7          1           0        0.613325   -0.931844    1.292338
      8          1           0        0.407007   -1.270078   -0.519444
      9          6           0       -1.884689   -0.200449   -0.176677
     10          1           0       -0.218212    0.853342   -0.686360
     11          1           0       -0.629278    1.747569    1.099720
     12          1           0       -1.992051   -0.727897   -0.802963
     13          1           0       -2.575613    0.184539   -0.824697
     14          1           0       -2.396664   -0.717270    1.045083
 ---------------------------------------------------------------------

 SCF Done:  E(RB2PLYPD3) =  -157.771489255     A.U. after   11 cycles
 E2(B2PLYPD3) =    -0.2541796164D+00 E(B2PLYPD3) =    -0.15802566887173D+03

 The electronic state is 1-A.
 Alpha  occ. eigenvalues --  -10.63655 -10.62183 -10.62047 -10.60271  -0.94445
 Alpha  occ. eigenvalues --   -0.87157  -0.77530  -0.66046  -0.55223  -0.51866
 Alpha  occ. eigenvalues --   -0.47953  -0.44145  -0.43712  -0.39139  -0.37700
 Alpha  occ. eigenvalues --   -0.35757  -0.33832
 Alpha virt. eigenvalues --    0.03898   0.05077   0.05988   0.07845   0.09884
 Alpha virt. eigenvalues --    0.10659   0.11731   0.12320   0.14089   0.15440
 Alpha virt. eigenvalues --    0.15809   0.16795   0.18051   0.19500   0.20474

 Mulliken charges:
               1
     1  C   -0.168316
     2  C   -0.011129
     3  H    0.013539
     4  H    0.074814
     5  H    0.064103
     6  C   -0.166571
     7  H    0.044843
     8  H    0.012211
     9  C   -0.280236
    10  H    0.154756
    11  H    0.014382
    12  H    0.188218
    13  H    0.038610
    14  H    0.020777
 Sum of Mulliken charges =   0.00000

 Dipole moment (field-independent basis, Debye):
    X=              0.0296    Y=              0.0377    Z=             -0.7094  Tot=              0.7110
 Quadrupole moment (field-independent basis, Debye-Ang):
   XX=            -31.8855   YY=            -30.4526   ZZ=            -27.3351
   XY=              0.7877   XZ=              2.0247   YZ=             -0.2388

 Normal termination of Gaussian 09 at Wed Aug 26 16:17:42 2020.
