 Gaussian 09, Revision D.01,
 Gaussian 09:  ES64L-G09RevD.01 24-Apr-2013

 --------------------
 #p B2PLYPD3/Def2QZVP
 --------------------

 ----------
 butane_opt
 ----------
 Symbolic Z-matrix:
 Charge =  0 Multiplicity = 1

                         Standard orientation:
 ---------------------------------------------------------------------
 Center     Atomic      Atomic             Coordinates (Angstroms)
 Number     Number       Type             X           Y           Z
 ---------------------------------------------------------------------
      1          6           0        1.988125   -0.123411   -0.065493
      2          6           0        0.575883    0.505736    0.057490
      3          1           0        2.804205    0.662201   -0.059155
      4          1           0        2.024405   -1.156423   -1.099224
      5          1           0        2.194906   -0.541596    0.462710
      6          6           0       -0.603365   -0.496568    0.215479
      7          1           0        0.578661    0.936881   -0.680867
      8          1           0        0.570067    1.393694    1.063290
      9          6           0       -2.017577    0.082193   -0.216368
     10          1           0       -0.805993   -1.385180    1.460515
     11          1           0       -0.296518   -0.674065   -0.354918
     12          1           0       -2.566296    0.945364    0.716225
     13          1           0       -2.554546   -0.407871   -0.504460
     14          1           0       -1.607289    0.419299   -0.950761
 ---------------------------------------------------------------------

 SCF Done:  E(RB2PLYPD3) =  -157.203290821     A.U. after   12 cycles
 E2(B2PLYPD3) =    -0.2526733269D+00 E(B2PLYPD3) =    -0.15745596414786D+03

 The electronic state is 1-A.
 Alpha  occ. eigenvalues --  -10.62584 -10.61864 -10.60997 -10.58268  -0.98015
 Alpha  occ. eigenvalues --   -0.88449  -0.81779  -0.73324  -0.55411  -0.53749
 Alpha  occ. eigenvalues --   -0.50095  -0.46889  -0.45126  -0.42084  -0.38792
 Alpha  occ. eigenvalues --   -0.35045  -0.33906
 Alpha virt. eigenvalues --    0.04216   0.04865   0.06697   0.07187   0.10206
 Alpha virt. eigenvalues --    0.10875   0.12105   0.13024   0.13700   0.14524
 Alpha virt. eigenvalues --    0.16466   0.16544   0.17713   0.19279   0.21258

 Mulliken charges:
               1
     1  C   -0.533612
     2  C   -0.120245
     3  H    0.079149
     4  H   -0.003408
     5  H    0.397223
     6  C   -0.675435
     7  H    0.191196
     8  H   -0.001472
     9  C   -0.335396
    10  H    0.016916
    11  H    0.637119
    12  H    0.031886
    13  H    0.224911
    14  H    0.091167
 Sum of Mulliken charges =   0.00000

 Dipole moment (field-independent basis, Debye):
    X=              0.2363    Y=              0.0895    Z=             -0.4536  Tot=              0.5192
 Quadrupole moment (field-independent basis, Debye-Ang):
   XX=            -28.3993   YY=            -29.9789   ZZ=            -28.4848
   XY=              1.1358   XZ=              1.2174   YZ=              0.0834

 Normal termination of Gaussian 09 at Wed Aug 26 23:54:18 2020.
