 Gaussian 09, Revision D.01,
 Gaussian 09:  ES64L-G09RevD.01 24-Apr-2013

 --------------------
 #p B2PLYPD3/Def2QZVP
 --------------------

 ----------
 butane_opt
 ----------
 Symbolic Z-matrix:
 Charge =  0 Multiplicity = 1

                         Standard orientation:
 ---------------------------------------------------------------------
 Center     Atomic      Atomic             Coordinates (Angstroms)
 Number     Number       Type             X           Y           Z
 ---------------------------------------------------------------------
      1          6           0       -1.916834   -0.203845    0.102561
      2          6           0       -0.526045    0.572766   -0.319148
      3          1           0       -2.825501    0.718962    0.984965
      4          1           0       -1.667409   -0.688984    0.996003
      5          1           0       -2.683126   -1.003163   -0.760318
      6          6           0        0.557900   -0.485039   -0.095811
      7          1           0       -0.153404    1.322714    0.643963
      8          1           0       -0.416244    1.377466   -1.324365
      9          6           0        1.880423    0.086700    0.126010
     10          1           0        0.781021   -1.111018   -1.022744
     11          1           0        0.480289   -1.039599    0.745935
     12          1           0        2.140760    0.471442   -0.586653
     13          1           0        2.639063   -0.869730    0.245064
     14          1           0        1.731890    0.998414    1.196479
 ---------------------------------------------------------------------

 SCF Done:  E(RB2PLYPD3) =  -157.826161688     A.U. after   11 cycles
 E2(B2PLYPD3) =    -0.2577380387D+00 E(B2PLYPD3) =    -0.15808389972701D+03

 The electronic state is 1-A.
 Alpha  occ. eigenvalues --  -10.67949 -10.66873 -10.61453 -10.60689  -0.93107
 Alpha  occ. eigenvalues --   -0.82065  -0.71277  -0.66414  -0.54779  -0.49754
 Alpha  occ. eigenvalues --   -0.47193  -0.44510  -0.41272  -0.40231  -0.37555
 Alpha  occ. eigenvalues --   -0.36828  -0.33171
 Alpha virt. eigenvalues --    0.03202   0.04722   0.06442   0.06990   0.08329
 Alpha virt. eigenvalues --    0.09958   0.11052   0.12383   0.14150   0.14189
 Alpha virt. eigenvalues --    0.15116   0.16250   0.18221   0.18679   0.19131

 Mulliken charges:
               1
     1  C   -0.191361
     2  C   -0.069818
     3  H   -0.019044
     4  H    0.093247
     5  H    0.066586
     6  C   -0.015162
     7  H    0.030357
     8  H    0.049461
     9  C   -0.232199
    10  H    0.016178
    11  H    0.084785
    12  H    0.147357
    13  H    0.040477
    14  H   -0.000864
 Sum of Mulliken charges =   0.00000

 Dipole moment (field-independent basis, Debye):
    X=              0.7380    Y=             -0.6392    Z=             -0.4045  Tot=              1.0568
 Quadrupole moment (field-independent basis, Debye-Ang):
   XX=            -33.6138   YY=            -29.9337   ZZ=            -28.8759
   XY=              0.7728   XZ=             -0.7951   YZ=             -0.4726

 Normal termination of Gaussian 09 at Wed Aug 26 20:23:20 2020.
