 Gaussian 09, Revision D.01,
 Gaussian 09:  ES64L-G09RevD.01 24-Apr-2013

 --------------------
 #p B2PLYPD3/Def2QZVP
 --------------------

 ----------
 butane_opt
 ----------
 Symbolic Z-matrix:
 Charge =  0 Multiplicity = 1

                         Standard orientation:
 ---------------------------------------------------------------------
 Center     Atomic      Atomic             Coordinates (Angstroms)
 Number     Number       Type             X           Y           Z
 ---------------------------------------------------------------------
      1          6           0        1.921003    0.133825   -0.068956
      2          6           0        0.516019   -0.559845    0.087707
      3          1           0        2.670225   -0.482638   -0.114218
      4          1           0        2.166062    0.584530    0.739891
      5          1           0        2.101937    0.961948   -0.983547
      6          6           0       -0.560430    0.473272    0.129780
      7          1           0        0.490439   -1.118394    0.878795
      8          1           0        0.425494   -1.145846   -0.802575
      9          6           0       -1.874078   -0.099158   -0.093311
     10          1           0       -0.543525    1.049842   -0.638369
     11          1           0       -0.497252    1.183290    1.032823
     12          1           0       -1.844757   -0.756897   -0.965616
     13          1           0       -2.761077    0.843376   -0.250676
     14          1           0       -2.222636   -0.807771    0.772177
 ---------------------------------------------------------------------

 SCF Done:  E(RB2PLYPD3) =  -158.027249931     A.U. after   11 cycles
 E2(B2PLYPD3) =    -0.2466154040D+00 E(B2PLYPD3) =    -0.15827386533515D+03

 The electronic state is 1-A.
 Alpha  occ. eigenvalues --  -10.62074 -10.59262 -10.58567 -10.58370  -0.93124
 Alpha  occ. eigenvalues --   -0.84297  -0.73828  -0.67735  -0.55732  -0.50287
 Alpha  occ. eigenvalues --   -0.48178  -0.47920  -0.42933  -0.41185  -0.39185
 Alpha  occ. eigenvalues --   -0.37786  -0.37068
 Alpha virt. eigenvalues --    0.05643   0.06583   0.08068   0.08958   0.10924
 Alpha virt. eigenvalues --    0.11548   0.12696   0.14080   0.14662   0.15286
 Alpha virt. eigenvalues --    0.15771   0.16456   0.19833   0.20266   0.22191

 Mulliken charges:
               1
     1  C   -0.131786
     2  C   -0.058969
     3  H    0.038353
     4  H    0.043598
     5  H    0.017438
     6  C   -0.040415
     7  H    0.057909
     8  H    0.033857
     9  C   -0.156468
    10  H    0.073050
    11  H    0.020057
    12  H    0.053890
    13  H    0.022126
    14  H    0.027362
 Sum of Mulliken charges =   0.00000

 Dipole moment (field-independent basis, Debye):
    X=              0.4058    Y=             -0.1858    Z=              0.0918  Tot=              0.4557
 Quadrupole moment (field-independent basis, Debye-Ang):
   XX=            -30.3013   YY=            -28.5155   ZZ=            -28.1619
   XY=             -0.4478   XZ=              0.6455   YZ=             -0.1900

 Normal termination of Gaussian 09 at Wed Aug 26 19:25:33 2020.
