 Gaussian 09, Revision D.01,
 Gaussian 09:  ES64L-G09RevD.01 24-Apr-2013

 --------------------
 #p B2PLYPD3/Def2QZVP
 --------------------

 ----------
 butane_opt
 ----------
 Symbolic Z-matrix:
 Charge =  0 Multiplicity = 1

                         Standard orientation:
 ---------------------------------------------------------------------
 Center     Atomic      Atomic             Coordinates (Angstroms)
 Number     Number       Type             X           Y           Z
 ---------------------------------------------------------------------
      1          6           0        2.025036   -0.168784   -0.068300
      2          6           0        0.563048    0.618626    0.121008
      3          1           0        2.696131    0.431341   -0.533862
      4          1           0        2.074326   -0.763976   -0.908614
      5          1           0        2.413467   -0.757871    0.785448
      6          6           0       -0.631239   -0.442034    0.070989
      7          1           0        0.286549    0.734036   -0.333780
      8          1           0        0.232427    1.580968    1.136662
      9          6           0       -1.917663    0.004319   -0.106690
     10          1           0       -0.683570   -1.033356    1.107740
     11          1           0       -0.517955   -1.071058   -0.768550
     12          1           0       -2.042936    0.297722    0.487399
     13          1           0       -2.654217   -0.643130    0.185489
     14          1           0       -2.039312    1.152566   -1.259970
 ---------------------------------------------------------------------

 SCF Done:  E(RB2PLYPD3) =  -156.929646526     A.U. after   12 cycles
 E2(B2PLYPD3) =    -0.2535741286D+00 E(B2PLYPD3) =    -0.15718322065485D+03

 The electronic state is 1-A.
 Alpha  occ. eigenvalues --  -10.63399 -10.61354 -10.60614 -10.58706  -0.98588
 Alpha  occ. eigenvalues --   -0.90413  -0.80256  -0.71056  -0.55053  -0.51631
 Alpha  occ. eigenvalues --   -0.48990  -0.47311  -0.44700  -0.40969  -0.39314
 Alpha  occ. eigenvalues --   -0.36362  -0.33245
 Alpha virt. eigenvalues --    0.03593   0.05418   0.06302   0.07524   0.10493
 Alpha virt. eigenvalues --    0.10832   0.12126   0.13477   0.13672   0.15094
 Alpha virt. eigenvalues --    0.15577   0.16848   0.18130   0.18921   0.21879

 Mulliken charges:
               1
     1  C   -0.095861
     2  C   -0.934151
     3  H    0.047643
     4  H    0.037575
     5  H    0.065861
     6  C    0.054220
     7  H    0.811141
     8  H    0.034895
     9  C   -0.591358
    10  H    0.002374
    11  H    0.050477
    12  H    0.459859
    13  H    0.065295
    14  H   -0.007970
 Sum of Mulliken charges =   0.00000

 Dipole moment (field-independent basis, Debye):
    X=              0.1482    Y=             -0.5840    Z=              0.3189  Tot=              0.6817
 Quadrupole moment (field-independent basis, Debye-Ang):
   XX=            -28.0935   YY=            -29.7319   ZZ=            -27.8169
   XY=             -0.0172   XZ=             -3.0367   YZ=             -0.1492

 Normal termination of Gaussian 09 at Wed Aug 26 16:10:31 2020.
