 Gaussian 09, Revision D.01,
 Gaussian 09:  ES64L-G09RevD.01 24-Apr-2013

 --------------------
 #p B2PLYPD3/Def2QZVP
 --------------------

 ----------
 butane_opt
 ----------
 Symbolic Z-matrix:
 Charge =  0 Multiplicity = 1

                         Standard orientation:
 ---------------------------------------------------------------------
 Center     Atomic      Atomic             Coordinates (Angstroms)
 Number     Number       Type             X           Y           Z
 ---------------------------------------------------------------------
      1          6           0        1.903999   -0.148243   -0.142161
      2          6           0        0.543710    0.563678    0.165270
      3          1           0        2.678555    0.552066   -0.446236
      4          1           0        2.073926   -0.647221   -0.804198
      5          1           0        2.324821   -0.941751    0.866746
      6          6           0       -0.555071   -0.453426    0.096613
      7          1           0        0.296328    1.017787   -0.622174
      8          1           0        0.409745    1.428935    1.173156
      9          6           0       -1.884034    0.065199   -0.124615
     10          1           0       -0.633586   -1.276076    1.045779
     11          1           0       -0.395897   -1.053665   -0.695335
     12          1           0       -2.120894    0.694817    0.751982
     13          1           0       -2.739670   -0.774770   -0.150342
     14          1           0       -1.944948    0.836630   -1.090018
 ---------------------------------------------------------------------

 SCF Done:  E(RB2PLYPD3) =  -157.930136568     A.U. after   11 cycles
 E2(B2PLYPD3) =    -0.2498685027D+00 E(B2PLYPD3) =    -0.15818000507027D+03

 The electronic state is 1-A.
 Alpha  occ. eigenvalues --  -10.62365 -10.62136 -10.60642 -10.60327  -0.93429
 Alpha  occ. eigenvalues --   -0.84622  -0.75220  -0.66439  -0.53953  -0.51495
 Alpha  occ. eigenvalues --   -0.48646  -0.45645  -0.42841  -0.40565  -0.38134
 Alpha  occ. eigenvalues --   -0.37380  -0.36079
 Alpha virt. eigenvalues --    0.04974   0.06320   0.07642   0.07805   0.10968
 Alpha virt. eigenvalues --    0.11269   0.12491   0.12628   0.14618   0.15147
 Alpha virt. eigenvalues --    0.15709   0.16466   0.19202   0.19938   0.20684

 Mulliken charges:
               1
     1  C   -0.235422
     2  C   -0.096726
     3  H    0.031725
     4  H    0.136059
     5  H    0.017366
     6  C   -0.009382
     7  H    0.114508
     8  H    0.025858
     9  C   -0.154481
    10  H   -0.004404
    11  H    0.061217
    12  H    0.047015
    13  H    0.048399
    14  H    0.018268
 Sum of Mulliken charges =   0.00000

 Dipole moment (field-independent basis, Debye):
    X=             -0.0487    Y=              0.0237    Z=             -0.6849  Tot=              0.6871
 Quadrupole moment (field-independent basis, Debye-Ang):
   XX=            -30.4655   YY=            -29.1856   ZZ=            -28.6727
   XY=              0.2435   XZ=             -1.6521   YZ=              0.1471

 Normal termination of Gaussian 09 at Wed Aug 26 15:24:14 2020.
