 Gaussian 09, Revision D.01,
 Gaussian 09:  ES64L-G09RevD.01 24-Apr-2013

 --------------------
 #p B2PLYPD3/Def2QZVP
 --------------------

 ----------
 butane_opt
 ----------
 Symbolic Z-matrix:
 Charge =  0 Multiplicity = 1

                         Standard orientation:
 ---------------------------------------------------------------------
 Center     Atomic      Atomic             Coordinates (Angstroms)
 Number     Number       Type             X           Y           Z
 ---------------------------------------------------------------------
      1          6           0       -1.892265    0.058556   -0.184391
      2          6           0       -0.553727   -0.439455    0.145615
      3          1           0       -2.688475   -0.754837   -0.194652
      4          1           0       -1.721376    0.719981   -1.065292
      5          1           0       -1.849824    0.512314    0.623182
      6          6           0        0.469774    0.540933    0.252814
      7          1           0       -0.367318   -0.939181   -0.623624
      8          1           0       -0.724671   -1.038766    0.914121
      9          6           0        1.992757   -0.160104   -0.185476
     10          1           0        0.362069    1.518420    1.274744
     11          1           0        0.119326    0.964696   -0.421728
     12          1           0        2.446624   -1.207126    0.939883
     13          1           0        2.615697    0.615787   -0.905916
     14          1           0        1.708710   -0.390870   -0.712092
 ---------------------------------------------------------------------

 SCF Done:  E(RB2PLYPD3) =  -157.446971239     A.U. after   12 cycles
 E2(B2PLYPD3) =    -0.2539160184D+00 E(B2PLYPD3) =    -0.15770088725694D+03

 The electronic state is 1-A.
 Alpha  occ. eigenvalues --  -10.63686 -10.61851 -10.58274 -10.56714  -0.97910
 Alpha  occ. eigenvalues --   -0.88497  -0.78314  -0.69461  -0.58489  -0.51053
 Alpha  occ. eigenvalues --   -0.48073  -0.46761  -0.43059  -0.40394  -0.39102
 Alpha  occ. eigenvalues --   -0.37542  -0.34587
 Alpha virt. eigenvalues --    0.02012   0.05963   0.07153   0.07809   0.09876
 Alpha virt. eigenvalues --    0.11007   0.12342   0.12587   0.14129   0.15270
 Alpha virt. eigenvalues --    0.16614   0.16901   0.17646   0.19324   0.19803

 Mulliken charges:
               1
     1  C   -0.192684
     2  C   -0.074266
     3  H    0.050559
     4  H    0.035891
     5  H    0.099769
     6  C   -0.186592
     7  H    0.072889
     8  H    0.023985
     9  C   -0.819850
    10  H   -0.001059
    11  H    0.184490
    12  H    0.062318
    13  H    0.073384
    14  H    0.671167
 Sum of Mulliken charges =   0.00000

 Dipole moment (field-independent basis, Debye):
    X=             -0.4084    Y=             -0.5498    Z=             -0.6730  Tot=              0.9601
 Quadrupole moment (field-independent basis, Debye-Ang):
   XX=            -31.4146   YY=            -29.1658   ZZ=            -27.5807
   XY=              0.5940   XZ=             -1.1188   YZ=             -1.1886

 Normal termination of Gaussian 09 at Wed Aug 26 22:33:19 2020.
