 Gaussian 09, Revision D.01,
 Gaussian 09:  ES64L-G09RevD.01 24-Apr-2013

 --------------------
 #p B2PLYPD3/Def2QZVP
 --------------------

 ----------
 butane_opt
 ----------
 Symbolic Z-matrix:
 Charge =  0 Multiplicity = 1

                         Standard orientation:
 ---------------------------------------------------------------------
 Center     Atomic      Atomic             Coordinates (Angstroms)
 Number     Number       Type             X           Y           Z
 ---------------------------------------------------------------------
      1          6           0       -1.951503   -0.111180   -0.225651
      2          6           0       -0.550041    0.572509    0.258791
      3          1           0       -2.603097    0.548680   -0.583479
      4          1           0       -2.552491   -1.050169    0.749411
      5          1           0       -1.785678   -0.628814   -1.026092
      6          6           0        0.554426   -0.527451    0.099492
      7          1           0       -0.718580    1.610824    1.485490
      8          1           0       -0.399796    0.778294   -0.334243
      9          6           0        1.942086    0.141776   -0.144117
     10          1           0        0.506882   -1.162593   -0.623215
     11          1           0        0.509679   -1.487148    1.110336
     12          1           0        1.915066    1.300522   -1.196280
     13          1           0        2.914784   -0.810447    0.006352
     14          1           0        2.243420    0.446923    0.480634
 ---------------------------------------------------------------------

 SCF Done:  E(RB2PLYPD3) =  -157.302768720     A.U. after   12 cycles
 E2(B2PLYPD3) =    -0.2577277442D+00 E(B2PLYPD3) =    -0.15756049646408D+03

 The electronic state is 1-A.
 Alpha  occ. eigenvalues --  -10.64167 -10.63779 -10.63270 -10.62278  -0.95651
 Alpha  occ. eigenvalues --   -0.85795  -0.77305  -0.71942  -0.53023  -0.50018
 Alpha  occ. eigenvalues --   -0.48911  -0.44662  -0.41761  -0.38351  -0.37468
 Alpha  occ. eigenvalues --   -0.36742  -0.35109
 Alpha virt. eigenvalues --    0.02091   0.02279   0.05296   0.05948   0.09831
 Alpha virt. eigenvalues --    0.10207   0.11359   0.12528   0.12832   0.14720
 Alpha virt. eigenvalues --    0.15317   0.15687   0.17541   0.18934   0.20557

 Mulliken charges:
               1
     1  C   -0.131326
     2  C   -0.876047
     3  H    0.062279
     4  H    0.012759
     5  H    0.072026
     6  C   -0.004842
     7  H    0.048336
     8  H    0.793208
     9  C   -0.434314
    10  H    0.101077
    11  H   -0.010497
    12  H    0.021463
    13  H    0.014055
    14  H    0.331822
 Sum of Mulliken charges =   0.00000

 Dipole moment (field-independent basis, Debye):
    X=             -0.0915    Y=              0.3010    Z=             -0.4285  Tot=              0.5316
 Quadrupole moment (field-independent basis, Debye-Ang):
   XX=            -31.4441   YY=            -29.1000   ZZ=            -29.1231
   XY=             -0.6198   XZ=              2.2940   YZ=              0.1745

 Normal termination of Gaussian 09 at Wed Aug 26 18:45:04 2020.
