 Gaussian 09, Revision D.01,
 Gaussian 09:  ES64L-G09RevD.01 24-Apr-2013

 --------------------
 #p B2PLYPD3/Def2QZVP
 --------------------

 ----------
 butane_opt
 ----------
 Symbolic Z-matrix:
 Charge =  0 Multiplicity = 1

                         Standard orientation:
 ---------------------------------------------------------------------
 Center     Atomic      Atomic             Coordinates (Angstroms)
 Number     Number       Type             X           Y           Z
 ---------------------------------------------------------------------
      1          6           0        2.011854    0.022084   -0.248576
      2          6           0        0.609001   -0.386685    0.314788
      3          1           0        2.923978   -0.926630   -0.268331
      4          1           0        2.281804    1.111606    0.623636
      5          1           0        1.855026    0.430365   -1.215413
      6          6           0       -0.548814    0.602931    0.031678
      7          1           0        0.752296   -1.070634    1.711545
      8          1           0        0.258261   -0.851528   -0.242712
      9          6           0       -2.048182   -0.195996   -0.130872
     10          1           0       -0.632427    0.912026   -0.831243
     11          1           0       -0.622048    1.550859    0.829142
     12          1           0       -2.072073   -1.345899   -1.054826
     13          1           0       -2.718968    0.478838    0.102860
     14          1           0       -2.168997   -0.543002    0.543233
 ---------------------------------------------------------------------

 SCF Done:  E(RB2PLYPD3) =  -157.609176352     A.U. after   11 cycles
 E2(B2PLYPD3) =    -0.2554895647D+00 E(B2PLYPD3) =    -0.15786466591658D+03

 The electronic state is 1-A.
 Alpha  occ. eigenvalues --  -10.65852 -10.62609 -10.62425 -10.59904  -0.93241
 Alpha  occ. eigenvalues --   -0.85917  -0.75664  -0.69186  -0.53525  -0.49902
 Alpha  occ. eigenvalues --   -0.47135  -0.45786  -0.42502  -0.39413  -0.37609
 Alpha  occ. eigenvalues --   -0.35735  -0.35136
 Alpha virt. eigenvalues --    0.03316   0.04214   0.06073   0.07549   0.09636
 Alpha virt. eigenvalues --    0.10384   0.11242   0.12667   0.13885   0.14370
 Alpha virt. eigenvalues --    0.14898   0.16034   0.17919   0.19228   0.19803

 Mulliken charges:
               1
     1  C   -0.177834
     2  C   -0.317573
     3  H    0.059412
     4  H    0.022797
     5  H    0.076490
     6  C   -0.117075
     7  H    0.001435
     8  H    0.331153
     9  C   -0.433890
    10  H    0.130973
    11  H    0.015015
    12  H    0.041514
    13  H    0.057462
    14  H    0.310120
 Sum of Mulliken charges =   0.00000

 Dipole moment (field-independent basis, Debye):
    X=             -0.5296    Y=             -0.1287    Z=             -0.3851  Tot=              0.6673
 Quadrupole moment (field-independent basis, Debye-Ang):
   XX=            -30.6560   YY=            -29.3747   ZZ=            -29.0959
   XY=             -1.1538   XZ=             -1.7360   YZ=              0.6895

 Normal termination of Gaussian 09 at Wed Aug 26 22:35:30 2020.
