 Gaussian 09, Revision D.01,
 Gaussian 09:  ES64L-G09RevD.01 24-Apr-2013

 --------------------
 #p B2PLYPD3/Def2QZVP
 --------------------

 ----------
 butane_opt
 ----------
 Symbolic Z-matrix:
 Charge =  0 Multiplicity = 1

                         Standard orientation:
 ---------------------------------------------------------------------
 Center     Atomic      Atomic             Coordinates (Angstroms)
 Number     Number       Type             X           Y           Z
 ---------------------------------------------------------------------
      1          6           0       -1.868711    0.021436    0.092064
      2          6           0       -0.604237   -0.436833   -0.170892
      3          1           0       -2.772915   -1.039814    0.193226
      4          1           0       -1.981050    0.698408   -0.682348
      5          1           0       -1.911522    0.888871    1.217305
      6          6           0        0.512172    0.647744   -0.180529
      7          1           0       -0.717109   -0.875054   -0.877683
      8          1           0       -0.070738   -1.158693    0.778907
      9          6           0        1.953772   -0.186876    0.135422
     10          1           0        0.274364    1.156922    0.584798
     11          1           0        0.533080    1.396905   -0.996390
     12          1           0        1.513428   -0.644700    0.706985
     13          1           0        2.633111    0.308110    0.848295
     14          1           0        2.541379   -1.003780   -1.029489
 ---------------------------------------------------------------------

 SCF Done:  E(RB2PLYPD3) =  -157.762517993     A.U. after   11 cycles
 E2(B2PLYPD3) =    -0.2541518110D+00 E(B2PLYPD3) =    -0.15801666980351D+03

 The electronic state is 1-A.
 Alpha  occ. eigenvalues --  -10.64825 -10.62251 -10.61237 -10.59656  -0.95278
 Alpha  occ. eigenvalues --   -0.85544  -0.74128  -0.68476  -0.56216  -0.50747
 Alpha  occ. eigenvalues --   -0.48124  -0.46257  -0.42720  -0.39915  -0.37829
 Alpha  occ. eigenvalues --   -0.35935  -0.35424
 Alpha virt. eigenvalues --    0.03758   0.04264   0.07608   0.07948   0.09779
 Alpha virt. eigenvalues --    0.10318   0.11363   0.12302   0.13856   0.14670
 Alpha virt. eigenvalues --    0.16251   0.16869   0.17690   0.19052   0.19925

 Mulliken charges:
               1
     1  C   -0.187185
     2  C   -0.115645
     3  H    0.047096
     4  H    0.090072
     5  H   -0.005441
     6  C   -0.080949
     7  H    0.160570
     8  H   -0.008024
     9  C   -0.318556
    10  H    0.094025
    11  H    0.025494
    12  H    0.214348
    13  H    0.052112
    14  H    0.032083
 Sum of Mulliken charges =   0.00000

 Dipole moment (field-independent basis, Debye):
    X=             -0.1725    Y=              0.1298    Z=             -0.1716  Tot=              0.2757
 Quadrupole moment (field-independent basis, Debye-Ang):
   XX=            -32.1138   YY=            -29.3655   ZZ=            -28.4653
   XY=              0.5991   XZ=              1.8737   YZ=              0.4378

 Normal termination of Gaussian 09 at Wed Aug 26 14:06:15 2020.
