 Gaussian 09, Revision D.01,
 Gaussian 09:  ES64L-G09RevD.01 24-Apr-2013

 --------------------
 #p B2PLYPD3/Def2QZVP
 --------------------

 ----------
 butane_opt
 ----------
 Symbolic Z-matrix:
 Charge =  0 Multiplicity = 1

                         Standard orientation:
 ---------------------------------------------------------------------
 Center     Atomic      Atomic             Coordinates (Angstroms)
 Number     Number       Type             X           Y           Z
 ---------------------------------------------------------------------
      1          6           0        1.962084    0.142232   -0.130027
      2          6           0        0.520197   -0.548442    0.095072
      3          1           0        2.708850   -0.552245   -0.162965
      4          1           0        2.182198    0.756760    0.837805
      5          1           0        1.907977    0.835327   -1.017085
      6          6           0       -0.551485    0.444958    0.194825
      7          1           0        0.659346   -1.238097    0.895537
      8          1           0        0.276959   -1.125578   -0.779862
      9          6           0       -1.951713   -0.101757   -0.110624
     10          1           0       -0.389619    1.200248   -0.694912
     11          1           0       -0.442608    1.156098    1.210904
     12          1           0       -1.743526   -0.622314   -1.020278
     13          1           0       -2.807394    0.827180   -0.375904
     14          1           0       -2.226680   -0.859330    0.811285
 ---------------------------------------------------------------------

 SCF Done:  E(RB2PLYPD3) =  -158.061422890     A.U. after   11 cycles
 E2(B2PLYPD3) =    -0.2497237361D+00 E(B2PLYPD3) =    -0.15831114662577D+03

 The electronic state is 1-A.
 Alpha  occ. eigenvalues --  -10.63403 -10.62717 -10.60822 -10.60539  -0.91408
 Alpha  occ. eigenvalues --   -0.81853  -0.72289  -0.64789  -0.54081  -0.49190
 Alpha  occ. eigenvalues --   -0.47891  -0.46713  -0.42241  -0.40844  -0.38782
 Alpha  occ. eigenvalues --   -0.37516  -0.35737
 Alpha virt. eigenvalues --    0.05242   0.06545   0.07860   0.08164   0.10536
 Alpha virt. eigenvalues --    0.11475   0.12616   0.13436   0.14423   0.14889
 Alpha virt. eigenvalues --    0.15653   0.16189   0.19303   0.19578   0.21021

 Mulliken charges:
               1
     1  C   -0.151295
     2  C   -0.039387
     3  H    0.056679
     4  H    0.033223
     5  H    0.047142
     6  C   -0.033935
     7  H    0.035004
     8  H    0.032626
     9  C   -0.174505
    10  H    0.023081
    11  H    0.016104
    12  H    0.069684
    13  H    0.041973
    14  H    0.043605
 Sum of Mulliken charges =   0.00000

 Dipole moment (field-independent basis, Debye):
    X=              0.2586    Y=             -0.2738    Z=             -0.1799  Tot=              0.4174
 Quadrupole moment (field-independent basis, Debye-Ang):
   XX=            -30.7443   YY=            -29.4487   ZZ=            -28.5108
   XY=             -0.9070   XZ=              0.5404   YZ=             -0.5211

 Normal termination of Gaussian 09 at Wed Aug 26 11:23:05 2020.
