 Gaussian 09, Revision D.01,
 Gaussian 09:  ES64L-G09RevD.01 24-Apr-2013

 --------------------
 #p B2PLYPD3/Def2QZVP
 --------------------

 ----------
 butane_opt
 ----------
 Symbolic Z-matrix:
 Charge =  0 Multiplicity = 1

                         Standard orientation:
 ---------------------------------------------------------------------
 Center     Atomic      Atomic             Coordinates (Angstroms)
 Number     Number       Type             X           Y           Z
 ---------------------------------------------------------------------
      1          6           0       -1.916325    0.085051   -0.193654
      2          6           0       -0.627660   -0.496610    0.260604
      3          1           0       -2.599848   -0.765329   -0.454609
      4          1           0       -1.868780    0.572346   -0.957892
      5          1           0       -2.597858    0.607311    0.597325
      6          6           0        0.525572    0.608071    0.151366
      7          1           0       -0.349284   -1.213736   -0.564853
      8          1           0       -0.729179   -1.013490    1.126423
      9          6           0        2.043670   -0.108907   -0.144317
     10          1           0        0.412329    1.443653    0.903401
     11          1           0        0.138369    1.022962   -0.616249
     12          1           0        2.520232   -0.772953    0.880792
     13          1           0        2.660762    0.377330   -0.460935
     14          1           0        2.261713   -0.783727   -0.897400
 ---------------------------------------------------------------------

 SCF Done:  E(RB2PLYPD3) =  -157.937384425     A.U. after   11 cycles
 E2(B2PLYPD3) =    -0.2473669587D+00 E(B2PLYPD3) =    -0.15818475138418D+03

 The electronic state is 1-A.
 Alpha  occ. eigenvalues --  -10.61547 -10.60151 -10.59850 -10.58474  -0.91151
 Alpha  occ. eigenvalues --   -0.84199  -0.76924  -0.69267  -0.54045  -0.50090
 Alpha  occ. eigenvalues --   -0.47671  -0.46257  -0.43840  -0.42596  -0.39224
 Alpha  occ. eigenvalues --   -0.37522  -0.35904
 Alpha virt. eigenvalues --    0.05641   0.06517   0.08581   0.09318   0.10361
 Alpha virt. eigenvalues --    0.12311   0.12340   0.13323   0.15451   0.15620
 Alpha virt. eigenvalues --    0.16406   0.17361   0.18955   0.20078   0.20494

 Mulliken charges:
               1
     1  C   -0.172024
     2  C   -0.012734
     3  H    0.024770
     4  H    0.082006
     5  H    0.024726
     6  C   -0.117411
     7  H    0.033272
     8  H    0.052704
     9  C   -0.231517
    10  H    0.038920
    11  H    0.085379
    12  H    0.018847
    13  H    0.141545
    14  H    0.031518
 Sum of Mulliken charges =   0.00000

 Dipole moment (field-independent basis, Debye):
    X=             -0.1271    Y=              0.0914    Z=             -0.5226  Tot=              0.5455
 Quadrupole moment (field-independent basis, Debye-Ang):
   XX=            -28.6516   YY=            -28.7565   ZZ=            -27.9948
   XY=             -0.2273   XZ=             -1.2307   YZ=             -0.1617

 Normal termination of Gaussian 09 at Wed Aug 26 21:47:34 2020.
