 Gaussian 09, Revision D.01,
 Gaussian 09:  ES64L-G09RevD.01 24-Apr-2013

 --------------------
 #p B2PLYPD3/Def2QZVP
 --------------------

 ----------
 butane_opt
 ----------
 Symbolic Z-matrix:
 Charge =  0 Multiplicity = 1

                         Standard orientation:
 ---------------------------------------------------------------------
 Center     Atomic      Atomic             Coordinates (Angstroms)
 Number     Number       Type             X           Y           Z
 ---------------------------------------------------------------------
      1          6           0        2.017035   -0.123670    0.147037
      2          6           0        0.477962    0.629565   -0.258196
      3          1           0        2.521733    0.247113    0.706753
      4          1           0        2.684777   -0.782789   -0.853882
      5          1           0        1.793017   -0.798594    0.944418
      6          6           0       -0.619353   -0.461682   -0.154825
      7          1           0        0.614772    1.214575   -1.153789
      8          1           0        0.262689    1.122123    0.656448
      9          6           0       -1.921909    0.057729    0.181612
     10          1           0       -0.043089   -1.056990    0.600150
     11          1           0       -0.741977   -1.065938   -1.058487
     12          1           0       -1.812286    0.809292    1.332171
     13          1           0       -2.765479   -0.885662    0.008743
     14          1           0       -2.236572    0.585221   -0.676289
 ---------------------------------------------------------------------

 SCF Done:  E(RB2PLYPD3) =  -157.904917036     A.U. after   11 cycles
 E2(B2PLYPD3) =    -0.2525175251D+00 E(B2PLYPD3) =    -0.15815743456102D+03

 The electronic state is 1-A.
 Alpha  occ. eigenvalues --  -10.64013 -10.62450 -10.60651 -10.60373  -0.91624
 Alpha  occ. eigenvalues --   -0.83745  -0.75160  -0.65757  -0.55344  -0.49423
 Alpha  occ. eigenvalues --   -0.47226  -0.45927  -0.42233  -0.40868  -0.37921
 Alpha  occ. eigenvalues --   -0.36142  -0.35448
 Alpha virt. eigenvalues --    0.04541   0.05962   0.07542   0.08705   0.10572
 Alpha virt. eigenvalues --    0.10779   0.11876   0.12493   0.13814   0.15222
 Alpha virt. eigenvalues --    0.16226   0.16658   0.18040   0.19070   0.20392

 Mulliken charges:
               1
     1  C   -0.286917
     2  C   -0.088181
     3  H    0.164984
     4  H    0.032650
     5  H    0.030821
     6  C   -0.015682
     7  H    0.058478
     8  H    0.065515
     9  C   -0.165379
    10  H    0.048201
    11  H    0.029584
    12  H    0.028235
    13  H    0.029288
    14  H    0.068403
 Sum of Mulliken charges =   0.00000

 Dipole moment (field-independent basis, Debye):
    X=             -0.0730    Y=              0.1249    Z=             -0.0520  Tot=              0.1537
 Quadrupole moment (field-independent basis, Debye-Ang):
   XX=            -31.0084   YY=            -30.1896   ZZ=            -27.6422
   XY=              0.1990   XZ=              2.2209   YZ=              0.4338

 Normal termination of Gaussian 09 at Wed Aug 26 23:53:11 2020.
