 Gaussian 09, Revision D.01,
 Gaussian 09:  ES64L-G09RevD.01 24-Apr-2013

 --------------------
 #p B2PLYPD3/Def2QZVP
 --------------------

 ----------
 butane_opt
 ----------
 Symbolic Z-matrix:
 Charge =  0 Multiplicity = 1

                         Standard orientation:
 ---------------------------------------------------------------------
 Center     Atomic      Atomic             Coordinates (Angstroms)
 Number     Number       Type             X           Y           Z
 ---------------------------------------------------------------------
      1          6           0       -1.922367   -0.102396   -0.100189
      2          6           0       -0.539399    0.413143    0.026069
      3          1           0       -2.768618    0.769744   -0.141442
      4          1           0       -1.982102   -0.585873    0.844174
      5          1           0       -1.971349   -0.809662   -1.034321
      6          6           0        0.576507   -0.463848    0.299185
      7          1           0       -0.557641    1.228272    0.785787
      8          1           0       -0.191276    1.020028   -0.878069
      9          6           0        1.914144    0.070638   -0.187165
     10          1           0        0.266401   -1.075966   -0.383870
     11          1           0        0.384723   -0.953194    1.234547
     12          1           0        1.521817    0.276567   -0.944048
     13          1           0        2.646959   -0.666451   -0.578644
     14          1           0        2.477772    1.291308    0.868492
 ---------------------------------------------------------------------

 SCF Done:  E(RB2PLYPD3) =  -157.904196669     A.U. after   11 cycles
 E2(B2PLYPD3) =    -0.2523906376D+00 E(B2PLYPD3) =    -0.15815658730648D+03

 The electronic state is 1-A.
 Alpha  occ. eigenvalues --  -10.63223 -10.62264 -10.60421 -10.59267  -0.95943
 Alpha  occ. eigenvalues --   -0.85420  -0.74742  -0.66466  -0.56345  -0.50960
 Alpha  occ. eigenvalues --   -0.49773  -0.46259  -0.42752  -0.41819  -0.38230
 Alpha  occ. eigenvalues --   -0.37334  -0.33982
 Alpha virt. eigenvalues --    0.02105   0.05589   0.07768   0.08266   0.09685
 Alpha virt. eigenvalues --    0.10657   0.12293   0.13062   0.14249   0.15350
 Alpha virt. eigenvalues --    0.16124   0.16268   0.18639   0.19255   0.20658

 Mulliken charges:
               1
     1  C   -0.162728
     2  C   -0.006545
     3  H    0.051811
     4  H    0.064305
     5  H    0.034577
     6  C   -0.074767
     7  H    0.010202
     8  H    0.000865
     9  C   -0.258719
    10  H    0.070390
    11  H    0.033273
    12  H    0.177431
    13  H    0.061445
    14  H   -0.001540
 Sum of Mulliken charges =   0.00000

 Dipole moment (field-independent basis, Debye):
    X=             -0.5259    Y=             -0.5674    Z=             -0.4270  Tot=              0.8836
 Quadrupole moment (field-independent basis, Debye-Ang):
   XX=            -31.3235   YY=            -30.1055   ZZ=            -28.2454
   XY=             -1.4996   XZ=             -1.2090   YZ=              0.7317

 Normal termination of Gaussian 09 at Wed Aug 26 12:41:19 2020.
