 Gaussian 09, Revision D.01,
 Gaussian 09:  ES64L-G09RevD.01 24-Apr-2013

 --------------------
 #p B2PLYPD3/Def2QZVP
 --------------------

 ----------
 butane_opt
 ----------
 Symbolic Z-matrix:
 Charge =  0 Multiplicity = 1

                         Standard orientation:
 ---------------------------------------------------------------------
 Center     Atomic      Atomic             Coordinates (Angstroms)
 Number     Number       Type             X           Y           Z
 ---------------------------------------------------------------------
      1          6           0        1.916656    0.021995    0.063740
      2          6           0        0.649374   -0.495581   -0.076360
      3          1           0        2.631896   -0.582480   -0.065212
      4          1           0        2.023325    1.055928    1.202808
      5          1           0        2.077895    0.530172   -0.727155
      6          6           0       -0.533621    0.651887   -0.116895
      7          1           0        0.636301   -1.154122    0.804913
      8          1           0        0.529570   -1.148953   -0.916253
      9          6           0       -2.024662   -0.138673    0.131054
     10          1           0       -0.339723    1.509509   -0.971909
     11          1           0       -0.447114    0.784636    0.425249
     12          1           0       -2.509999   -1.085938   -0.805371
     13          1           0       -2.737949    0.512253    0.197170
     14          1           0       -1.910682   -0.658772    0.846526
 ---------------------------------------------------------------------

 SCF Done:  E(RB2PLYPD3) =  -157.294075586     A.U. after   11 cycles
 E2(B2PLYPD3) =    -0.2502769233D+00 E(B2PLYPD3) =    -0.15754435250963D+03

 The electronic state is 1-A.
 Alpha  occ. eigenvalues --  -10.61567 -10.60743 -10.60246 -10.59621  -0.94990
 Alpha  occ. eigenvalues --   -0.87846  -0.77816  -0.69791  -0.55870  -0.52943
 Alpha  occ. eigenvalues --   -0.52462  -0.47739  -0.43382  -0.39220  -0.38654
 Alpha  occ. eigenvalues --   -0.36673  -0.34890
 Alpha virt. eigenvalues --    0.04606   0.05583   0.07800   0.07868   0.10344
 Alpha virt. eigenvalues --    0.11385   0.12172   0.13020   0.14174   0.14903
 Alpha virt. eigenvalues --    0.15759   0.16439   0.18340   0.19972   0.21748

 Mulliken charges:
               1
     1  C   -0.138462
     2  C    0.013067
     3  H    0.063900
     4  H   -0.015922
     5  H    0.050048
     6  C   -0.931550
     7  H    0.019642
     8  H    0.047229
     9  C   -0.189492
    10  H    0.085147
    11  H    0.794588
    12  H   -0.003286
    13  H    0.075357
    14  H    0.129734
 Sum of Mulliken charges =   0.00000

 Dipole moment (field-independent basis, Debye):
    X=              0.1773    Y=             -0.0903    Z=             -0.1330  Tot=              0.2393
 Quadrupole moment (field-independent basis, Debye-Ang):
   XX=            -29.4354   YY=            -28.3809   ZZ=            -28.4068
   XY=             -1.6395   XZ=             -2.2752   YZ=             -0.4208

 Normal termination of Gaussian 09 at Wed Aug 26 16:06:28 2020.
