 Gaussian 09, Revision D.01,
 Gaussian 09:  ES64L-G09RevD.01 24-Apr-2013

 --------------------
 #p B2PLYPD3/Def2QZVP
 --------------------

 ----------
 butane_opt
 ----------
 Symbolic Z-matrix:
 Charge =  0 Multiplicity = 1

                         Standard orientation:
 ---------------------------------------------------------------------
 Center     Atomic      Atomic             Coordinates (Angstroms)
 Number     Number       Type             X           Y           Z
 ---------------------------------------------------------------------
      1          6           0        1.798433    0.066880   -0.168967
      2          6           0        0.586084   -0.430134    0.216101
      3          1           0        2.675091   -0.767403    0.041746
      4          1           0        2.258144    0.560867    0.540016
      5          1           0        1.772036    0.732294   -1.237732
      6          6           0       -0.468948    0.584734    0.199052
      7          1           0        0.652340   -0.916789    1.011789
      8          1           0        0.543829   -1.275842   -0.695659
      9          6           0       -1.913733   -0.179887   -0.193303
     10          1           0       -0.145726    1.196486   -0.735868
     11          1           0       -0.741052    1.432354    1.233926
     12          1           0       -1.830326   -0.735129   -0.844253
     13          1           0       -2.737334    0.463641   -0.546316
     14          1           0       -2.458019   -0.940040    0.915054
 ---------------------------------------------------------------------

 SCF Done:  E(RB2PLYPD3) =  -157.869112907     A.U. after   11 cycles
 E2(B2PLYPD3) =    -0.2526629020D+00 E(B2PLYPD3) =    -0.15812177580890D+03

 The electronic state is 1-A.
 Alpha  occ. eigenvalues --  -10.65313 -10.61592 -10.60668 -10.59502  -0.94808
 Alpha  occ. eigenvalues --   -0.83407  -0.74091  -0.67033  -0.57203  -0.50338
 Alpha  occ. eigenvalues --   -0.48614  -0.45364  -0.42473  -0.41616  -0.37150
 Alpha  occ. eigenvalues --   -0.36134  -0.34050
 Alpha virt. eigenvalues --    0.04755   0.05363   0.06675   0.07895   0.10201
 Alpha virt. eigenvalues --    0.10867   0.11991   0.12833   0.13644   0.15094
 Alpha virt. eigenvalues --    0.15659   0.16828   0.19073   0.19298   0.20397

 Mulliken charges:
               1
     1  C   -0.125418
     2  C   -0.005605
     3  H    0.011633
     4  H    0.045936
     5  H    0.034737
     6  C   -0.077764
     7  H    0.064690
     8  H    0.010348
     9  C   -0.233526
    10  H    0.041025
    11  H    0.033076
    12  H    0.159018
    13  H    0.045471
    14  H   -0.003620
 Sum of Mulliken charges =   0.00000

 Dipole moment (field-independent basis, Debye):
    X=              0.3727    Y=              0.0986    Z=             -0.0488  Tot=              0.3886
 Quadrupole moment (field-independent basis, Debye-Ang):
   XX=            -30.7561   YY=            -29.9882   ZZ=            -28.2445
   XY=             -0.6126   XZ=              1.7961   YZ=             -0.3605

 Normal termination of Gaussian 09 at Wed Aug 26 22:45:48 2020.
