 Gaussian 09, Revision D.01,
 Gaussian 09:  ES64L-G09RevD.01 24-Apr-2013

 --------------------
 #p B2PLYPD3/Def2QZVP
 --------------------

 ----------
 butane_opt
 ----------
 Symbolic Z-matrix:
 Charge =  0 Multiplicity = 1

                         Standard orientation:
 ---------------------------------------------------------------------
 Center     Atomic      Atomic             Coordinates (Angstroms)
 Number     Number       Type             X           Y           Z
 ---------------------------------------------------------------------
      1          6           0       -1.942927   -0.165925   -0.078351
      2          6           0       -0.503303    0.446636    0.085687
      3          1           0       -2.736714    0.780758   -0.266696
      4          1           0       -2.187061   -0.374097    0.595876
      5          1           0       -1.741526   -0.914515   -0.948694
      6          6           0        0.544366   -0.440817    0.216633
      7          1           0       -0.371126    1.332438    0.990416
      8          1           0       -0.454792    1.085774   -0.726429
      9          6           0        1.899160    0.056924   -0.208173
     10          1           0        0.280987   -0.901080   -0.334234
     11          1           0        0.712409   -1.407126    1.438575
     12          1           0        1.301307    0.394848   -0.918395
     13          1           0        2.583416   -0.565284   -0.779357
     14          1           0        2.629321    1.187380    0.854162
 ---------------------------------------------------------------------

 SCF Done:  E(RB2PLYPD3) =  -157.557586939     A.U. after   12 cycles
 E2(B2PLYPD3) =    -0.2562110131D+00 E(B2PLYPD3) =    -0.15781379795180D+03

 The electronic state is 1-A.
 Alpha  occ. eigenvalues --  -10.64317 -10.62194 -10.61831 -10.60488  -0.99706
 Alpha  occ. eigenvalues --   -0.87281  -0.77159  -0.69890  -0.57878  -0.52543
 Alpha  occ. eigenvalues --   -0.50306  -0.49209  -0.41893  -0.41098  -0.38129
 Alpha  occ. eigenvalues --   -0.35173  -0.32465
 Alpha virt. eigenvalues --    0.01248   0.05252   0.05454   0.07827   0.08555
 Alpha virt. eigenvalues --    0.10366   0.11909   0.12722   0.14656   0.14994
 Alpha virt. eigenvalues --    0.15549   0.16451   0.17514   0.19129   0.20098

 Mulliken charges:
               1
     1  C   -0.441949
     2  C   -0.017247
     3  H    0.034786
     4  H    0.322482
     5  H    0.069428
     6  C   -0.378340
     7  H    0.004331
     8  H    0.054148
     9  C   -0.173021
    10  H    0.389890
    11  H   -0.034377
    12  H    0.083610
    13  H    0.074066
    14  H    0.012192
 Sum of Mulliken charges =   0.00000

 Dipole moment (field-independent basis, Debye):
    X=             -0.6449    Y=             -0.1525    Z=             -1.2608  Tot=              1.4244
 Quadrupole moment (field-independent basis, Debye-Ang):
   XX=            -30.4523   YY=            -30.4551   ZZ=            -29.4239
   XY=             -1.0487   XZ=             -1.1409   YZ=              1.3819

 Normal termination of Gaussian 09 at Wed Aug 26 21:38:07 2020.
