 Gaussian 09, Revision D.01,
 Gaussian 09:  ES64L-G09RevD.01 24-Apr-2013

 --------------------
 #p B2PLYPD3/Def2QZVP
 --------------------

 ----------
 butane_opt
 ----------
 Symbolic Z-matrix:
 Charge =  0 Multiplicity = 1

                         Standard orientation:
 ---------------------------------------------------------------------
 Center     Atomic      Atomic             Coordinates (Angstroms)
 Number     Number       Type             X           Y           Z
 ---------------------------------------------------------------------
      1          6           0        1.954293    0.137425   -0.186164
      2          6           0        0.572027   -0.491472    0.179329
      3          1           0        2.769975   -0.779035   -0.279160
      4          1           0        2.179927    0.702116    0.666139
      5          1           0        1.890815    0.891471   -0.989238
      6          6           0       -0.608369    0.446102    0.261992
      7          1           0        0.367711   -1.128595    1.098655
      8          1           0        0.044843   -1.122526   -0.793602
      9          6           0       -1.882002   -0.112801   -0.130770
     10          1           0       -0.539699    1.121895   -0.558497
     11          1           0       -0.525394    1.277320    1.280681
     12          1           0       -1.335010   -0.591819   -0.895889
     13          1           0       -2.749064    0.577471   -0.947701
     14          1           0       -2.319796   -0.823821    0.672292
 ---------------------------------------------------------------------

 SCF Done:  E(RB2PLYPD3) =  -157.969442585     A.U. after   11 cycles
 E2(B2PLYPD3) =    -0.2546519419D+00 E(B2PLYPD3) =    -0.15822409452682D+03

 The electronic state is 1-A.
 Alpha  occ. eigenvalues --  -10.63675 -10.62768 -10.62596 -10.62124  -0.93806
 Alpha  occ. eigenvalues --   -0.83779  -0.71695  -0.64340  -0.55137  -0.49380
 Alpha  occ. eigenvalues --   -0.48143  -0.47433  -0.43195  -0.40436  -0.37464
 Alpha  occ. eigenvalues --   -0.35300  -0.34848
 Alpha virt. eigenvalues --    0.04976   0.05987   0.07236   0.07813   0.09707
 Alpha virt. eigenvalues --    0.11367   0.11907   0.12665   0.14464   0.15109
 Alpha virt. eigenvalues --    0.16203   0.16556   0.18048   0.19539   0.20444

 Mulliken charges:
               1
     1  C   -0.162681
     2  C   -0.051181
     3  H    0.055030
     4  H    0.067463
     5  H    0.060308
     6  C   -0.039859
     7  H    0.052601
     8  H   -0.003110
     9  C   -0.166339
    10  H    0.049998
    11  H   -0.012753
    12  H    0.065058
    13  H    0.035491
    14  H    0.049975
 Sum of Mulliken charges =   0.00000

 Dipole moment (field-independent basis, Debye):
    X=              0.4435    Y=              0.0323    Z=             -0.2164  Tot=              0.4945
 Quadrupole moment (field-independent basis, Debye-Ang):
   XX=            -30.7894   YY=            -30.2718   ZZ=            -28.9412
   XY=              0.4759   XZ=              0.5077   YZ=             -1.3324

 Normal termination of Gaussian 09 at Wed Aug 26 13:36:43 2020.
