 Gaussian 09, Revision D.01,
 Gaussian 09:  ES64L-G09RevD.01 24-Apr-2013

 --------------------
 #p B2PLYPD3/Def2QZVP
 --------------------

 ----------
 butane_opt
 ----------
 Symbolic Z-matrix:
 Charge =  0 Multiplicity = 1

                         Standard orientation:
 ---------------------------------------------------------------------
 Center     Atomic      Atomic             Coordinates (Angstroms)
 Number     Number       Type             X           Y           Z
 ---------------------------------------------------------------------
      1          6           0        2.039931    0.061694   -0.113639
      2          6           0        0.571913   -0.519476    0.125522
      3          1           0        2.819913   -0.731895   -0.316956
      4          1           0        2.184079    0.819782    0.702547
      5          1           0        2.097688    0.846178   -1.198611
      6          6           0       -0.605185    0.575221    0.173964
      7          1           0        0.593675   -1.358683    1.140983
      8          1           0        0.239523   -0.950181   -0.625911
      9          6           0       -2.006625   -0.099556   -0.129022
     10          1           0       -0.433581    0.899248   -0.428536
     11          1           0       -0.328605    1.496233    1.386150
     12          1           0       -1.521405   -0.673833   -0.878398
     13          1           0       -2.810628    0.540612   -0.966843
     14          1           0       -2.840866   -0.994761    0.844622
 ---------------------------------------------------------------------

 SCF Done:  E(RB2PLYPD3) =  -157.641795401     A.U. after   11 cycles
 E2(B2PLYPD3) =    -0.2572434410D+00 E(B2PLYPD3) =    -0.15789903884242D+03

 The electronic state is 1-A.
 Alpha  occ. eigenvalues --  -10.67535 -10.64695 -10.63433 -10.63096  -0.94360
 Alpha  occ. eigenvalues --   -0.82329  -0.72367  -0.69801  -0.53123  -0.49026
 Alpha  occ. eigenvalues --   -0.47802  -0.44140  -0.41530  -0.40068  -0.37973
 Alpha  occ. eigenvalues --   -0.36757  -0.34564
 Alpha virt. eigenvalues --    0.02604   0.04672   0.06190   0.07498   0.08551
 Alpha virt. eigenvalues --    0.10371   0.11662   0.12165   0.13599   0.13810
 Alpha virt. eigenvalues --    0.15438   0.16888   0.17141   0.18619   0.19671

 Mulliken charges:
               1
     1  C   -0.164372
     2  C   -0.070532
     3  H    0.074312
     4  H    0.076617
     5  H   -0.005145
     6  C   -0.581058
     7  H    0.017890
     8  H    0.114246
     9  C   -0.175855
    10  H    0.553881
    11  H   -0.013400
    12  H    0.078440
    13  H    0.045606
    14  H    0.049370
 Sum of Mulliken charges =   0.00000

 Dipole moment (field-independent basis, Debye):
    X=              0.3415    Y=             -0.4921    Z=             -0.8509  Tot=              1.0405
 Quadrupole moment (field-independent basis, Debye-Ang):
   XX=            -30.3309   YY=            -30.6793   ZZ=            -29.3843
   XY=              0.1762   XZ=              0.9745   YZ=             -0.6136

 Normal termination of Gaussian 09 at Wed Aug 26 13:14:27 2020.
