 Gaussian 09, Revision D.01,
 Gaussian 09:  ES64L-G09RevD.01 24-Apr-2013

 --------------------
 #p B2PLYPD3/Def2QZVP
 --------------------

 ----------
 butane_opt
 ----------
 Symbolic Z-matrix:
 Charge =  0 Multiplicity = 1

                         Standard orientation:
 ---------------------------------------------------------------------
 Center     Atomic      Atomic             Coordinates (Angstroms)
 Number     Number       Type             X           Y           Z
 ---------------------------------------------------------------------
      1          6           0        1.914659   -0.164211   -0.056497
      2          6           0        0.491096    0.576342   -0.083881
      3          1           0        2.396304    0.349004   -0.167121
      4          1           0        2.184300   -0.990041   -0.790255
      5          1           0        2.220520   -0.647409    0.899146
      6          6           0       -0.567030   -0.404903    0.212558
      7          1           0        0.403555    0.889296   -0.922815
      8          1           0        0.468543    1.504458    0.741945
      9          6           0       -1.810733    0.069287   -0.082182
     10          1           0       -0.627089   -1.018997    1.457168
     11          1           0       -0.585023   -0.805642   -0.251962
     12          1           0       -2.440211    1.103629    0.797766
     13          1           0       -2.772096   -1.218393   -0.870979
     14          1           0       -1.416747    0.375004   -0.832876
 ---------------------------------------------------------------------

 SCF Done:  E(RB2PLYPD3) =  -157.165932512     A.U. after   13 cycles
 E2(B2PLYPD3) =    -0.2553702072D+00 E(B2PLYPD3) =    -0.15742130271935D+03

 The electronic state is 1-A.
 Alpha  occ. eigenvalues --  -10.65867 -10.62230 -10.59886 -10.57789  -1.03150
 Alpha  occ. eigenvalues --   -0.89237  -0.77092  -0.71777  -0.58759  -0.53722
 Alpha  occ. eigenvalues --   -0.49324  -0.47566  -0.44898  -0.40923  -0.39698
 Alpha  occ. eigenvalues --   -0.36379  -0.32442
 Alpha virt. eigenvalues --   -0.00435   0.05349   0.06179   0.07616   0.08883
 Alpha virt. eigenvalues --    0.10309   0.11948   0.13450   0.14219   0.14281
 Alpha virt. eigenvalues --    0.15838   0.17253   0.18439   0.19123   0.20628

 Mulliken charges:
               1
     1  C   -0.512691
     2  C    0.006410
     3  H    0.379808
     4  H    0.038621
     5  H    0.060489
     6  C   -0.845548
     7  H    0.111659
     8  H    0.026277
     9  C   -0.164689
    10  H    0.021322
    11  H    0.740874
    12  H    0.037501
    13  H   -0.047060
    14  H    0.147029
 Sum of Mulliken charges =   0.00000

 Dipole moment (field-independent basis, Debye):
    X=              1.4392    Y=              0.7390    Z=             -0.4110  Tot=              1.6693
 Quadrupole moment (field-independent basis, Debye-Ang):
   XX=            -32.5347   YY=            -29.2130   ZZ=            -28.4617
   XY=             -1.0720   XZ=             -0.9523   YZ=              0.7056

 Normal termination of Gaussian 09 at Wed Aug 26 20:01:28 2020.
