 Gaussian 09, Revision D.01,
 Gaussian 09:  ES64L-G09RevD.01 24-Apr-2013

 --------------------
 #p B2PLYPD3/Def2QZVP
 --------------------

 ----------
 butane_opt
 ----------
 Symbolic Z-matrix:
 Charge =  0 Multiplicity = 1

                         Standard orientation:
 ---------------------------------------------------------------------
 Center     Atomic      Atomic             Coordinates (Angstroms)
 Number     Number       Type             X           Y           Z
 ---------------------------------------------------------------------
      1          6           0        1.909821   -0.093899   -0.090111
      2          6           0        0.621487    0.446039    0.030170
      3          1           0        2.709192    0.691288   -0.008460
      4          1           0        1.879565   -0.851026   -0.989668
      5          1           0        2.010670   -0.722516    0.872411
      6          6           0       -0.535633   -0.513578    0.127506
      7          1           0        0.474018    1.070726   -0.817507
      8          1           0        0.532029    1.304185    0.931181
      9          6           0       -1.967836    0.137940   -0.108910
     10          1           0       -0.485953   -1.253700    1.119904
     11          1           0       -0.302109   -0.978085   -0.608196
     12          1           0       -2.300848    0.984474    0.910829
     13          1           0       -2.719410   -0.694292   -0.315045
     14          1           0       -1.964186    0.589933   -0.847376
 ---------------------------------------------------------------------

 SCF Done:  E(RB2PLYPD3) =  -157.959675988     A.U. after   11 cycles
 E2(B2PLYPD3) =    -0.2489764540D+00 E(B2PLYPD3) =    -0.15820865244229D+03

 The electronic state is 1-A.
 Alpha  occ. eigenvalues --  -10.61331 -10.61219 -10.60660 -10.60376  -0.93641
 Alpha  occ. eigenvalues --   -0.84602  -0.74477  -0.65728  -0.54702  -0.51144
 Alpha  occ. eigenvalues --   -0.48769  -0.47858  -0.42421  -0.40403  -0.39402
 Alpha  occ. eigenvalues --   -0.37056  -0.35446
 Alpha virt. eigenvalues --    0.05253   0.06418   0.07879   0.08167   0.10854
 Alpha virt. eigenvalues --    0.11173   0.12469   0.13138   0.14518   0.15154
 Alpha virt. eigenvalues --    0.15342   0.16004   0.19456   0.19783   0.21133

 Mulliken charges:
               1
     1  C   -0.155268
     2  C   -0.003349
     3  H    0.064283
     4  H    0.037215
     5  H    0.036433
     6  C   -0.116466
     7  H    0.029109
     8  H   -0.013849
     9  C   -0.236760
    10  H    0.018294
    11  H    0.127940
    12  H    0.025448
    13  H    0.045933
    14  H    0.141037
 Sum of Mulliken charges =   0.00000

 Dipole moment (field-independent basis, Debye):
    X=              0.1265    Y=             -0.0627    Z=             -0.6355  Tot=              0.6510
 Quadrupole moment (field-independent basis, Debye-Ang):
   XX=            -30.3956   YY=            -29.3030   ZZ=            -28.4868
   XY=              0.8676   XZ=              0.8534   YZ=              0.1431

 Normal termination of Gaussian 09 at Wed Aug 26 23:00:20 2020.
