 Gaussian 09, Revision D.01,
 Gaussian 09:  ES64L-G09RevD.01 24-Apr-2013

 --------------------
 #p B2PLYPD3/Def2QZVP
 --------------------

 ----------
 butane_opt
 ----------
 Symbolic Z-matrix:
 Charge =  0 Multiplicity = 1

                         Standard orientation:
 ---------------------------------------------------------------------
 Center     Atomic      Atomic             Coordinates (Angstroms)
 Number     Number       Type             X           Y           Z
 ---------------------------------------------------------------------
      1          6           0        1.910270    0.066648   -0.059180
      2          6           0        0.486362   -0.541586    0.084251
      3          1           0        2.662530   -0.545854   -0.337106
      4          1           0        2.271007    0.674536    1.006687
      5          1           0        1.697684    0.794427   -0.955372
      6          6           0       -0.511929    0.550799    0.153831
      7          1           0        0.642716   -1.015488    0.789877
      8          1           0        0.518849   -1.057802   -0.875373
      9          6           0       -1.926082   -0.127143   -0.129995
     10          1           0        0.036415    1.153644   -0.713269
     11          1           0       -0.617079    1.194996    1.090255
     12          1           0       -1.669156   -0.479161   -0.819079
     13          1           0       -2.853313    0.718397   -0.445238
     14          1           0       -2.441380   -1.130001    0.965181
 ---------------------------------------------------------------------

 SCF Done:  E(RB2PLYPD3) =  -157.827508402     A.U. after   11 cycles
 E2(B2PLYPD3) =    -0.2532697109D+00 E(B2PLYPD3) =    -0.15808077811246D+03

 The electronic state is 1-A.
 Alpha  occ. eigenvalues --  -10.63412 -10.62860 -10.61905 -10.58434  -0.93740
 Alpha  occ. eigenvalues --   -0.84271  -0.72864  -0.68235  -0.57863  -0.50500
 Alpha  occ. eigenvalues --   -0.48811  -0.44394  -0.41493  -0.40255  -0.39407
 Alpha  occ. eigenvalues --   -0.36167  -0.35401
 Alpha virt. eigenvalues --    0.03650   0.05357   0.07816   0.08100   0.10233
 Alpha virt. eigenvalues --    0.10397   0.11965   0.12480   0.14172   0.15442
 Alpha virt. eigenvalues --    0.15878   0.17108   0.18434   0.19201   0.21199

 Mulliken charges:
               1
     1  C   -0.150982
     2  C   -0.129677
     3  H    0.061740
     4  H    0.023842
     5  H    0.026078
     6  C   -0.043086
     7  H    0.116351
     8  H    0.052415
     9  C   -0.361007
    10  H    0.038995
    11  H    0.045727
    12  H    0.262083
    13  H    0.039212
    14  H    0.018309
 Sum of Mulliken charges =   0.00000

 Dipole moment (field-independent basis, Debye):
    X=              0.5037    Y=             -0.2822    Z=             -0.2926  Tot=              0.6472
 Quadrupole moment (field-independent basis, Debye-Ang):
   XX=            -31.1441   YY=            -29.9993   ZZ=            -28.1959
   XY=             -1.5134   XZ=             -0.0571   YZ=              0.1080

 Normal termination of Gaussian 09 at Wed Aug 26 23:05:05 2020.
