 Gaussian 09, Revision D.01,
 Gaussian 09:  ES64L-G09RevD.01 24-Apr-2013

 --------------------
 #p B2PLYPD3/Def2QZVP
 --------------------

 ----------
 butane_opt
 ----------
 Symbolic Z-matrix:
 Charge =  0 Multiplicity = 1

                         Standard orientation:
 ---------------------------------------------------------------------
 Center     Atomic      Atomic             Coordinates (Angstroms)
 Number     Number       Type             X           Y           Z
 ---------------------------------------------------------------------
      1          6           0        1.985813   -0.165974   -0.068178
      2          6           0        0.535155    0.623151   -0.099428
      3          1           0        2.701127    0.701771    0.718607
      4          1           0        2.640593   -1.396506   -1.065288
      5          1           0        1.910903   -0.542562    0.695519
      6          6           0       -0.645599   -0.449659    0.138134
      7          1           0        0.238287    0.925137   -0.905185
      8          1           0        0.506851    1.612005    0.867811
      9          6           0       -1.936765    0.003220   -0.090732
     10          1           0       -0.618563   -1.167100    1.271909
     11          1           0       -0.404333   -0.998535   -0.541320
     12          1           0       -1.960176    0.621931    0.677512
     13          1           0       -2.722536   -0.628747    0.117220
     14          1           0       -1.923782    0.808179   -1.115557
 ---------------------------------------------------------------------

 SCF Done:  E(RB2PLYPD3) =  -157.707765716     A.U. after   12 cycles
 E2(B2PLYPD3) =    -0.2574097044D+00 E(B2PLYPD3) =    -0.15796517542093D+03

 The electronic state is 1-A.
 Alpha  occ. eigenvalues --  -10.65498 -10.64451 -10.60761 -10.59600  -0.94154
 Alpha  occ. eigenvalues --   -0.84909  -0.75383  -0.68441  -0.54067  -0.51614
 Alpha  occ. eigenvalues --   -0.46562  -0.44969  -0.43497  -0.38891  -0.37346
 Alpha  occ. eigenvalues --   -0.36332  -0.34263
 Alpha virt. eigenvalues --   -0.00800   0.04215   0.06522   0.06812   0.10327
 Alpha virt. eigenvalues --    0.10512   0.11972   0.12675   0.13071   0.14982
 Alpha virt. eigenvalues --    0.15575   0.15851   0.18059   0.18213   0.19643

 Mulliken charges:
               1
     1  C   -0.352498
     2  C   -0.091712
     3  H    0.012358
     4  H    0.048548
     5  H    0.249065
     6  C   -0.111363
     7  H    0.131229
     8  H    0.006341
     9  C   -0.146568
    10  H   -0.017389
    11  H    0.130087
    12  H    0.064574
    13  H    0.063639
    14  H    0.013690
 Sum of Mulliken charges =   0.00000

 Dipole moment (field-independent basis, Debye):
    X=             -0.6963    Y=             -0.3304    Z=              0.3752  Tot=              0.8572
 Quadrupole moment (field-independent basis, Debye-Ang):
   XX=            -32.0987   YY=            -29.5214   ZZ=            -28.7088
   XY=             -0.6686   XZ=              0.4679   YZ=              0.7385

 Normal termination of Gaussian 09 at Wed Aug 26 14:52:04 2020.
