 Gaussian 09, Revision D.01,
 Gaussian 09:  ES64L-G09RevD.01 24-Apr-2013

 --------------------
 #p B2PLYPD3/Def2QZVP
 --------------------

 ----------
 butane_opt
 ----------
 Symbolic Z-matrix:
 Charge =  0 Multiplicity = 1

                         Standard orientation:
 ---------------------------------------------------------------------
 Center     Atomic      Atomic             Coordinates (Angstroms)
 Number     Number       Type             X           Y           Z
 ---------------------------------------------------------------------
      1          6           0       -1.995494   -0.121651   -0.148689
      2          6           0       -0.473061    0.465029    0.144668
      3          1           0       -2.829407    0.631843   -0.401481
      4          1           0       -2.274063   -0.530331    0.670122
      5          1           0       -1.732702   -1.128739   -1.191283
      6          6           0        0.567410   -0.417803    0.252846
      7          1           0       -0.511427    1.284801    1.060413
      8          1           0       -0.347685    1.066374   -0.728092
      9          6           0        1.872519    0.065194   -0.203544
     10          1           0        0.530814   -0.685440   -0.190839
     11          1           0        0.449215   -1.360933    1.523742
     12          1           0        1.633728    0.512170   -1.045770
     13          1           0        2.820169   -0.776975   -0.728386
     14          1           0        2.433114    1.042612    0.759886
 ---------------------------------------------------------------------

 SCF Done:  E(RB2PLYPD3) =  -157.044107013     A.U. after   12 cycles
 E2(B2PLYPD3) =    -0.2564689634D+00 E(B2PLYPD3) =    -0.15730057597668D+03

 The electronic state is 1-A.
 Alpha  occ. eigenvalues --  -10.66019 -10.64269 -10.63557 -10.62834  -1.01510
 Alpha  occ. eigenvalues --   -0.83694  -0.74284  -0.70985  -0.56384  -0.51099
 Alpha  occ. eigenvalues --   -0.48311  -0.46087  -0.44020  -0.39397  -0.37419
 Alpha  occ. eigenvalues --   -0.35513  -0.34980
 Alpha virt. eigenvalues --    0.02965   0.04634   0.04940   0.07591   0.09045
 Alpha virt. eigenvalues --    0.10129   0.11391   0.12492   0.13244   0.14303
 Alpha virt. eigenvalues --    0.15219   0.16567   0.17274   0.19641   0.20666

 Mulliken charges:
               1
     1  C   -0.180752
     2  C    0.047872
     3  H    0.062715
     4  H    0.101617
     5  H    0.001050
     6  C   -0.941932
     7  H    0.015650
     8  H    0.040795
     9  C   -0.128692
    10  H    0.830575
    11  H   -0.006910
    12  H    0.094735
    13  H    0.048079
    14  H    0.015199
 Sum of Mulliken charges =   0.00000

 Dipole moment (field-independent basis, Debye):
    X=             -0.4651    Y=              0.3579    Z=             -0.6589  Tot=              0.8824
 Quadrupole moment (field-independent basis, Debye-Ang):
   XX=            -30.2329   YY=            -30.5369   ZZ=            -28.9312
   XY=             -1.3563   XZ=             -2.1830   YZ=              0.2872

 Normal termination of Gaussian 09 at Wed Aug 26 13:53:41 2020.
