 Gaussian 09, Revision D.01,
 Gaussian 09:  ES64L-G09RevD.01 24-Apr-2013

 --------------------
 #p B2PLYPD3/Def2QZVP
 --------------------

 ----------
 butane_opt
 ----------
 Symbolic Z-matrix:
 Charge =  0 Multiplicity = 1

                         Standard orientation:
 ---------------------------------------------------------------------
 Center     Atomic      Atomic             Coordinates (Angstroms)
 Number     Number       Type             X           Y           Z
 ---------------------------------------------------------------------
      1          6           0        1.905785   -0.111943    0.081259
      2          6           0        0.541411    0.392161   -0.066719
      3          1           0        2.804541    0.781739   -0.339586
      4          1           0        1.988027   -0.373772   -0.530969
      5          1           0        1.933491   -1.050462    1.276441
      6          6           0       -0.554272   -0.485833   -0.150295
      7          1           0        0.639229    1.362307   -1.023419
      8          1           0        0.361315    0.977782    0.875162
      9          6           0       -1.906858    0.114000    0.033953
     10          1           0       -0.554485   -1.301269    0.749851
     11          1           0       -0.438426   -1.096570   -0.909720
     12          1           0       -2.016531    1.326794    1.363572
     13          1           0       -2.711249   -0.478806   -0.235538
     14          1           0       -1.922306    0.401936   -0.614982
 ---------------------------------------------------------------------

 SCF Done:  E(RB2PLYPD3) =  -157.324247862     A.U. after   12 cycles
 E2(B2PLYPD3) =    -0.2575981580D+00 E(B2PLYPD3) =    -0.15758184602002D+03

 The electronic state is 1-A.
 Alpha  occ. eigenvalues --  -10.62785 -10.61813 -10.61162 -10.60870  -0.97012
 Alpha  occ. eigenvalues --   -0.91014  -0.79883  -0.67816  -0.54924  -0.53716
 Alpha  occ. eigenvalues --   -0.48811  -0.47533  -0.41558  -0.38541  -0.37158
 Alpha  occ. eigenvalues --   -0.35750  -0.34224
 Alpha virt. eigenvalues --    0.00249   0.03480   0.04811   0.06772   0.09423
 Alpha virt. eigenvalues --    0.10136   0.11329   0.12329   0.13448   0.15396
 Alpha virt. eigenvalues --    0.15498   0.15822   0.17981   0.18970   0.21539

 Mulliken charges:
               1
     1  C   -0.696996
     2  C    0.029369
     3  H    0.043770
     4  H    0.541264
     5  H    0.041166
     6  C    0.008176
     7  H   -0.017316
     8  H    0.047732
     9  C   -0.565441
    10  H   -0.000646
    11  H    0.047325
    12  H    0.006687
    13  H    0.071633
    14  H    0.443277
 Sum of Mulliken charges =   0.00000

 Dipole moment (field-independent basis, Debye):
    X=             -0.2782    Y=             -0.5908    Z=             -1.1429  Tot=              1.3163
 Quadrupole moment (field-independent basis, Debye-Ang):
   XX=            -31.0432   YY=            -30.0139   ZZ=            -28.4383
   XY=              1.0428   XZ=              0.2707   YZ=              0.1714

 Normal termination of Gaussian 09 at Wed Aug 26 20:10:50 2020.
