 Gaussian 09, Revision D.01,
 Gaussian 09:  ES64L-G09RevD.01 24-Apr-2013

 --------------------
 #p B2PLYPD3/Def2QZVP
 --------------------

 ----------
 butane_opt
 ----------
 Symbolic Z-matrix:
 Charge =  0 Multiplicity = 1

                         Standard orientation:
 ---------------------------------------------------------------------
 Center     Atomic      Atomic             Coordinates (Angstroms)
 Number     Number       Type             X           Y           Z
 ---------------------------------------------------------------------
      1          6           0       -2.044616   -0.227994    0.155995
      2          6           0       -0.550975    0.675396   -0.153107
      3          1           0       -2.635876    0.166758    0.770917
      4          1           0       -1.951067   -0.766573    0.829175
      5          1           0       -2.487727   -0.708079   -0.869804
      6          6           0        0.617446   -0.451074   -0.278937
      7          1           0       -0.197696    0.833254    0.560298
      8          1           0       -0.585529    1.848337   -1.030462
      9          6           0        1.934493   -0.021827    0.216130
     10          1           0        0.757455   -0.859492   -1.176008
     11          1           0        0.687455   -1.131045    0.410907
     12          1           0        2.120710    0.504785   -0.425859
     13          1           0        2.626783   -0.519275   -0.071390
     14          1           0        1.927404    0.784323    1.361747
 ---------------------------------------------------------------------

 SCF Done:  E(RB2PLYPD3) =  -157.626036375     A.U. after   11 cycles
 E2(B2PLYPD3) =    -0.2517401013D+00 E(B2PLYPD3) =    -0.15787777647662D+03

 The electronic state is 1-A.
 Alpha  occ. eigenvalues --  -10.62968 -10.58521 -10.58253 -10.57203  -0.94874
 Alpha  occ. eigenvalues --   -0.86968  -0.80093  -0.71291  -0.55940  -0.51586
 Alpha  occ. eigenvalues --   -0.49394  -0.45297  -0.41898  -0.39913  -0.39219
 Alpha  occ. eigenvalues --   -0.36712  -0.34220
 Alpha virt. eigenvalues --    0.05106   0.06498   0.06793   0.08117   0.11006
 Alpha virt. eigenvalues --    0.11149   0.12782   0.13656   0.13783   0.15511
 Alpha virt. eigenvalues --    0.16613   0.17238   0.18087   0.18430   0.21007

 Mulliken charges:
               1
     1  C   -0.225931
     2  C   -0.397633
     3  H    0.055348
     4  H    0.128978
     5  H    0.057966
     6  C   -0.044545
     7  H    0.322893
     8  H    0.034708
     9  C   -0.308091
    10  H    0.031374
    11  H    0.085583
    12  H    0.159629
    13  H    0.069045
    14  H    0.030675
 Sum of Mulliken charges =   0.00000

 Dipole moment (field-independent basis, Debye):
    X=              0.3658    Y=             -0.2916    Z=              0.1180  Tot=              0.4824
 Quadrupole moment (field-independent basis, Debye-Ang):
   XX=            -28.4694   YY=            -29.1875   ZZ=            -27.1324
   XY=              0.1960   XZ=             -2.2551   YZ=              0.1247

 Normal termination of Gaussian 09 at Wed Aug 26 15:37:13 2020.
