 Gaussian 09, Revision D.01,
 Gaussian 09:  ES64L-G09RevD.01 24-Apr-2013

 --------------------
 #p B2PLYPD3/Def2QZVP
 --------------------

 ----------
 butane_opt
 ----------
 Symbolic Z-matrix:
 Charge =  0 Multiplicity = 1

                         Standard orientation:
 ---------------------------------------------------------------------
 Center     Atomic      Atomic             Coordinates (Angstroms)
 Number     Number       Type             X           Y           Z
 ---------------------------------------------------------------------
      1          6           0       -2.021076   -0.189629   -0.148785
      2          6           0       -0.575866    0.557186    0.164335
      3          1           0       -2.787729    0.776425   -0.519174
      4          1           0       -2.217031   -0.852321    0.796998
      5          1           0       -1.955410   -0.775279   -0.895461
      6          6           0        0.648149   -0.445027    0.138838
      7          1           0       -0.379459    1.602569    1.319554
      8          1           0       -0.530117    0.660906   -0.384100
      9          6           0        1.971137    0.080618   -0.155859
     10          1           0        0.550079   -1.109276   -0.817965
     11          1           0        0.528369   -1.302772    1.213482
     12          1           0        1.889772    1.075756   -1.317443
     13          1           0        2.728761   -0.609720   -0.026693
     14          1           0        2.038703    0.514820    0.639629
 ---------------------------------------------------------------------

 SCF Done:  E(RB2PLYPD3) =  -157.214183989     A.U. after   12 cycles
 E2(B2PLYPD3) =    -0.2564065950D+00 E(B2PLYPD3) =    -0.15747059058405D+03

 The electronic state is 1-A.
 Alpha  occ. eigenvalues --  -10.64615 -10.63515 -10.62935 -10.61168  -0.95543
 Alpha  occ. eigenvalues --   -0.87474  -0.75697  -0.66708  -0.54553  -0.51192
 Alpha  occ. eigenvalues --   -0.47526  -0.45918  -0.42589  -0.40435  -0.37689
 Alpha  occ. eigenvalues --   -0.34928  -0.34371
 Alpha virt. eigenvalues --    0.03737   0.03843   0.05626   0.06860   0.10133
 Alpha virt. eigenvalues --    0.10578   0.11030   0.12957   0.13376   0.14492
 Alpha virt. eigenvalues --    0.15028   0.16253   0.17443   0.18489   0.20240

 Mulliken charges:
               1
     1  C   -0.152663
     2  C   -0.976890
     3  H    0.042648
     4  H    0.060553
     5  H    0.095602
     6  C   -0.005016
     7  H    0.029127
     8  H    0.870782
     9  C   -0.182738
    10  H    0.016018
    11  H    0.001477
    12  H    0.019573
    13  H    0.072421
    14  H    0.109107
 Sum of Mulliken charges =   0.00000

 Dipole moment (field-independent basis, Debye):
    X=              0.2120    Y=             -0.2404    Z=             -0.2093  Tot=              0.3828
 Quadrupole moment (field-independent basis, Debye-Ang):
   XX=            -30.3541   YY=            -29.8569   ZZ=            -28.4437
   XY=             -0.5716   XZ=              1.6644   YZ=             -0.1337

 Normal termination of Gaussian 09 at Wed Aug 26 15:30:23 2020.
