 Gaussian 09, Revision D.01,
 Gaussian 09:  ES64L-G09RevD.01 24-Apr-2013

 --------------------
 #p B2PLYPD3/Def2QZVP
 --------------------

 ----------
 butane_opt
 ----------
 Symbolic Z-matrix:
 Charge =  0 Multiplicity = 1

                         Standard orientation:
 ---------------------------------------------------------------------
 Center     Atomic      Atomic             Coordinates (Angstroms)
 Number     Number       Type             X           Y           Z
 ---------------------------------------------------------------------
      1          6           0       -1.920650    0.089282   -0.144574
      2          6           0       -0.521138   -0.400205    0.167507
      3          1           0       -2.970681   -1.107635   -0.041553
      4          1           0       -2.080315    0.987785   -1.326756
      5          1           0       -1.889727    0.421055    0.372043
      6          6           0        0.526234    0.573781    0.217616
      7          1           0       -0.281980   -1.116692   -0.609124
      8          1           0       -0.653868   -1.070546    1.188773
      9          6           0        1.954699   -0.167858   -0.244176
     10          1           0        0.409287    1.672876    1.456976
     11          1           0        0.295964    0.885812   -0.536274
     12          1           0        2.352375   -1.090473    0.896788
     13          1           0        2.705919    0.463862   -0.601077
     14          1           0        1.878158   -0.616049   -0.778037
 ---------------------------------------------------------------------

 SCF Done:  E(RB2PLYPD3) =  -157.095395949     A.U. after   12 cycles
 E2(B2PLYPD3) =    -0.2583684102D+00 E(B2PLYPD3) =    -0.15735376435888D+03

 The electronic state is 1-A.
 Alpha  occ. eigenvalues --  -10.64426 -10.64182 -10.62869 -10.61864  -0.97641
 Alpha  occ. eigenvalues --   -0.89444  -0.81501  -0.68334  -0.54812  -0.52696
 Alpha  occ. eigenvalues --   -0.48706  -0.44742  -0.43879  -0.40123  -0.36395
 Alpha  occ. eigenvalues --   -0.35683  -0.34935
 Alpha virt. eigenvalues --    0.01504   0.02658   0.04680   0.06020   0.09453
 Alpha virt. eigenvalues --    0.09819   0.11407   0.12051   0.12954   0.14387
 Alpha virt. eigenvalues --    0.15071   0.16491   0.17553   0.18438   0.19957

 Mulliken charges:
               1
     1  C   -0.834805
     2  C    0.034536
     3  H    0.031204
     4  H    0.029778
     5  H    0.681690
     6  C   -0.266430
     7  H    0.050421
     8  H    0.017965
     9  C   -0.548380
    10  H    0.007594
    11  H    0.276160
    12  H    0.010504
    13  H    0.076053
    14  H    0.433710
 Sum of Mulliken charges =   0.00000

 Dipole moment (field-independent basis, Debye):
    X=              0.2023    Y=             -0.0564    Z=             -0.7443  Tot=              0.7734
 Quadrupole moment (field-independent basis, Debye-Ang):
   XX=            -32.1095   YY=            -29.8013   ZZ=            -28.5853
   XY=              0.5201   XZ=             -2.3522   YZ=             -0.3196

 Normal termination of Gaussian 09 at Wed Aug 26 12:54:24 2020.
