 Gaussian 09, Revision D.01,
 Gaussian 09:  ES64L-G09RevD.01 24-Apr-2013

 --------------------
 #p B2PLYPD3/Def2QZVP
 --------------------

 ----------
 butane_opt
 ----------
 Symbolic Z-matrix:
 Charge =  0 Multiplicity = 1

                         Standard orientation:
 ---------------------------------------------------------------------
 Center     Atomic      Atomic             Coordinates (Angstroms)
 Number     Number       Type             X           Y           Z
 ---------------------------------------------------------------------
      1          6           0        1.983925    0.121306    0.035514
      2          6           0        0.555865   -0.577882    0.072602
      3          1           0        2.670217   -0.656759   -0.587565
      4          1           0        2.962651    1.388929    1.061117
      5          1           0        1.724719    0.291552   -0.510787
      6          6           0       -0.633940    0.512287   -0.144152
      7          1           0        0.126770   -1.075497    0.863767
      8          1           0        0.459447   -1.489837   -0.946430
      9          6           0       -1.883418   -0.075082    0.111066
     10          1           0       -0.570788    1.107202   -1.245560
     11          1           0       -0.709439    1.196583    0.684347
     12          1           0       -1.884727   -0.435992   -0.547272
     13          1           0       -2.677099    0.612889   -0.355841
     14          1           0       -2.236346   -0.822842    1.134040
 ---------------------------------------------------------------------

 SCF Done:  E(RB2PLYPD3) =  -157.256336939     A.U. after   13 cycles
 E2(B2PLYPD3) =    -0.2604869145D+00 E(B2PLYPD3) =    -0.15751682385328D+03

 The electronic state is 1-A.
 Alpha  occ. eigenvalues --  -10.65521 -10.63427 -10.62423 -10.58163  -0.96180
 Alpha  occ. eigenvalues --   -0.92079  -0.75647  -0.67184  -0.54445  -0.48868
 Alpha  occ. eigenvalues --   -0.48144  -0.44481  -0.42753  -0.40924  -0.36761
 Alpha  occ. eigenvalues --   -0.35780  -0.33874
 Alpha virt. eigenvalues --   -0.03003   0.04667   0.06048   0.06855   0.09460
 Alpha virt. eigenvalues --    0.10706   0.11918   0.12396   0.14083   0.15662
 Alpha virt. eigenvalues --    0.16294   0.16508   0.17599   0.18303   0.19617

 Mulliken charges:
               1
     1  C   -0.832997
     2  C   -0.055443
     3  H    0.075829
     4  H    0.043347
     5  H    0.671254
     6  C   -0.015485
     7  H    0.076471
     8  H    0.001572
     9  C   -0.523152
    10  H    0.018540
    11  H    0.053364
    12  H    0.370576
    13  H    0.050774
    14  H    0.065349
 Sum of Mulliken charges =   0.00000

 Dipole moment (field-independent basis, Debye):
    X=             -0.7165    Y=             -0.2189    Z=             -0.6441  Tot=              0.9880
 Quadrupole moment (field-independent basis, Debye-Ang):
   XX=            -30.8990   YY=            -29.6710   ZZ=            -28.1038
   XY=              0.7262   XZ=             -0.5550   YZ=              0.2017

 Normal termination of Gaussian 09 at Wed Aug 26 11:08:45 2020.
