 Gaussian 09, Revision D.01,
 Gaussian 09:  ES64L-G09RevD.01 24-Apr-2013

 --------------------
 #p B2PLYPD3/Def2QZVP
 --------------------

 ----------
 butane_opt
 ----------
 Symbolic Z-matrix:
 Charge =  0 Multiplicity = 1

                         Standard orientation:
 ---------------------------------------------------------------------
 Center     Atomic      Atomic             Coordinates (Angstroms)
 Number     Number       Type             X           Y           Z
 ---------------------------------------------------------------------
      1          6           0       -1.913882    0.104719   -0.088474
      2          6           0       -0.563476   -0.480668    0.083925
      3          1           0       -2.683238   -0.727967    0.275361
      4          1           0       -1.996066    0.784688   -1.233400
      5          1           0       -2.031635    0.429045    0.563976
      6          6           0        0.542218    0.607872    0.101002
      7          1           0       -0.580881   -1.068024   -0.693459
      8          1           0       -0.210221   -1.107884    0.964770
      9          6           0        1.881700   -0.171185   -0.119882
     10          1           0        0.459802    1.527178    1.303721
     11          1           0        0.382633    0.744501   -0.485827
     12          1           0        2.485685   -0.907570    0.884484
     13          1           0        2.662616    0.605670   -0.554334
     14          1           0        1.831945   -0.644067   -0.884721
 ---------------------------------------------------------------------

 SCF Done:  E(RB2PLYPD3) =  -157.327233017     A.U. after   12 cycles
 E2(B2PLYPD3) =    -0.2530232898D+00 E(B2PLYPD3) =    -0.15758025630703D+03

 The electronic state is 1-A.
 Alpha  occ. eigenvalues --  -10.61974 -10.61191 -10.59360 -10.59256  -0.96710
 Alpha  occ. eigenvalues --   -0.87733  -0.76628  -0.71258  -0.57136  -0.49927
 Alpha  occ. eigenvalues --   -0.48514  -0.45752  -0.41365  -0.40652  -0.40013
 Alpha  occ. eigenvalues --   -0.37314  -0.33936
 Alpha virt. eigenvalues --    0.04236   0.05659   0.06332   0.08264   0.10283
 Alpha virt. eigenvalues --    0.10463   0.11839   0.13825   0.14114   0.14807
 Alpha virt. eigenvalues --    0.15516   0.16086   0.18391   0.18832   0.21228

 Mulliken charges:
               1
     1  C   -0.501076
     2  C   -0.010326
     3  H    0.039405
     4  H    0.064053
     5  H    0.359030
     6  C   -0.866179
     7  H    0.070040
     8  H    0.028988
     9  C   -0.158512
    10  H    0.031246
    11  H    0.771344
    12  H    0.033132
    13  H    0.022960
    14  H    0.115896
 Sum of Mulliken charges =   0.00000

 Dipole moment (field-independent basis, Debye):
    X=             -0.1915    Y=             -0.0955    Z=             -0.3692  Tot=              0.4267
 Quadrupole moment (field-independent basis, Debye-Ang):
   XX=            -30.8316   YY=            -29.6557   ZZ=            -27.0592
   XY=             -0.4842   XZ=             -0.9989   YZ=             -0.2729

 Normal termination of Gaussian 09 at Wed Aug 26 09:44:16 2020.
