 Gaussian 09, Revision D.01,
 Gaussian 09:  ES64L-G09RevD.01 24-Apr-2013

 --------------------
 #p B2PLYPD3/Def2QZVP
 --------------------

 ----------
 butane_opt
 ----------
 Symbolic Z-matrix:
 Charge =  0 Multiplicity = 1

                         Standard orientation:
 ---------------------------------------------------------------------
 Center     Atomic      Atomic             Coordinates (Angstroms)
 Number     Number       Type             X           Y           Z
 ---------------------------------------------------------------------
      1          6           0       -2.034910   -0.153540   -0.076817
      2          6           0       -0.555798    0.583660    0.008917
      3          1           0       -2.624128    0.333501   -0.013509
      4          1           0       -2.163889   -0.410166    0.613985
      5          1           0       -2.209088   -1.194283   -1.038375
      6          6           0        0.612002   -0.440222    0.316337
      7          1           0       -0.499748    1.434407    0.836586
      8          1           0       -0.299456    1.210537   -0.824693
      9          6           0        1.904440    0.014115   -0.186728
     10          1           0        0.830093   -1.218811   -0.442248
     11          1           0        0.593598   -1.043598    1.367317
     12          1           0        1.530525    0.580701   -1.012093
     13          1           0        2.675186   -0.685260   -0.544822
     14          1           0        2.612508    0.968897    0.687592
 ---------------------------------------------------------------------

 SCF Done:  E(RB2PLYPD3) =  -157.675694053     A.U. after   11 cycles
 E2(B2PLYPD3) =    -0.2519374863D+00 E(B2PLYPD3) =    -0.15792763153969D+03

 The electronic state is 1-A.
 Alpha  occ. eigenvalues --  -10.63959 -10.63518 -10.62811 -10.57291  -0.93287
 Alpha  occ. eigenvalues --   -0.89952  -0.75995  -0.65753  -0.52979  -0.51887
 Alpha  occ. eigenvalues --   -0.50896  -0.46403  -0.43371  -0.40975  -0.39170
 Alpha  occ. eigenvalues --   -0.38561  -0.31653
 Alpha virt. eigenvalues --    0.05198   0.05747   0.07425   0.07987   0.09717
 Alpha virt. eigenvalues --    0.10812   0.12162   0.13202   0.14614   0.15101
 Alpha virt. eigenvalues --    0.15386   0.16865   0.18513   0.19300   0.20682

 Mulliken charges:
               1
     1  C   -0.566048
     2  C   -0.017996
     3  H    0.221649
     4  H    0.281324
     5  H    0.034709
     6  C   -0.028450
     7  H    0.018761
     8  H    0.043806
     9  C   -0.156939
    10  H    0.044060
    11  H    0.031065
    12  H    0.078372
    13  H    0.066123
    14  H   -0.050437
 Sum of Mulliken charges =   0.00000

 Dipole moment (field-independent basis, Debye):
    X=             -0.6949    Y=             -0.3380    Z=             -0.2126  Tot=              0.8014
 Quadrupole moment (field-independent basis, Debye-Ang):
   XX=            -30.4251   YY=            -29.1009   ZZ=            -28.7348
   XY=             -2.4031   XZ=             -2.3225   YZ=              0.1261

 Normal termination of Gaussian 09 at Wed Aug 26 23:39:34 2020.
