 Gaussian 09, Revision D.01,
 Gaussian 09:  ES64L-G09RevD.01 24-Apr-2013

 --------------------
 #p B2PLYPD3/Def2QZVP
 --------------------

 ----------
 butane_opt
 ----------
 Symbolic Z-matrix:
 Charge =  0 Multiplicity = 1

                         Standard orientation:
 ---------------------------------------------------------------------
 Center     Atomic      Atomic             Coordinates (Angstroms)
 Number     Number       Type             X           Y           Z
 ---------------------------------------------------------------------
      1          6           0       -1.993527    0.083092    0.053798
      2          6           0       -0.662617   -0.457919   -0.131799
      3          1           0       -2.820044   -0.754697   -0.318625
      4          1           0       -1.976523    0.569973   -0.669002
      5          1           0       -2.141854    0.773020    1.227291
      6          6           0        0.591717    0.581250    0.156962
      7          1           0       -0.643252   -1.036231   -1.195129
      8          1           0       -0.472632   -1.137136    0.508433
      9          6           0        2.020329   -0.208422    0.028877
     10          1           0        0.281389    0.983299    1.017198
     11          1           0        0.563262    1.570871   -0.828013
     12          1           0        2.680737   -1.532106    1.018823
     13          1           0        2.917813    0.914790   -0.785417
     14          1           0        1.875689   -0.339789   -0.622586
 ---------------------------------------------------------------------

 SCF Done:  E(RB2PLYPD3) =  -157.449927536     A.U. after   13 cycles
 E2(B2PLYPD3) =    -0.2612338242D+00 E(B2PLYPD3) =    -0.15771116135982D+03

 The electronic state is 1-A.
 Alpha  occ. eigenvalues --  -10.66781 -10.65915 -10.61654 -10.61322  -0.93062
 Alpha  occ. eigenvalues --   -0.87966  -0.75592  -0.68311  -0.53054  -0.48893
 Alpha  occ. eigenvalues --   -0.45708  -0.45247  -0.43102  -0.39326  -0.38755
 Alpha  occ. eigenvalues --   -0.36833  -0.32168
 Alpha virt. eigenvalues --   -0.02806   0.02071   0.05079   0.06990   0.08813
 Alpha virt. eigenvalues --    0.09970   0.11408   0.12139   0.13377   0.14749
 Alpha virt. eigenvalues --    0.15579   0.15625   0.17484   0.17975   0.18864

 Mulliken charges:
               1
     1  C   -0.240656
     2  C   -0.061955
     3  H    0.040297
     4  H    0.158169
     5  H    0.032583
     6  C   -0.044170
     7  H    0.004764
     8  H    0.084172
     9  C   -0.712747
    10  H    0.085489
    11  H    0.004820
    12  H    0.070741
    13  H   -0.027212
    14  H    0.605706
 Sum of Mulliken charges =   0.00000

 Dipole moment (field-independent basis, Debye):
    X=             -0.9010    Y=             -0.5960    Z=             -0.2210  Tot=              1.1027
 Quadrupole moment (field-independent basis, Debye-Ang):
   XX=            -34.3739   YY=            -29.3338   ZZ=            -28.4175
   XY=             -1.5825   XZ=              0.5917   YZ=             -0.6165

 Normal termination of Gaussian 09 at Wed Aug 26 15:33:19 2020.
