 Gaussian 09, Revision D.01,
 Gaussian 09:  ES64L-G09RevD.01 24-Apr-2013

 --------------------
 #p B2PLYPD3/Def2QZVP
 --------------------

 ----------
 butane_opt
 ----------
 Symbolic Z-matrix:
 Charge =  0 Multiplicity = 1

                         Standard orientation:
 ---------------------------------------------------------------------
 Center     Atomic      Atomic             Coordinates (Angstroms)
 Number     Number       Type             X           Y           Z
 ---------------------------------------------------------------------
      1          6           0        1.909786    0.082391    0.087228
      2          6           0        0.622897   -0.439308    0.099831
      3          1           0        2.798278   -0.841381   -0.577450
      4          1           0        2.122529    1.212507    1.089113
      5          1           0        1.611478    0.338077   -0.782642
      6          6           0       -0.559206    0.521936   -0.137349
      7          1           0        0.210749   -0.868453    0.874333
      8          1           0        0.734171   -1.212955   -0.828562
      9          6           0       -1.977639   -0.158285    0.039039
     10          1           0       -0.325880    1.129181   -1.124785
     11          1           0       -0.331553    1.064988    0.473675
     12          1           0       -2.175319   -0.634314   -0.658069
     13          1           0       -2.574159    0.462938   -0.051809
     14          1           0       -2.045320   -0.690991    1.053706
 ---------------------------------------------------------------------

 SCF Done:  E(RB2PLYPD3) =  -157.732190237     A.U. after   12 cycles
 E2(B2PLYPD3) =    -0.2531496158D+00 E(B2PLYPD3) =    -0.15798533985270D+03

 The electronic state is 1-A.
 Alpha  occ. eigenvalues --  -10.64223 -10.60369 -10.59104 -10.56553  -0.96159
 Alpha  occ. eigenvalues --   -0.88156  -0.78087  -0.67204  -0.55325  -0.50717
 Alpha  occ. eigenvalues --   -0.50360  -0.47168  -0.43897  -0.42596  -0.40382
 Alpha  occ. eigenvalues --   -0.35964  -0.32489
 Alpha virt. eigenvalues --    0.02077   0.05747   0.06717   0.08352   0.10011
 Alpha virt. eigenvalues --    0.11713   0.12200   0.13612   0.14592   0.15110
 Alpha virt. eigenvalues --    0.15669   0.16675   0.18895   0.19432   0.21162

 Mulliken charges:
               1
     1  C   -0.222689
     2  C   -0.006239
     3  H    0.030375
     4  H    0.018327
     5  H    0.124916
     6  C   -0.180774
     7  H    0.043539
     8  H    0.005060
     9  C   -0.219367
    10  H    0.004162
    11  H    0.172079
    12  H    0.086080
    13  H    0.097274
    14  H    0.047257
 Sum of Mulliken charges =   0.00000

 Dipole moment (field-independent basis, Debye):
    X=             -1.0145    Y=              0.0413    Z=             -0.3348  Tot=              1.0691
 Quadrupole moment (field-independent basis, Debye-Ang):
   XX=            -30.9003   YY=            -29.6435   ZZ=            -27.8041
   XY=             -0.2818   XZ=             -0.9897   YZ=              1.0148

 Normal termination of Gaussian 09 at Wed Aug 26 21:47:14 2020.
