 Gaussian 09, Revision D.01,
 Gaussian 09:  ES64L-G09RevD.01 24-Apr-2013

 --------------------
 #p B2PLYPD3/Def2QZVP
 --------------------

 ----------
 butane_opt
 ----------
 Symbolic Z-matrix:
 Charge =  0 Multiplicity = 1

                         Standard orientation:
 ---------------------------------------------------------------------
 Center     Atomic      Atomic             Coordinates (Angstroms)
 Number     Number       Type             X           Y           Z
 ---------------------------------------------------------------------
      1          6           0        1.947070    0.052119   -0.115544
      2          6           0        0.628267   -0.495537    0.278889
      3          1           0        2.788900   -0.724265   -0.696415
      4          1           0        2.453845    1.037429    0.841265
      5          1           0        1.899497    0.376757   -0.969820
      6          6           0       -0.535197    0.573992   -0.054825
      7          1           0        0.547998   -1.120253    1.205855
      8          1           0        0.315061   -1.020610   -0.391199
      9          6           0       -1.990559   -0.159954   -0.106544
     10          1           0       -0.336835    0.938038   -0.791988
     11          1           0       -0.513900    1.474086    0.741266
     12          1           0       -2.637451   -0.836420   -0.854422
     13          1           0       -2.553556    0.444739    0.217930
     14          1           0       -2.261045   -0.393213    0.685667
 ---------------------------------------------------------------------

 SCF Done:  E(RB2PLYPD3) =  -157.740398982     A.U. after   11 cycles
 E2(B2PLYPD3) =    -0.2507407540D+00 E(B2PLYPD3) =    -0.15799113973561D+03

 The electronic state is 1-A.
 Alpha  occ. eigenvalues --  -10.62905 -10.61314 -10.59096 -10.56897  -0.93379
 Alpha  occ. eigenvalues --   -0.88607  -0.78221  -0.70944  -0.54335  -0.50420
 Alpha  occ. eigenvalues --   -0.48118  -0.46425  -0.42778  -0.41407  -0.39394
 Alpha  occ. eigenvalues --   -0.37571  -0.33570
 Alpha virt. eigenvalues --    0.04352   0.06192   0.08392   0.08617   0.09456
 Alpha virt. eigenvalues --    0.11213   0.12589   0.14185   0.14835   0.15179
 Alpha virt. eigenvalues --    0.16084   0.16576   0.18673   0.19595   0.21267

 Mulliken charges:
               1
     1  C   -0.216186
     2  C   -0.116271
     3  H    0.018859
     4  H    0.022694
     5  H    0.114724
     6  C   -0.165002
     7  H    0.047514
     8  H    0.135214
     9  C   -0.303693
    10  H    0.166359
    11  H    0.006628
    12  H    0.048420
    13  H    0.117033
    14  H    0.123707
 Sum of Mulliken charges =   0.00000

 Dipole moment (field-independent basis, Debye):
    X=             -0.8424    Y=              0.0604    Z=             -0.2969  Tot=              0.8952
 Quadrupole moment (field-independent basis, Debye-Ang):
   XX=            -29.5059   YY=            -29.3876   ZZ=            -27.5005
   XY=              0.4458   XZ=             -2.2293   YZ=              0.7339

 Normal termination of Gaussian 09 at Wed Aug 26 22:37:19 2020.
