 Gaussian 09, Revision D.01,
 Gaussian 09:  ES64L-G09RevD.01 24-Apr-2013

 --------------------
 #p B2PLYPD3/Def2QZVP
 --------------------

 ----------
 butane_opt
 ----------
 Symbolic Z-matrix:
 Charge =  0 Multiplicity = 1

                         Standard orientation:
 ---------------------------------------------------------------------
 Center     Atomic      Atomic             Coordinates (Angstroms)
 Number     Number       Type             X           Y           Z
 ---------------------------------------------------------------------
      1          6           0       -1.976701   -0.052011    0.141883
      2          6           0       -0.575488    0.504670   -0.104138
      3          1           0       -2.773796    0.641119   -0.273351
      4          1           0       -1.903211   -1.112531    1.185711
      5          1           0       -1.967783   -0.279694   -0.503718
      6          6           0        0.493542   -0.641206   -0.094297
      7          1           0       -0.498373    0.957590    0.626290
      8          1           0       -0.675365    1.392735   -1.136270
      9          6           0        2.034431    0.115334    0.107149
     10          1           0        0.543458   -1.307311   -0.866115
     11          1           0        0.154786   -0.980875    0.600490
     12          1           0        1.928084    0.275254   -0.398201
     13          1           0        2.542283   -0.365236   -0.797616
     14          1           0        2.795213    1.218224    1.259200
 ---------------------------------------------------------------------

 SCF Done:  E(RB2PLYPD3) =  -156.671636317     A.U. after   13 cycles
 E2(B2PLYPD3) =    -0.2601943863D+00 E(B2PLYPD3) =    -0.15693183070342D+03

 The electronic state is 1-A.
 Alpha  occ. eigenvalues --  -10.64205 -10.61298 -10.60660 -10.59654  -0.97416
 Alpha  occ. eigenvalues --   -0.93600  -0.82880  -0.72237  -0.54791  -0.50001
 Alpha  occ. eigenvalues --   -0.48180  -0.43903  -0.42033  -0.40068  -0.36496
 Alpha  occ. eigenvalues --   -0.36260  -0.35178
 Alpha virt. eigenvalues --   -0.01406   0.04107   0.05427   0.06796   0.09453
 Alpha virt. eigenvalues --    0.10578   0.11551   0.13251   0.13820   0.15627
 Alpha virt. eigenvalues --    0.15878   0.16437   0.17205   0.19247   0.19959

 Mulliken charges:
               1
     1  C   -0.729957
     2  C   -0.142417
     3  H    0.068109
     4  H    0.049270
     5  H    0.558834
     6  C   -0.201415
     7  H    0.190305
     8  H   -0.019028
     9  C   -1.036564
    10  H    0.056412
    11  H    0.216099
    12  H    0.896244
    13  H    0.011709
    14  H    0.082400
 Sum of Mulliken charges =   0.00000

 Dipole moment (field-independent basis, Debye):
    X=             -0.3447    Y=              0.0995    Z=             -0.8472  Tot=              0.9200
 Quadrupole moment (field-independent basis, Debye-Ang):
   XX=            -31.6111   YY=            -28.8294   ZZ=            -27.0009
   XY=              1.6626   XZ=              0.3690   YZ=              0.8122

 Normal termination of Gaussian 09 at Wed Aug 26 11:04:09 2020.
