 Gaussian 09, Revision D.01,
 Gaussian 09:  ES64L-G09RevD.01 24-Apr-2013

 --------------------
 #p B2PLYPD3/Def2QZVP
 --------------------

 ----------
 butane_opt
 ----------
 Symbolic Z-matrix:
 Charge =  0 Multiplicity = 1

                         Standard orientation:
 ---------------------------------------------------------------------
 Center     Atomic      Atomic             Coordinates (Angstroms)
 Number     Number       Type             X           Y           Z
 ---------------------------------------------------------------------
      1          6           0       -1.959055    0.160082   -0.127450
      2          6           0       -0.475456   -0.544466    0.154246
      3          1           0       -2.829553   -0.747110   -0.352304
      4          1           0       -2.036964    0.562210   -0.895759
      5          1           0       -2.249989    1.020774    0.924803
      6          6           0        0.532557    0.410062    0.101150
      7          1           0       -0.240273   -0.737235   -0.511537
      8          1           0       -0.327604   -1.440431    1.279486
      9          6           0        1.860039   -0.117931   -0.146740
     10          1           0        0.729306    1.262484    0.973111
     11          1           0        0.460444    1.214344   -0.939045
     12          1           0        2.045471   -0.528431    0.682962
     13          1           0        2.767431    0.859307    0.198398
     14          1           0        1.933224   -0.912390   -1.247354
 ---------------------------------------------------------------------

 SCF Done:  E(RB2PLYPD3) =  -157.622666159     A.U. after   12 cycles
 E2(B2PLYPD3) =    -0.2566575785D+00 E(B2PLYPD3) =    -0.15787932373758D+03

 The electronic state is 1-A.
 Alpha  occ. eigenvalues --  -10.63843 -10.63767 -10.63443 -10.61416  -0.98408
 Alpha  occ. eigenvalues --   -0.84199  -0.76992  -0.64681  -0.56062  -0.49680
 Alpha  occ. eigenvalues --   -0.47433  -0.46852  -0.41690  -0.39698  -0.37392
 Alpha  occ. eigenvalues --   -0.36222  -0.34056
 Alpha virt. eigenvalues --    0.03728   0.04510   0.05515   0.07013   0.09391
 Alpha virt. eigenvalues --    0.10589   0.11741   0.12568   0.13561   0.14203
 Alpha virt. eigenvalues --    0.15334   0.16059   0.18188   0.18589   0.20042

 Mulliken charges:
               1
     1  C   -0.216010
     2  C   -0.525061
     3  H    0.025361
     4  H    0.154119
     5  H    0.040441
     6  C   -0.012370
     7  H    0.500220
     8  H    0.035295
     9  C   -0.177193
    10  H    0.017765
    11  H    0.005079
    12  H    0.094527
    13  H    0.017273
    14  H    0.040555
 Sum of Mulliken charges =   0.00000

 Dipole moment (field-independent basis, Debye):
    X=              0.1509    Y=             -0.1880    Z=             -0.1348  Tot=              0.2762
 Quadrupole moment (field-independent basis, Debye-Ang):
   XX=            -32.0458   YY=            -30.2562   ZZ=            -28.3056
   XY=             -0.0718   XZ=              1.9991   YZ=              0.5214

 Normal termination of Gaussian 09 at Wed Aug 26 16:06:14 2020.
