 Gaussian 09, Revision D.01,
 Gaussian 09:  ES64L-G09RevD.01 24-Apr-2013

 --------------------
 #p B2PLYPD3/Def2QZVP
 --------------------

 ----------
 butane_opt
 ----------
 Symbolic Z-matrix:
 Charge =  0 Multiplicity = 1

                         Standard orientation:
 ---------------------------------------------------------------------
 Center     Atomic      Atomic             Coordinates (Angstroms)
 Number     Number       Type             X           Y           Z
 ---------------------------------------------------------------------
      1          6           0       -1.982296    0.061838   -0.062269
      2          6           0       -0.591321   -0.550695    0.114018
      3          1           0       -2.855384   -0.706906   -0.066341
      4          1           0       -2.108350    0.989269   -1.101682
      5          1           0       -2.266060    0.737722    0.727038
      6          6           0        0.521356    0.573825    0.122407
      7          1           0       -0.343818   -1.240980   -0.738323
      8          1           0       -0.297512   -0.982764    0.854395
      9          6           0        2.011927   -0.070070   -0.074351
     10          1           0        0.710746    1.321298    1.068703
     11          1           0        0.380028    0.941708   -0.717593
     12          1           0        2.491402   -0.754711    0.956066
     13          1           0        2.562457    0.355819   -0.744490
     14          1           0        1.968492   -0.749835   -0.836609
 ---------------------------------------------------------------------

 SCF Done:  E(RB2PLYPD3) =  -157.923559919     A.U. after   11 cycles
 E2(B2PLYPD3) =    -0.2508373651D+00 E(B2PLYPD3) =    -0.15817439728415D+03

 The electronic state is 1-A.
 Alpha  occ. eigenvalues --  -10.63933 -10.61110 -10.60200 -10.59881  -0.91255
 Alpha  occ. eigenvalues --   -0.83248  -0.74338  -0.69117  -0.55209  -0.48911
 Alpha  occ. eigenvalues --   -0.47374  -0.46959  -0.41598  -0.39851  -0.38517
 Alpha  occ. eigenvalues --   -0.37045  -0.35449
 Alpha virt. eigenvalues --    0.05081   0.05798   0.08066   0.08811   0.10445
 Alpha virt. eigenvalues --    0.11028   0.12709   0.12816   0.13632   0.14995
 Alpha virt. eigenvalues --    0.15752   0.17077   0.18834   0.19349   0.21262

 Mulliken charges:
               1
     1  C   -0.144328
     2  C   -0.094184
     3  H    0.052715
     4  H    0.009537
     5  H    0.055323
     6  C   -0.122580
     7  H    0.031330
     8  H    0.104610
     9  C   -0.177875
    10  H    0.045135
    11  H    0.107422
    12  H    0.034813
    13  H    0.057458
    14  H    0.040625
 Sum of Mulliken charges =   0.00000

 Dipole moment (field-independent basis, Debye):
    X=             -0.0466    Y=             -0.2326    Z=             -0.1485  Tot=              0.2798
 Quadrupole moment (field-independent basis, Debye-Ang):
   XX=            -30.3376   YY=            -29.4507   ZZ=            -27.9651
   XY=             -0.2863   XZ=             -1.6037   YZ=             -0.2097

 Normal termination of Gaussian 09 at Wed Aug 26 21:56:33 2020.
