 Gaussian 09, Revision D.01,
 Gaussian 09:  ES64L-G09RevD.01 24-Apr-2013

 --------------------
 #p B2PLYPD3/Def2QZVP
 --------------------

 ----------
 butane_opt
 ----------
 Symbolic Z-matrix:
 Charge =  0 Multiplicity = 1

                         Standard orientation:
 ---------------------------------------------------------------------
 Center     Atomic      Atomic             Coordinates (Angstroms)
 Number     Number       Type             X           Y           Z
 ---------------------------------------------------------------------
      1          6           0        1.922541    0.103444   -0.092215
      2          6           0        0.653504   -0.499002    0.126716
      3          1           0        2.732476   -0.813243   -0.354532
      4          1           0        2.290434    0.781222    0.630613
      5          1           0        1.957105    0.515307   -0.879239
      6          6           0       -0.526279    0.621949    0.061781
      7          1           0        0.594039   -1.471890    1.309099
      8          1           0        0.610245   -0.777882   -0.546129
      9          6           0       -2.022237   -0.189122   -0.038893
     10          1           0       -0.461653    1.249337   -0.868926
     11          1           0       -0.639062    1.633863    0.969538
     12          1           0       -2.169198   -1.161702   -0.991264
     13          1           0       -2.731973    0.292561   -0.172667
     14          1           0       -2.347585   -0.471181    0.559179
 ---------------------------------------------------------------------

 SCF Done:  E(RB2PLYPD3) =  -157.509828069     A.U. after   11 cycles
 E2(B2PLYPD3) =    -0.2510594861D+00 E(B2PLYPD3) =    -0.15776088755534D+03

 The electronic state is 1-A.
 Alpha  occ. eigenvalues --  -10.66501 -10.61402 -10.58632 -10.57258  -0.95299
 Alpha  occ. eigenvalues --   -0.88779  -0.76708  -0.70289  -0.55331  -0.50323
 Alpha  occ. eigenvalues --   -0.47618  -0.46897  -0.43293  -0.42440  -0.38226
 Alpha  occ. eigenvalues --   -0.36897  -0.35248
 Alpha virt. eigenvalues --    0.04448   0.05897   0.06241   0.07587   0.10839
 Alpha virt. eigenvalues --    0.11138   0.11966   0.13908   0.14160   0.15183
 Alpha virt. eigenvalues --    0.15801   0.16922   0.18988   0.19320   0.19977

 Mulliken charges:
               1
     1  C   -0.162893
     2  C   -0.537757
     3  H    0.017555
     4  H    0.059052
     5  H    0.097667
     6  C   -0.041536
     7  H    0.014753
     8  H    0.536985
     9  C   -0.433705
    10  H    0.048128
    11  H    0.012687
    12  H    0.006666
    13  H    0.085755
    14  H    0.296645
 Sum of Mulliken charges =   0.00000

 Dipole moment (field-independent basis, Debye):
    X=             -0.0839    Y=              0.5186    Z=             -0.4212  Tot=              0.6733
 Quadrupole moment (field-independent basis, Debye-Ang):
   XX=            -28.3393   YY=            -28.9551   ZZ=            -28.5646
   XY=             -0.1205   XZ=             -1.4428   YZ=              0.0932

 Normal termination of Gaussian 09 at Wed Aug 26 12:08:04 2020.
