 Gaussian 09, Revision D.01,
 Gaussian 09:  ES64L-G09RevD.01 24-Apr-2013

 --------------------
 #p B2PLYPD3/Def2QZVP
 --------------------

 ----------
 butane_opt
 ----------
 Symbolic Z-matrix:
 Charge =  0 Multiplicity = 1

                         Standard orientation:
 ---------------------------------------------------------------------
 Center     Atomic      Atomic             Coordinates (Angstroms)
 Number     Number       Type             X           Y           Z
 ---------------------------------------------------------------------
      1          6           0       -1.941949   -0.121470    0.059902
      2          6           0       -0.553711    0.481039   -0.188051
      3          1           0       -2.632415    0.780644    0.666019
      4          1           0       -1.695103   -0.535334    0.879205
      5          1           0       -2.550056   -1.113080   -0.947366
      6          6           0        0.608176   -0.487621   -0.008785
      7          1           0       -0.182047    1.215576    0.651482
      8          1           0       -0.305058    1.092485   -1.177601
      9          6           0        1.860427    0.060172    0.018095
     10          1           0        0.925425   -0.909402   -0.604386
     11          1           0        0.222671   -1.004377    1.074275
     12          1           0        1.614597    0.619021   -0.835851
     13          1           0        2.619184   -0.720532   -0.001389
     14          1           0        2.145140    0.982279    1.008647
 ---------------------------------------------------------------------

 SCF Done:  E(RB2PLYPD3) =  -157.770955864     A.U. after   11 cycles
 E2(B2PLYPD3) =    -0.2555522561D+00 E(B2PLYPD3) =    -0.15802650812008D+03

 The electronic state is 1-A.
 Alpha  occ. eigenvalues --  -10.64891 -10.63544 -10.62254 -10.58634  -0.99066
 Alpha  occ. eigenvalues --   -0.86631  -0.71359  -0.66830  -0.57275  -0.53892
 Alpha  occ. eigenvalues --   -0.48235  -0.45187  -0.42145  -0.39279  -0.37699
 Alpha  occ. eigenvalues --   -0.36060  -0.34942
 Alpha virt. eigenvalues --    0.03273   0.05355   0.07250   0.07623   0.09377
 Alpha virt. eigenvalues --    0.10415   0.12272   0.13018   0.13826   0.14581
 Alpha virt. eigenvalues --    0.15556   0.16004   0.18881   0.19298   0.19716

 Mulliken charges:
               1
     1  C   -0.222321
     2  C   -0.024747
     3  H    0.038996
     4  H    0.129183
     5  H    0.045088
     6  C   -0.246257
     7  H    0.050223
     8  H    0.008590
     9  C   -0.160162
    10  H    0.267249
    11  H   -0.004931
    12  H    0.071421
    13  H    0.072066
    14  H   -0.024397
 Sum of Mulliken charges =   0.00000

 Dipole moment (field-independent basis, Debye):
    X=              0.3053    Y=             -0.4065    Z=             -0.1347  Tot=              0.5259
 Quadrupole moment (field-independent basis, Debye-Ang):
   XX=            -31.5228   YY=            -30.1827   ZZ=            -28.8640
   XY=             -1.0430   XZ=             -1.3994   YZ=              0.9058

 Normal termination of Gaussian 09 at Wed Aug 26 11:09:37 2020.
