 Gaussian 09, Revision D.01,
 Gaussian 09:  ES64L-G09RevD.01 24-Apr-2013

 --------------------
 #p B2PLYPD3/Def2QZVP
 --------------------

 ----------
 butane_opt
 ----------
 Symbolic Z-matrix:
 Charge =  0 Multiplicity = 1

                         Standard orientation:
 ---------------------------------------------------------------------
 Center     Atomic      Atomic             Coordinates (Angstroms)
 Number     Number       Type             X           Y           Z
 ---------------------------------------------------------------------
      1          6           0       -2.014128   -0.129355    0.122194
      2          6           0       -0.516834    0.593129   -0.096860
      3          1           0       -2.760420    0.481022   -0.212873
      4          1           0       -2.181819   -0.828348    1.045237
      5          1           0       -2.117268   -0.725668   -0.742715
      6          6           0        0.581187   -0.476830   -0.017104
      7          1           0       -0.442487    1.004783    0.571911
      8          1           0       -0.469459    1.356564   -1.143319
      9          6           0        1.944293    0.046361    0.059712
     10          1           0        0.614784   -1.230171   -0.980077
     11          1           0        0.428170   -1.108252    0.865267
     12          1           0        1.887252    0.323701   -0.578873
     13          1           0        2.680466   -0.616883   -0.478519
     14          1           0        2.393680    1.143419    1.246307
 ---------------------------------------------------------------------

 SCF Done:  E(RB2PLYPD3) =  -157.598242665     A.U. after   12 cycles
 E2(B2PLYPD3) =    -0.2525318859D+00 E(B2PLYPD3) =    -0.15785077455087D+03

 The electronic state is 1-A.
 Alpha  occ. eigenvalues --  -10.62559 -10.60835 -10.60402 -10.60230  -0.95384
 Alpha  occ. eigenvalues --   -0.86738  -0.76475  -0.69117  -0.53899  -0.49640
 Alpha  occ. eigenvalues --   -0.49000  -0.45401  -0.42880  -0.40566  -0.38312
 Alpha  occ. eigenvalues --   -0.37268  -0.35318
 Alpha virt. eigenvalues --    0.02451   0.05340   0.06774   0.07527   0.10427
 Alpha virt. eigenvalues --    0.11228   0.12328   0.13106   0.13849   0.15218
 Alpha virt. eigenvalues --    0.16200   0.16704   0.18125   0.19336   0.20512

 Mulliken charges:
               1
     1  C   -0.147391
     2  C   -0.330102
     3  H    0.050464
     4  H    0.058467
     5  H    0.038179
     6  C    0.033351
     7  H    0.295066
     8  H    0.021909
     9  C   -0.654323
    10  H    0.008384
    11  H    0.039271
    12  H    0.511365
    13  H    0.060321
    14  H    0.015039
 Sum of Mulliken charges =   0.00000

 Dipole moment (field-independent basis, Debye):
    X=             -0.3693    Y=             -0.1056    Z=             -0.6423  Tot=              0.7484
 Quadrupole moment (field-independent basis, Debye-Ang):
   XX=            -30.6017   YY=            -29.4109   ZZ=            -27.7367
   XY=             -0.1901   XZ=             -1.2598   YZ=              0.1119

 Normal termination of Gaussian 09 at Wed Aug 26 21:33:03 2020.
