 Gaussian 09, Revision D.01,
 Gaussian 09:  ES64L-G09RevD.01 24-Apr-2013

 --------------------
 #p B2PLYPD3/Def2QZVP
 --------------------

 ----------
 butane_opt
 ----------
 Symbolic Z-matrix:
 Charge =  0 Multiplicity = 1

                         Standard orientation:
 ---------------------------------------------------------------------
 Center     Atomic      Atomic             Coordinates (Angstroms)
 Number     Number       Type             X           Y           Z
 ---------------------------------------------------------------------
      1          6           0       -1.989268   -0.122620    0.037433
      2          6           0       -0.539325    0.597140   -0.027447
      3          1           0       -2.668243    0.485557   -0.219595
      4          1           0       -2.460890   -0.876115    1.001208
      5          1           0       -2.060021   -0.730881   -0.721478
      6          6           0        0.584267   -0.517719   -0.005972
      7          1           0       -0.349386    1.056292    0.654842
      8          1           0       -0.485386    1.271071   -0.982968
      9          6           0        1.980153    0.109180    0.033734
     10          1           0        0.582968   -1.215798   -0.930567
     11          1           0        0.479805   -1.056582    0.872178
     12          1           0        1.837462    0.457753   -0.717360
     13          1           0        2.779661   -0.725523   -0.271107
     14          1           0        2.129066    0.938347    1.088357
 ---------------------------------------------------------------------

 SCF Done:  E(RB2PLYPD3) =  -157.874144113     A.U. after   11 cycles
 E2(B2PLYPD3) =    -0.2484039989D+00 E(B2PLYPD3) =    -0.15812254811215D+03

 The electronic state is 1-A.
 Alpha  occ. eigenvalues --  -10.60781 -10.60185 -10.60168 -10.59427  -0.92066
 Alpha  occ. eigenvalues --   -0.84753  -0.75941  -0.68111  -0.54564  -0.49019
 Alpha  occ. eigenvalues --   -0.48144  -0.47049  -0.43633  -0.40569  -0.39177
 Alpha  occ. eigenvalues --   -0.37385  -0.37009
 Alpha virt. eigenvalues --    0.05386   0.06272   0.08077   0.08144   0.10622
 Alpha virt. eigenvalues --    0.12107   0.12423   0.13123   0.14451   0.15150
 Alpha virt. eigenvalues --    0.16275   0.16676   0.18920   0.19347   0.21106

 Mulliken charges:
               1
     1  C   -0.149008
     2  C   -0.180838
     3  H    0.055571
     4  H    0.022363
     5  H    0.052201
     6  C   -0.031373
     7  H    0.169211
     8  H    0.019916
     9  C   -0.326510
    10  H    0.018643
    11  H    0.060372
    12  H    0.212595
    13  H    0.041783
    14  H    0.035075
 Sum of Mulliken charges =   0.00000

 Dipole moment (field-independent basis, Debye):
    X=             -0.2450    Y=              0.0937    Z=             -0.4225  Tot=              0.4973
 Quadrupole moment (field-independent basis, Debye-Ang):
   XX=            -30.3775   YY=            -28.7982   ZZ=            -27.8215
   XY=             -0.4578   XZ=              0.1621   YZ=              0.3742

 Normal termination of Gaussian 09 at Wed Aug 26 23:44:00 2020.
