 Gaussian 09, Revision D.01,
 Gaussian 09:  ES64L-G09RevD.01 24-Apr-2013

 --------------------
 #p B2PLYPD3/Def2QZVP
 --------------------

 ----------
 butane_opt
 ----------
 Symbolic Z-matrix:
 Charge =  0 Multiplicity = 1

                         Standard orientation:
 ---------------------------------------------------------------------
 Center     Atomic      Atomic             Coordinates (Angstroms)
 Number     Number       Type             X           Y           Z
 ---------------------------------------------------------------------
      1          6           0       -1.874624    0.120421   -0.144999
      2          6           0       -0.616451   -0.444362    0.232561
      3          1           0       -2.872262   -0.902807   -0.309502
      4          1           0       -1.791123    0.299078   -0.895873
      5          1           0       -2.075524    1.120981    0.733362
      6          6           0        0.528376    0.521403    0.069948
      7          1           0       -0.335531   -1.047037   -0.493142
      8          1           0       -0.456393   -1.078683    1.216083
      9          6           0        1.927838   -0.186948   -0.110128
     10          1           0        0.622137    1.271934    0.979131
     11          1           0        0.302703    1.229546   -1.019304
     12          1           0        2.366469   -0.588930    0.798849
     13          1           0        2.702655    0.540659   -0.242980
     14          1           0        1.746036   -0.907824   -1.050914
 ---------------------------------------------------------------------

 SCF Done:  E(RB2PLYPD3) =  -157.864557794     A.U. after   11 cycles
 E2(B2PLYPD3) =    -0.2517145067D+00 E(B2PLYPD3) =    -0.15811627230075D+03

 The electronic state is 1-A.
 Alpha  occ. eigenvalues --  -10.64437 -10.61991 -10.61763 -10.59926  -0.94230
 Alpha  occ. eigenvalues --   -0.84310  -0.74241  -0.65292  -0.56395  -0.49798
 Alpha  occ. eigenvalues --   -0.48294  -0.47220  -0.42453  -0.40375  -0.38051
 Alpha  occ. eigenvalues --   -0.36652  -0.35542
 Alpha virt. eigenvalues --    0.04452   0.05892   0.07231   0.07649   0.09913
 Alpha virt. eigenvalues --    0.10886   0.12304   0.12453   0.14284   0.15007
 Alpha virt. eigenvalues --    0.15180   0.16842   0.18536   0.19174   0.20487

 Mulliken charges:
               1
     1  C   -0.406259
     2  C   -0.025063
     3  H    0.008057
     4  H    0.298196
     5  H    0.049792
     6  C   -0.045082
     7  H    0.059963
     8  H    0.032702
     9  C   -0.129606
    10  H    0.020390
    11  H    0.004935
    12  H    0.041235
    13  H    0.047761
    14  H    0.042979
 Sum of Mulliken charges =   0.00000

 Dipole moment (field-independent basis, Debye):
    X=              0.7461    Y=             -0.0726    Z=             -0.0965  Tot=              0.7558
 Quadrupole moment (field-independent basis, Debye-Ang):
   XX=            -31.4013   YY=            -30.0696   ZZ=            -28.3185
   XY=              0.4137   XZ=              1.3616   YZ=              0.5893

 Normal termination of Gaussian 09 at Wed Aug 26 20:54:33 2020.
