 Gaussian 09, Revision D.01,
 Gaussian 09:  ES64L-G09RevD.01 24-Apr-2013

 --------------------
 #p B2PLYPD3/Def2QZVP
 --------------------

 ----------
 butane_opt
 ----------
 Symbolic Z-matrix:
 Charge =  0 Multiplicity = 1

                         Standard orientation:
 ---------------------------------------------------------------------
 Center     Atomic      Atomic             Coordinates (Angstroms)
 Number     Number       Type             X           Y           Z
 ---------------------------------------------------------------------
      1          6           0       -1.944950    0.053774   -0.031827
      2          6           0       -0.688210   -0.425913   -0.004190
      3          1           0       -2.612039   -0.562298   -0.187413
      4          1           0       -1.830489    0.962941   -1.024058
      5          1           0       -2.103043    0.499476    0.663347
      6          6           0        0.527235    0.554189    0.123319
      7          1           0       -0.421678   -1.140794   -0.887127
      8          1           0       -0.642465   -1.276577    0.987028
      9          6           0        2.032068   -0.150721   -0.032108
     10          1           0        0.307765    1.291994    1.239905
     11          1           0        0.451794    1.016997   -0.613951
     12          1           0        2.401339   -0.943531    0.825911
     13          1           0        2.830359    0.624001   -0.561949
     14          1           0        2.061598   -0.660188   -0.772850
 ---------------------------------------------------------------------

 SCF Done:  E(RB2PLYPD3) =  -157.818130488     A.U. after   11 cycles
 E2(B2PLYPD3) =    -0.2500018113D+00 E(B2PLYPD3) =    -0.15806813229954D+03

 The electronic state is 1-A.
 Alpha  occ. eigenvalues --  -10.62726 -10.62660 -10.61841 -10.57288  -0.94415
 Alpha  occ. eigenvalues --   -0.85696  -0.76020  -0.67077  -0.56995  -0.52913
 Alpha  occ. eigenvalues --   -0.48521  -0.47087  -0.43065  -0.42104  -0.39354
 Alpha  occ. eigenvalues --   -0.36324  -0.33324
 Alpha virt. eigenvalues --    0.05142   0.06174   0.07159   0.07531   0.10362
 Alpha virt. eigenvalues --    0.11413   0.12178   0.13189   0.14377   0.14902
 Alpha virt. eigenvalues --    0.15160   0.17014   0.18647   0.19429   0.20443

 Mulliken charges:
               1
     1  C   -0.186116
     2  C    0.008157
     3  H    0.066671
     4  H   -0.020361
     5  H    0.137626
     6  C   -0.159625
     7  H    0.016344
     8  H   -0.031059
     9  C   -0.209064
    10  H    0.008420
    11  H    0.173822
    12  H    0.050256
    13  H    0.025970
    14  H    0.118960
 Sum of Mulliken charges =   0.00000

 Dipole moment (field-independent basis, Debye):
    X=             -0.3053    Y=             -0.3249    Z=             -0.4316  Tot=              0.6205
 Quadrupole moment (field-independent basis, Debye-Ang):
   XX=            -29.1126   YY=            -29.8051   ZZ=            -28.6714
   XY=              0.0229   XZ=             -2.2238   YZ=              0.0003

 Normal termination of Gaussian 09 at Wed Aug 26 14:09:29 2020.
