 Gaussian 09, Revision D.01,
 Gaussian 09:  ES64L-G09RevD.01 24-Apr-2013

 --------------------
 #p B2PLYPD3/Def2QZVP
 --------------------

 ----------
 butane_opt
 ----------
 Symbolic Z-matrix:
 Charge =  0 Multiplicity = 1

                         Standard orientation:
 ---------------------------------------------------------------------
 Center     Atomic      Atomic             Coordinates (Angstroms)
 Number     Number       Type             X           Y           Z
 ---------------------------------------------------------------------
      1          6           0        1.931143    0.060187   -0.185868
      2          6           0        0.610401   -0.481845    0.097079
      3          1           0        2.757882   -0.921831    0.369544
      4          1           0        2.057781    0.549384    0.576380
      5          1           0        2.255947    0.978233   -1.227330
      6          6           0       -0.532710    0.607423    0.174012
      7          1           0        0.461045   -1.283690    1.119421
      8          1           0        0.575856   -0.946776   -0.563741
      9          6           0       -2.022125   -0.111734   -0.152291
     10          1           0       -0.307196    0.925390   -0.401492
     11          1           0       -0.422604    1.517316    1.332834
     12          1           0       -1.984263   -0.753666   -1.076023
     13          1           0       -2.585421    0.258736   -0.500055
     14          1           0       -2.729288   -0.767279    0.772871
 ---------------------------------------------------------------------

 SCF Done:  E(RB2PLYPD3) =  -157.384076523     A.U. after   11 cycles
 E2(B2PLYPD3) =    -0.2545616817D+00 E(B2PLYPD3) =    -0.15763863820456D+03

 The electronic state is 1-A.
 Alpha  occ. eigenvalues --  -10.63263 -10.62661 -10.60653 -10.59897  -0.95088
 Alpha  occ. eigenvalues --   -0.86446  -0.79830  -0.71331  -0.54883  -0.49209
 Alpha  occ. eigenvalues --   -0.46305  -0.45217  -0.42284  -0.40336  -0.39255
 Alpha  occ. eigenvalues --   -0.37200  -0.34319
 Alpha virt. eigenvalues --    0.03196   0.04609   0.05917   0.06858   0.10404
 Alpha virt. eigenvalues --    0.10997   0.12090   0.13383   0.13643   0.15099
 Alpha virt. eigenvalues --    0.15278   0.15918   0.18243   0.19198   0.21064

 Mulliken charges:
               1
     1  C   -0.260299
     2  C   -0.225801
     3  H    0.027562
     4  H    0.141408
     5  H    0.049734
     6  C   -0.609162
     7  H    0.025173
     8  H    0.266052
     9  C   -0.384137
    10  H    0.581357
    11  H    0.023758
    12  H    0.027719
    13  H    0.299491
    14  H    0.037143
 Sum of Mulliken charges =   0.00000

 Dipole moment (field-independent basis, Debye):
    X=             -0.2694    Y=              0.3697    Z=             -0.4908  Tot=              0.6709
 Quadrupole moment (field-independent basis, Debye-Ang):
   XX=            -30.0041   YY=            -29.5410   ZZ=            -28.0427
   XY=              0.8426   XZ=              1.4538   YZ=             -0.8237

 Normal termination of Gaussian 09 at Wed Aug 26 12:56:29 2020.
