 Gaussian 09, Revision D.01,
 Gaussian 09:  ES64L-G09RevD.01 24-Apr-2013

 --------------------
 #p B2PLYPD3/Def2QZVP
 --------------------

 ----------
 butane_opt
 ----------
 Symbolic Z-matrix:
 Charge =  0 Multiplicity = 1

                         Standard orientation:
 ---------------------------------------------------------------------
 Center     Atomic      Atomic             Coordinates (Angstroms)
 Number     Number       Type             X           Y           Z
 ---------------------------------------------------------------------
      1          6           0        1.910463   -0.084421   -0.066593
      2          6           0        0.519733    0.433506    0.108422
      3          1           0        2.893120    0.899052   -0.198386
      4          1           0        2.008519   -0.725392   -0.941201
      5          1           0        1.964514   -0.362451    0.648397
      6          6           0       -0.498105   -0.628826   -0.030905
      7          1           0        0.387201    0.911459   -0.575417
      8          1           0        0.627910    1.433467    1.273372
      9          6           0       -1.956965    0.147855   -0.060127
     10          1           0       -0.432769   -1.544538    0.855895
     11          1           0       -0.263988   -1.114766   -0.817443
     12          1           0       -1.705108    0.359736    0.471233
     13          1           0       -2.622895   -0.369308    0.692458
     14          1           0       -2.707258    1.304063   -1.113692
 ---------------------------------------------------------------------

 SCF Done:  E(RB2PLYPD3) =  -157.232908807     A.U. after   12 cycles
 E2(B2PLYPD3) =    -0.2567042341D+00 E(B2PLYPD3) =    -0.15748961304091D+03

 The electronic state is 1-A.
 Alpha  occ. eigenvalues --  -10.63982 -10.61984 -10.61671 -10.59537  -0.97009
 Alpha  occ. eigenvalues --   -0.90367  -0.79020  -0.70413  -0.56613  -0.50410
 Alpha  occ. eigenvalues --   -0.48455  -0.46029  -0.42142  -0.40224  -0.37580
 Alpha  occ. eigenvalues --   -0.36646  -0.35417
 Alpha virt. eigenvalues --   -0.00358   0.04052   0.06108   0.06694   0.10110
 Alpha virt. eigenvalues --    0.10312   0.11709   0.12492   0.14473   0.15779
 Alpha virt. eigenvalues --    0.16016   0.16317   0.17063   0.18714   0.20132

 Mulliken charges:
               1
     1  C   -0.421054
     2  C   -0.201190
     3  H    0.013757
     4  H    0.069932
     5  H    0.318561
     6  C   -0.038189
     7  H    0.220542
     8  H   -0.022793
     9  C   -0.873424
    10  H    0.015261
    11  H    0.084772
    12  H    0.710601
    13  H    0.065582
    14  H    0.057641
 Sum of Mulliken charges =   0.00000

 Dipole moment (field-independent basis, Debye):
    X=              0.2370    Y=             -0.3720    Z=             -0.0780  Tot=              0.4480
 Quadrupole moment (field-independent basis, Debye-Ang):
   XX=            -31.5556   YY=            -29.1737   ZZ=            -28.1859
   XY=             -1.2811   XZ=             -1.0104   YZ=             -0.9385

 Normal termination of Gaussian 09 at Wed Aug 26 21:57:58 2020.
