 Gaussian 09, Revision D.01,
 Gaussian 09:  ES64L-G09RevD.01 24-Apr-2013

 --------------------
 #p B2PLYPD3/Def2QZVP
 --------------------

 ----------
 butane_opt
 ----------
 Symbolic Z-matrix:
 Charge =  0 Multiplicity = 1

                         Standard orientation:
 ---------------------------------------------------------------------
 Center     Atomic      Atomic             Coordinates (Angstroms)
 Number     Number       Type             X           Y           Z
 ---------------------------------------------------------------------
      1          6           0       -1.891231    0.060199   -0.181089
      2          6           0       -0.509551   -0.457753    0.183041
      3          1           0       -2.793951   -0.886364    0.036432
      4          1           0       -2.127657    0.646926   -1.179924
      5          1           0       -1.751603    0.674872    0.594251
      6          6           0        0.469926    0.616159    0.203759
      7          1           0       -0.418051   -0.937102   -0.603215
      8          1           0       -0.585409   -1.165117    1.104357
      9          6           0        1.934821   -0.124658   -0.212381
     10          1           0        0.500218    1.631305    1.168363
     11          1           0        0.241243    0.896996   -0.372173
     12          1           0        2.568580   -1.072826    1.075155
     13          1           0        2.659781    0.325592   -0.852592
     14          1           0        1.683061   -0.677957   -0.930632
 ---------------------------------------------------------------------

 SCF Done:  E(RB2PLYPD3) =  -157.569161842     A.U. after   12 cycles
 E2(B2PLYPD3) =    -0.2548811395D+00 E(B2PLYPD3) =    -0.15782404298136D+03

 The electronic state is 1-A.
 Alpha  occ. eigenvalues --  -10.64409 -10.61917 -10.61634 -10.59820  -0.97583
 Alpha  occ. eigenvalues --   -0.84182  -0.77093  -0.69372  -0.56877  -0.50899
 Alpha  occ. eigenvalues --   -0.48904  -0.44990  -0.42751  -0.40065  -0.38655
 Alpha  occ. eigenvalues --   -0.36023  -0.33957
 Alpha virt. eigenvalues --    0.01692   0.05232   0.06815   0.08182   0.08937
 Alpha virt. eigenvalues --    0.10834   0.12278   0.12738   0.14096   0.15088
 Alpha virt. eigenvalues --    0.16080   0.16475   0.18034   0.18934   0.19791

 Mulliken charges:
               1
     1  C   -0.216004
     2  C   -0.064689
     3  H    0.030237
     4  H    0.047425
     5  H    0.085600
     6  C   -0.678002
     7  H    0.112508
     8  H    0.042031
     9  C   -0.192998
    10  H    0.040960
    11  H    0.618709
    12  H   -0.002566
    13  H    0.061451
    14  H    0.115338
 Sum of Mulliken charges =   0.00000

 Dipole moment (field-independent basis, Debye):
    X=             -0.2897    Y=              0.1240    Z=             -1.0233  Tot=              1.0707
 Quadrupole moment (field-independent basis, Debye-Ang):
   XX=            -32.7585   YY=            -29.5677   ZZ=            -27.6562
   XY=              0.7994   XZ=             -1.2957   YZ=             -0.3649

 Normal termination of Gaussian 09 at Wed Aug 26 11:23:50 2020.
