 Gaussian 09, Revision D.01,
 Gaussian 09:  ES64L-G09RevD.01 24-Apr-2013

 --------------------
 #p B2PLYPD3/Def2QZVP
 --------------------

 ----------
 butane_opt
 ----------
 Symbolic Z-matrix:
 Charge =  0 Multiplicity = 1

                         Standard orientation:
 ---------------------------------------------------------------------
 Center     Atomic      Atomic             Coordinates (Angstroms)
 Number     Number       Type             X           Y           Z
 ---------------------------------------------------------------------
      1          6           0       -1.888690   -0.057305    0.147186
      2          6           0       -0.648437    0.414785   -0.203217
      3          1           0       -2.552018    0.781890    0.089151
      4          1           0       -2.206766   -1.062164    1.283666
      5          1           0       -2.062571   -0.520186   -0.531409
      6          6           0        0.561012   -0.575694   -0.098134
      7          1           0       -0.333918    0.852947    0.438823
      8          1           0       -0.627075    1.309983   -1.367723
      9          6           0        1.997268    0.145268    0.097455
     10          1           0        0.334153   -1.210741   -0.904066
     11          1           0        0.531495   -0.787303    0.650583
     12          1           0        2.031508    0.194090   -0.511323
     13          1           0        2.758385   -0.637214   -0.127999
     14          1           0        1.999885    1.516379    1.320558
 ---------------------------------------------------------------------

 SCF Done:  E(RB2PLYPD3) =  -157.098100791     A.U. after   12 cycles
 E2(B2PLYPD3) =    -0.2578659770D+00 E(B2PLYPD3) =    -0.15735596676777D+03

 The electronic state is 1-A.
 Alpha  occ. eigenvalues --  -10.62375 -10.59926 -10.59791 -10.58037  -0.97245
 Alpha  occ. eigenvalues --   -0.91538  -0.80871  -0.70571  -0.58493  -0.50998
 Alpha  occ. eigenvalues --   -0.49200  -0.46101  -0.43760  -0.39791  -0.37113
 Alpha  occ. eigenvalues --   -0.35142  -0.33714
 Alpha virt. eigenvalues --   -0.01909   0.02706   0.05904   0.07088   0.09713
 Alpha virt. eigenvalues --    0.11293   0.11610   0.12729   0.13475   0.15066
 Alpha virt. eigenvalues --    0.15541   0.16754   0.18619   0.19112   0.21412

 Mulliken charges:
               1
     1  C   -0.245487
     2  C   -0.218414
     3  H    0.067401
     4  H    0.005671
     5  H    0.170772
     6  C   -0.397545
     7  H    0.221849
     8  H   -0.008992
     9  C   -0.847282
    10  H    0.074568
    11  H    0.372391
    12  H    0.673125
    13  H    0.078734
    14  H    0.053209
 Sum of Mulliken charges =   0.00000

 Dipole moment (field-independent basis, Debye):
    X=             -0.0518    Y=             -0.1212    Z=             -0.5500  Tot=              0.5656
 Quadrupole moment (field-independent basis, Debye-Ang):
   XX=            -30.0767   YY=            -28.9016   ZZ=            -28.3408
   XY=             -0.6449   XZ=             -0.3359   YZ=              1.3361

 Normal termination of Gaussian 09 at Wed Aug 26 11:52:42 2020.
