 Gaussian 09, Revision D.01,
 Gaussian 09:  ES64L-G09RevD.01 24-Apr-2013

 --------------------
 #p B2PLYPD3/Def2QZVP
 --------------------

 ----------
 butane_opt
 ----------
 Symbolic Z-matrix:
 Charge =  0 Multiplicity = 1

                         Standard orientation:
 ---------------------------------------------------------------------
 Center     Atomic      Atomic             Coordinates (Angstroms)
 Number     Number       Type             X           Y           Z
 ---------------------------------------------------------------------
      1          6           0       -1.826124   -0.045398   -0.136623
      2          6           0       -0.580126    0.431986    0.117169
      3          1           0       -2.604668    0.818826    0.034204
      4          1           0       -1.947230   -0.594211    0.594431
      5          1           0       -1.915586   -0.934480   -1.201178
      6          6           0        0.522756   -0.628805    0.185296
      7          1           0       -0.728755    1.155354    1.030616
      8          1           0       -0.314954    1.357061   -0.771371
      9          6           0        1.947101    0.138330   -0.163433
     10          1           0        0.194676   -0.866013   -0.433508
     11          1           0        0.245135   -1.514798    1.213629
     12          1           0        1.529369    0.472487   -0.881034
     13          1           0        2.720113   -0.516071   -0.530375
     14          1           0        2.440257    1.245171    0.930135
 ---------------------------------------------------------------------

 SCF Done:  E(RB2PLYPD3) =  -157.649677094     A.U. after   11 cycles
 E2(B2PLYPD3) =    -0.2556710937D+00 E(B2PLYPD3) =    -0.15790534818814D+03

 The electronic state is 1-A.
 Alpha  occ. eigenvalues --  -10.63898 -10.63144 -10.61614 -10.61073  -0.97234
 Alpha  occ. eigenvalues --   -0.86828  -0.76562  -0.65736  -0.54201  -0.51505
 Alpha  occ. eigenvalues --   -0.50198  -0.46041  -0.42685  -0.39019  -0.38435
 Alpha  occ. eigenvalues --   -0.36336  -0.34296
 Alpha virt. eigenvalues --    0.02874   0.05053   0.05853   0.07140   0.09595
 Alpha virt. eigenvalues --    0.10565   0.12295   0.12458   0.14408   0.14756
 Alpha virt. eigenvalues --    0.15606   0.16452   0.17675   0.19172   0.20036

 Mulliken charges:
               1
     1  C   -0.180576
     2  C    0.000077
     3  H    0.056249
     4  H    0.110410
     5  H    0.002782
     6  C   -0.547342
     7  H    0.020954
     8  H   -0.014678
     9  C   -0.234067
    10  H    0.490506
    11  H    0.025352
    12  H    0.181319
    13  H    0.066493
    14  H    0.022521
 Sum of Mulliken charges =   0.00000

 Dipole moment (field-independent basis, Debye):
    X=             -0.3435    Y=             -0.1341    Z=             -0.0913  Tot=              0.3799
 Quadrupole moment (field-independent basis, Debye-Ang):
   XX=            -30.4901   YY=            -29.6983   ZZ=            -29.1774
   XY=             -0.9787   XZ=             -2.1139   YZ=              0.6553

 Normal termination of Gaussian 09 at Wed Aug 26 22:16:48 2020.
