 Gaussian 09, Revision D.01,
 Gaussian 09:  ES64L-G09RevD.01 24-Apr-2013

 --------------------
 #p B2PLYPD3/Def2QZVP
 --------------------

 ----------
 butane_opt
 ----------
 Symbolic Z-matrix:
 Charge =  0 Multiplicity = 1

                         Standard orientation:
 ---------------------------------------------------------------------
 Center     Atomic      Atomic             Coordinates (Angstroms)
 Number     Number       Type             X           Y           Z
 ---------------------------------------------------------------------
      1          6           0        1.848158   -0.030287   -0.097109
      2          6           0        0.579986    0.413448    0.264514
      3          1           0        2.593777    0.837533   -0.554917
      4          1           0        1.729450   -0.475924   -0.919622
      5          1           0        2.296788   -0.939013    0.764336
      6          6           0       -0.535555   -0.589948   -0.029741
      7          1           0        0.508778    1.030577   -0.440211
      8          1           0        0.521042    0.880857    1.356595
      9          6           0       -1.930040    0.126796   -0.020742
     10          1           0       -0.407259   -1.214420    0.566880
     11          1           0       -0.238215   -1.074559   -1.058618
     12          1           0       -2.255359    0.414109    0.720798
     13          1           0       -2.650289   -0.502695   -0.110770
     14          1           0       -1.874013    1.523481   -1.025999
 ---------------------------------------------------------------------

 SCF Done:  E(RB2PLYPD3) =  -157.793866963     A.U. after   11 cycles
 E2(B2PLYPD3) =    -0.2508257970D+00 E(B2PLYPD3) =    -0.15804469275956D+03

 The electronic state is 1-A.
 Alpha  occ. eigenvalues --  -10.61796 -10.60998 -10.60239 -10.58537  -0.95174
 Alpha  occ. eigenvalues --   -0.87068  -0.77095  -0.68280  -0.56868  -0.50764
 Alpha  occ. eigenvalues --   -0.50109  -0.48682  -0.43444  -0.40833  -0.37323
 Alpha  occ. eigenvalues --   -0.36095  -0.35054
 Alpha virt. eigenvalues --    0.01888   0.05349   0.07647   0.07887   0.10108
 Alpha virt. eigenvalues --    0.11134   0.11770   0.13100   0.14122   0.15168
 Alpha virt. eigenvalues --    0.15926   0.16903   0.19040   0.19646   0.20141

 Mulliken charges:
               1
     1  C   -0.178997
     2  C   -0.063038
     3  H    0.036837
     4  H    0.083153
     5  H    0.001719
     6  C   -0.108950
     7  H    0.104851
     8  H    0.022563
     9  C   -0.187741
    10  H    0.126838
    11  H    0.019211
    12  H    0.110097
    13  H    0.059832
    14  H   -0.026375
 Sum of Mulliken charges =   0.00000

 Dipole moment (field-independent basis, Debye):
    X=             -0.3497    Y=             -0.5747    Z=              0.2877  Tot=              0.7317
 Quadrupole moment (field-independent basis, Debye-Ang):
   XX=            -30.8326   YY=            -29.4234   ZZ=            -28.4468
   XY=              1.7238   XZ=             -2.9028   YZ=             -0.5237

 Normal termination of Gaussian 09 at Wed Aug 26 19:06:25 2020.
