 Gaussian 09, Revision D.01,
 Gaussian 09:  ES64L-G09RevD.01 24-Apr-2013

 --------------------
 #p B2PLYPD3/Def2QZVP
 --------------------

 ----------
 butane_opt
 ----------
 Symbolic Z-matrix:
 Charge =  0 Multiplicity = 1

                         Standard orientation:
 ---------------------------------------------------------------------
 Center     Atomic      Atomic             Coordinates (Angstroms)
 Number     Number       Type             X           Y           Z
 ---------------------------------------------------------------------
      1          6           0       -1.937336   -0.156610    0.044157
      2          6           0       -0.575033    0.579491   -0.097255
      3          1           0       -2.723128    0.590349   -0.206556
      4          1           0       -2.171735   -0.877466    1.103863
      5          1           0       -2.290700   -0.752777   -0.716357
      6          6           0        0.585256   -0.514245    0.016539
      7          1           0       -0.438793    1.383927    0.762476
      8          1           0       -0.348450    1.255601   -1.027567
      9          6           0        1.941674    0.095877    0.010347
     10          1           0        0.581638   -1.126067   -0.748810
     11          1           0        0.425166   -1.174408    0.957384
     12          1           0        1.799510    0.306384   -0.676477
     13          1           0        2.772206   -0.761846   -0.475092
     14          1           0        2.306920    1.129223    1.184416
 ---------------------------------------------------------------------

 SCF Done:  E(RB2PLYPD3) =  -157.756919084     A.U. after   11 cycles
 E2(B2PLYPD3) =    -0.2535576542D+00 E(B2PLYPD3) =    -0.15801047673807D+03

 The electronic state is 1-A.
 Alpha  occ. eigenvalues --  -10.64068 -10.62273 -10.61713 -10.60787  -0.93972
 Alpha  occ. eigenvalues --   -0.84920  -0.73538  -0.67379  -0.53124  -0.49200
 Alpha  occ. eigenvalues --   -0.48347  -0.44797  -0.42707  -0.39377  -0.37673
 Alpha  occ. eigenvalues --   -0.37457  -0.35143
 Alpha virt. eigenvalues --    0.02937   0.05605   0.06870   0.07541   0.09848
 Alpha virt. eigenvalues --    0.10808   0.12006   0.12585   0.13922   0.15402
 Alpha virt. eigenvalues --    0.15650   0.16169   0.18336   0.19478   0.20283

 Mulliken charges:
               1
     1  C   -0.143803
     2  C   -0.034919
     3  H    0.033397
     4  H    0.043149
     5  H    0.039777
     6  C   -0.020311
     7  H    0.035516
     8  H    0.020819
     9  C   -0.609465
    10  H    0.068311
    11  H    0.021516
    12  H    0.473863
    13  H    0.032619
    14  H    0.039531
 Sum of Mulliken charges =   0.00000

 Dipole moment (field-independent basis, Debye):
    X=             -0.5434    Y=             -0.0796    Z=             -0.7703  Tot=              0.9461
 Quadrupole moment (field-independent basis, Debye-Ang):
   XX=            -31.4926   YY=            -29.1046   ZZ=            -28.3205
   XY=              0.1874   XZ=             -0.2159   YZ=              0.4967

 Normal termination of Gaussian 09 at Wed Aug 26 11:28:09 2020.
