 Gaussian 09, Revision D.01,
 Gaussian 09:  ES64L-G09RevD.01 24-Apr-2013

 --------------------
 #p B2PLYPD3/Def2QZVP
 --------------------

 ----------
 butane_opt
 ----------
 Symbolic Z-matrix:
 Charge =  0 Multiplicity = 1

                         Standard orientation:
 ---------------------------------------------------------------------
 Center     Atomic      Atomic             Coordinates (Angstroms)
 Number     Number       Type             X           Y           Z
 ---------------------------------------------------------------------
      1          6           0       -1.915487   -0.113425    0.051218
      2          6           0       -0.598881    0.490374   -0.069293
      3          1           0       -2.762901    0.770871   -0.057782
      4          1           0       -2.047732   -0.896284    1.003565
      5          1           0       -2.083817   -0.665895   -0.737102
      6          6           0        0.554648   -0.526690    0.009765
      7          1           0       -0.535121    1.029708    0.682147
      8          1           0       -0.719631    1.174488   -1.033737
      9          6           0        2.007689    0.152583    0.001291
     10          1           0        0.343295   -1.136666   -0.778965
     11          1           0        0.474971   -1.191769    0.825272
     12          1           0        2.106792    0.333199   -0.608253
     13          1           0        2.738001   -0.578359   -0.394779
     14          1           0        2.198333    1.143651    1.141743
 ---------------------------------------------------------------------

 SCF Done:  E(RB2PLYPD3) =  -157.606810403     A.U. after   11 cycles
 E2(B2PLYPD3) =    -0.2499055369D+00 E(B2PLYPD3) =    -0.15785671593962D+03

 The electronic state is 1-A.
 Alpha  occ. eigenvalues --  -10.60711 -10.60579 -10.60183 -10.58913  -0.93493
 Alpha  occ. eigenvalues --   -0.88729  -0.76794  -0.68695  -0.54617  -0.50138
 Alpha  occ. eigenvalues --   -0.48851  -0.45534  -0.41761  -0.41122  -0.38263
 Alpha  occ. eigenvalues --   -0.37974  -0.36522
 Alpha virt. eigenvalues --    0.04108   0.05832   0.07501   0.07920   0.10634
 Alpha virt. eigenvalues --    0.11151   0.12150   0.12871   0.14236   0.15403
 Alpha virt. eigenvalues --    0.15973   0.16546   0.18984   0.19443   0.21534

 Mulliken charges:
               1
     1  C   -0.159348
     2  C   -0.047658
     3  H    0.030151
     4  H    0.024959
     5  H    0.061167
     6  C   -0.017699
     7  H    0.081227
     8  H    0.010925
     9  C   -0.711879
    10  H    0.033434
    11  H    0.048296
    12  H    0.544889
    13  H    0.045430
    14  H    0.056107
 Sum of Mulliken charges =   0.00000

 Dipole moment (field-independent basis, Debye):
    X=              0.0157    Y=             -0.0849    Z=             -0.5775  Tot=              0.5839
 Quadrupole moment (field-independent basis, Debye-Ang):
   XX=            -30.7362   YY=            -28.6249   ZZ=            -27.7570
   XY=             -0.2410   XZ=             -0.6165   YZ=              0.6005

 Normal termination of Gaussian 09 at Wed Aug 26 09:41:04 2020.
