 Gaussian 09, Revision D.01,
 Gaussian 09:  ES64L-G09RevD.01 24-Apr-2013

 --------------------
 #p B2PLYPD3/Def2QZVP
 --------------------

 ----------
 butane_opt
 ----------
 Symbolic Z-matrix:
 Charge =  0 Multiplicity = 1

                         Standard orientation:
 ---------------------------------------------------------------------
 Center     Atomic      Atomic             Coordinates (Angstroms)
 Number     Number       Type             X           Y           Z
 ---------------------------------------------------------------------
      1          6           0       -1.931683    0.100806   -0.023727
      2          6           0       -0.548349   -0.533243   -0.021246
      3          1           0       -2.722400   -0.667808   -0.083132
      4          1           0       -2.153418    0.686739   -0.878584
      5          1           0       -1.920992    0.779237    0.908506
      6          6           0        0.554806    0.556601    0.107153
      7          1           0       -0.324663   -0.986491   -0.840067
      8          1           0       -0.506165   -1.188353    0.826245
      9          6           0        1.919605   -0.130476   -0.072581
     10          1           0        0.392570    1.231539    1.014713
     11          1           0        0.478633    1.125261   -0.751438
     12          1           0        2.275952   -1.095427    0.956300
     13          1           0        2.615596    0.669549   -0.332819
     14          1           0        1.898609   -0.516372   -0.757322
 ---------------------------------------------------------------------

 SCF Done:  E(RB2PLYPD3) =  -157.942582261     A.U. after   11 cycles
 E2(B2PLYPD3) =    -0.2472601698D+00 E(B2PLYPD3) =    -0.15818984243092D+03

 The electronic state is 1-A.
 Alpha  occ. eigenvalues --  -10.60605 -10.59990 -10.59891 -10.58620  -0.92454
 Alpha  occ. eigenvalues --   -0.84936  -0.73995  -0.68314  -0.55307  -0.50830
 Alpha  occ. eigenvalues --   -0.48856  -0.46609  -0.43700  -0.40653  -0.40109
 Alpha  occ. eigenvalues --   -0.37265  -0.36373
 Alpha virt. eigenvalues --    0.05205   0.06449   0.08221   0.08662   0.10821
 Alpha virt. eigenvalues --    0.11426   0.12446   0.13489   0.14494   0.15436
 Alpha virt. eigenvalues --    0.15999   0.16432   0.19143   0.20195   0.21464

 Mulliken charges:
               1
     1  C   -0.145982
     2  C   -0.073698
     3  H    0.039585
     4  H    0.036158
     5  H    0.045248
     6  C   -0.026595
     7  H    0.058873
     8  H    0.042949
     9  C   -0.385502
    10  H    0.028316
    11  H    0.052762
    12  H    0.013143
    13  H    0.051161
    14  H    0.263582
 Sum of Mulliken charges =   0.00000

 Dipole moment (field-independent basis, Debye):
    X=             -0.1666    Y=              0.1074    Z=             -0.6821  Tot=              0.7103
 Quadrupole moment (field-independent basis, Debye-Ang):
   XX=            -31.0154   YY=            -28.7226   ZZ=            -27.7640
   XY=              0.6959   XZ=             -0.7715   YZ=             -0.0715

 Normal termination of Gaussian 09 at Wed Aug 26 19:06:07 2020.
