 Gaussian 09, Revision D.01,
 Gaussian 09:  ES64L-G09RevD.01 24-Apr-2013

 --------------------
 #p B2PLYPD3/Def2QZVP
 --------------------

 ----------
 butane_opt
 ----------
 Symbolic Z-matrix:
 Charge =  0 Multiplicity = 1

                         Standard orientation:
 ---------------------------------------------------------------------
 Center     Atomic      Atomic             Coordinates (Angstroms)
 Number     Number       Type             X           Y           Z
 ---------------------------------------------------------------------
      1          6           0       -1.967235   -0.142690    0.021819
      2          6           0       -0.546986    0.537950   -0.022345
      3          1           0       -2.656406    0.446634    0.024577
      4          1           0       -2.114622   -0.767911    0.989777
      5          1           0       -2.103635   -0.752052   -0.830687
      6          6           0        0.568169   -0.460266    0.010628
      7          1           0       -0.445501    1.076152    0.726705
      8          1           0       -0.359718    1.486841   -1.135662
      9          6           0        1.941745    0.086319   -0.000948
     10          1           0        0.454602   -1.082910   -0.894683
     11          1           0        0.434187   -1.025634    0.909210
     12          1           0        1.794910    0.303687   -0.640989
     13          1           0        2.761383   -0.781703   -0.307126
     14          1           0        2.260650    0.969015    1.103953
 ---------------------------------------------------------------------

 SCF Done:  E(RB2PLYPD3) =  -157.701715749     A.U. after   11 cycles
 E2(B2PLYPD3) =    -0.2496985727D+00 E(B2PLYPD3) =    -0.15795141432191D+03

 The electronic state is 1-A.
 Alpha  occ. eigenvalues --  -10.62571 -10.60516 -10.60090 -10.59126  -0.95214
 Alpha  occ. eigenvalues --   -0.86861  -0.76581  -0.67268  -0.55667  -0.50418
 Alpha  occ. eigenvalues --   -0.48483  -0.47775  -0.42950  -0.41962  -0.39858
 Alpha  occ. eigenvalues --   -0.36760  -0.35165
 Alpha virt. eigenvalues --    0.04912   0.06202   0.06477   0.07657   0.10399
 Alpha virt. eigenvalues --    0.11244   0.12540   0.13075   0.14568   0.15039
 Alpha virt. eigenvalues --    0.15883   0.16469   0.18909   0.19630   0.21169

 Mulliken charges:
               1
     1  C   -0.136990
     2  C   -0.097987
     3  H    0.080958
     4  H    0.028096
     5  H    0.044960
     6  C    0.010621
     7  H    0.097976
     8  H   -0.038269
     9  C   -0.687112
    10  H    0.028223
    11  H    0.041929
    12  H    0.528449
    13  H    0.060336
    14  H    0.038810
 Sum of Mulliken charges =   0.00000

 Dipole moment (field-independent basis, Debye):
    X=             -0.5064    Y=             -0.3104    Z=              0.1828  Tot=              0.6215
 Quadrupole moment (field-independent basis, Debye-Ang):
   XX=            -29.5663   YY=            -29.8510   ZZ=            -27.9151
   XY=             -0.4387   XZ=             -0.6291   YZ=              1.1691

 Normal termination of Gaussian 09 at Wed Aug 26 23:51:55 2020.
