 Gaussian 09, Revision D.01,
 Gaussian 09:  ES64L-G09RevD.01 24-Apr-2013

 --------------------
 #p B2PLYPD3/Def2QZVP
 --------------------

 ----------
 butane_opt
 ----------
 Symbolic Z-matrix:
 Charge =  0 Multiplicity = 1

                         Standard orientation:
 ---------------------------------------------------------------------
 Center     Atomic      Atomic             Coordinates (Angstroms)
 Number     Number       Type             X           Y           Z
 ---------------------------------------------------------------------
      1          6           0        1.878123    0.118999   -0.017275
      2          6           0        0.603213   -0.454629   -0.126394
      3          1           0        2.783542   -0.760447    0.610762
      4          1           0        1.569631    0.491250    0.728817
      5          1           0        2.424874    0.705566   -0.792325
      6          6           0       -0.467719    0.531772    0.048311
      7          1           0        0.480937   -1.220110    0.780724
      8          1           0        0.588198   -0.928444   -0.907466
      9          6           0       -2.038321   -0.159834   -0.041193
     10          1           0       -0.337687    1.179121   -0.662463
     11          1           0       -0.358033    1.203734    0.985578
     12          1           0       -2.053420   -0.595104   -0.839785
     13          1           0       -2.779470    0.689498    0.146032
     14          1           0       -2.170348   -0.982915    0.769434
 ---------------------------------------------------------------------

 SCF Done:  E(RB2PLYPD3) =  -157.909564879     A.U. after   11 cycles
 E2(B2PLYPD3) =    -0.2489040276D+00 E(B2PLYPD3) =    -0.15815846890685D+03

 The electronic state is 1-A.
 Alpha  occ. eigenvalues --  -10.60691 -10.60664 -10.59420 -10.58638  -0.95847
 Alpha  occ. eigenvalues --   -0.83632  -0.74538  -0.69241  -0.57809  -0.51513
 Alpha  occ. eigenvalues --   -0.49439  -0.46488  -0.43529  -0.41973  -0.39208
 Alpha  occ. eigenvalues --   -0.37241  -0.33784
 Alpha virt. eigenvalues --    0.04845   0.06426   0.08086   0.08658   0.10685
 Alpha virt. eigenvalues --    0.11403   0.12518   0.13749   0.14547   0.15802
 Alpha virt. eigenvalues --    0.15955   0.16537   0.18666   0.20034   0.21165

 Mulliken charges:
               1
     1  C   -0.258809
     2  C   -0.037588
     3  H   -0.004056
     4  H    0.134425
     5  H    0.070792
     6  C   -0.058171
     7  H    0.024782
     8  H    0.063378
     9  C   -0.211482
    10  H    0.058283
    11  H    0.016550
    12  H    0.110260
    13  H    0.056305
    14  H    0.035330
 Sum of Mulliken charges =   0.00000

 Dipole moment (field-independent basis, Debye):
    X=             -0.4729    Y=              0.2822    Z=             -0.3808  Tot=              0.6695
 Quadrupole moment (field-independent basis, Debye-Ang):
   XX=            -31.2230   YY=            -28.7578   ZZ=            -27.9619
   XY=              0.4656   XZ=             -0.7592   YZ=             -0.2448

 Normal termination of Gaussian 09 at Wed Aug 26 13:57:03 2020.
