 Gaussian 09, Revision D.01,
 Gaussian 09:  ES64L-G09RevD.01 24-Apr-2013

 --------------------
 #p B2PLYPD3/Def2QZVP
 --------------------

 ----------
 butane_opt
 ----------
 Symbolic Z-matrix:
 Charge =  0 Multiplicity = 1

                         Standard orientation:
 ---------------------------------------------------------------------
 Center     Atomic      Atomic             Coordinates (Angstroms)
 Number     Number       Type             X           Y           Z
 ---------------------------------------------------------------------
      1          6           0       -1.988281   -0.182575    0.056814
      2          6           0       -0.578445    0.576518   -0.087103
      3          1           0       -2.775349    0.550622   -0.332399
      4          1           0       -2.522448   -1.071861    1.139987
      5          1           0       -2.035472   -0.571776   -0.541746
      6          6           0        0.583969   -0.467887   -0.069212
      7          1           0       -0.542400    1.140363    0.685719
      8          1           0       -0.280875    1.408585   -0.918297
      9          6           0        1.963995    0.051157    0.024646
     10          1           0        0.536799   -0.987152   -0.865748
     11          1           0        0.826496   -1.070498    0.750591
     12          1           0        1.914933    0.257292   -0.528427
     13          1           0        2.835217   -0.855069   -0.199677
     14          1           0        2.155671    1.336224    1.259133
 ---------------------------------------------------------------------

 SCF Done:  E(RB2PLYPD3) =  -157.135657647     A.U. after   13 cycles
 E2(B2PLYPD3) =    -0.2558508595D+00 E(B2PLYPD3) =    -0.15739150850620D+03

 The electronic state is 1-A.
 Alpha  occ. eigenvalues --  -10.63023 -10.62216 -10.61002 -10.58714  -0.96587
 Alpha  occ. eigenvalues --   -0.88775  -0.78191  -0.71156  -0.57205  -0.49910
 Alpha  occ. eigenvalues --   -0.47802  -0.46842  -0.42419  -0.40713  -0.37756
 Alpha  occ. eigenvalues --   -0.35736  -0.34436
 Alpha virt. eigenvalues --    0.00510   0.03705   0.06124   0.07378   0.10145
 Alpha virt. eigenvalues --    0.10607   0.11127   0.12799   0.13444   0.15809
 Alpha virt. eigenvalues --    0.15886   0.16200   0.18497   0.19225   0.20494

 Mulliken charges:
               1
     1  C   -0.572609
     2  C   -0.036672
     3  H    0.050393
     4  H    0.056309
     5  H    0.411810
     6  C    0.016310
     7  H    0.085728
     8  H    0.016204
     9  C   -0.906838
    10  H    0.058445
    11  H    0.047636
    12  H    0.699291
    13  H    0.083152
    14  H   -0.009158
 Sum of Mulliken charges =   0.00000

 Dipole moment (field-independent basis, Debye):
    X=             -0.3021    Y=             -0.3637    Z=             -0.9910  Tot=              1.0980
 Quadrupole moment (field-independent basis, Debye-Ang):
   XX=            -30.7876   YY=            -28.5092   ZZ=            -28.5021
   XY=             -1.0101   XZ=             -0.7589   YZ=              0.1108

 Normal termination of Gaussian 09 at Wed Aug 26 14:03:38 2020.
