 Gaussian 09, Revision D.01,
 Gaussian 09:  ES64L-G09RevD.01 24-Apr-2013

 --------------------
 #p B2PLYPD3/Def2QZVP
 --------------------

 ----------
 butane_opt
 ----------
 Symbolic Z-matrix:
 Charge =  0 Multiplicity = 1

                         Standard orientation:
 ---------------------------------------------------------------------
 Center     Atomic      Atomic             Coordinates (Angstroms)
 Number     Number       Type             X           Y           Z
 ---------------------------------------------------------------------
      1          6           0       -1.949190   -0.193774    0.111656
      2          6           0       -0.517789    0.537915   -0.018607
      3          1           0       -2.807675    0.585242   -0.066003
      4          1           0       -2.282265   -1.210322    0.991763
      5          1           0       -2.020812   -0.415078   -0.556106
      6          6           0        0.656109   -0.338498   -0.421821
      7          1           0       -0.241266    1.028494    0.992382
      8          1           0       -0.503817    1.422669   -0.797986
      9          6           0        1.823383    0.032786    0.214479
     10          1           0        0.676661   -0.830036   -1.364040
     11          1           0        0.289358   -1.231420    0.235949
     12          1           0        2.408317    1.003166   -0.503387
     13          1           0        2.760403   -1.033809    0.480209
     14          1           0        1.646016    0.450524    1.272979
 ---------------------------------------------------------------------

 SCF Done:  E(RB2PLYPD3) =  -157.739801738     A.U. after   11 cycles
 E2(B2PLYPD3) =    -0.2544379814D+00 E(B2PLYPD3) =    -0.15799423971902D+03

 The electronic state is 1-A.
 Alpha  occ. eigenvalues --  -10.65618 -10.63833 -10.60794 -10.60590  -0.93654
 Alpha  occ. eigenvalues --   -0.86815  -0.73122  -0.65985  -0.53704  -0.49761
 Alpha  occ. eigenvalues --   -0.48801  -0.45010  -0.43420  -0.40502  -0.39956
 Alpha  occ. eigenvalues --   -0.36292  -0.32503
 Alpha virt. eigenvalues --    0.04348   0.05211   0.07312   0.07707   0.09180
 Alpha virt. eigenvalues --    0.10305   0.11658   0.12794   0.14143   0.14712
 Alpha virt. eigenvalues --    0.15606   0.15980   0.18607   0.19749   0.20363

 Mulliken charges:
               1
     1  C   -0.622245
     2  C    0.001799
     3  H    0.054373
     4  H    0.060177
     5  H    0.463073
     6  C   -0.006306
     7  H    0.035140
     8  H    0.016154
     9  C   -0.173235
    10  H    0.058511
    11  H    0.012791
    12  H    0.016083
    13  H    0.017118
    14  H    0.066568
 Sum of Mulliken charges =   0.00000

 Dipole moment (field-independent basis, Debye):
    X=             -0.6344    Y=             -0.2045    Z=             -0.3293  Tot=              0.7434
 Quadrupole moment (field-independent basis, Debye-Ang):
   XX=            -32.1211   YY=            -29.6294   ZZ=            -28.4094
   XY=              0.3627   XZ=              0.8271   YZ=             -0.2692

 Normal termination of Gaussian 09 at Wed Aug 26 16:20:40 2020.
