 Gaussian 09, Revision D.01,
 Gaussian 09:  ES64L-G09RevD.01 24-Apr-2013

 --------------------
 #p B2PLYPD3/Def2QZVP
 --------------------

 ----------
 butane_opt
 ----------
 Symbolic Z-matrix:
 Charge =  0 Multiplicity = 1

                         Standard orientation:
 ---------------------------------------------------------------------
 Center     Atomic      Atomic             Coordinates (Angstroms)
 Number     Number       Type             X           Y           Z
 ---------------------------------------------------------------------
      1          6           0        1.966484   -0.164402   -0.190750
      2          6           0        0.469814    0.607122    0.226156
      3          1           0        2.706000    0.479583   -0.760127
      4          1           0        1.721982   -0.584473   -0.939265
      5          1           0        2.514080   -1.039609    0.946538
      6          6           0       -0.607525   -0.431882    0.130922
      7          1           0        0.296935    0.961816   -0.328608
      8          1           0        0.355111    1.425155    1.212741
      9          6           0       -1.888898    0.062784   -0.185314
     10          1           0       -0.511303   -1.260756    1.285143
     11          1           0       -0.162130   -0.865697   -0.610726
     12          1           0       -1.903316    0.677004    0.761889
     13          1           0       -2.801136   -1.019699   -0.277718
     14          1           0       -1.855473    0.784935   -1.175951
 ---------------------------------------------------------------------

 SCF Done:  E(RB2PLYPD3) =  -157.577802543     A.U. after   11 cycles
 E2(B2PLYPD3) =    -0.2555155478D+00 E(B2PLYPD3) =    -0.15783331809091D+03

 The electronic state is 1-A.
 Alpha  occ. eigenvalues --  -10.64766 -10.64003 -10.61639 -10.60543  -0.96590
 Alpha  occ. eigenvalues --   -0.84159  -0.77009  -0.67651  -0.55224  -0.49389
 Alpha  occ. eigenvalues --   -0.47875  -0.45297  -0.41891  -0.40833  -0.37483
 Alpha  occ. eigenvalues --   -0.36362  -0.35059
 Alpha virt. eigenvalues --    0.03305   0.04418   0.06537   0.07810   0.09569
 Alpha virt. eigenvalues --    0.10213   0.11756   0.12365   0.13976   0.15052
 Alpha virt. eigenvalues --    0.15664   0.16243   0.17977   0.18746   0.19665

 Mulliken charges:
               1
     1  C   -0.254394
     2  C   -0.641856
     3  H    0.050493
     4  H    0.161514
     5  H    0.042253
     6  C   -0.020595
     7  H    0.564080
     8  H    0.039262
     9  C   -0.177449
    10  H   -0.006878
    11  H    0.086592
    12  H    0.066098
    13  H    0.047350
    14  H    0.043530
 Sum of Mulliken charges =   0.00000

 Dipole moment (field-independent basis, Debye):
    X=              0.0731    Y=              0.2756    Z=             -0.9521  Tot=              0.9938
 Quadrupole moment (field-independent basis, Debye-Ang):
   XX=            -32.0588   YY=            -30.0912   ZZ=            -28.0650
   XY=              0.0312   XZ=             -0.8997   YZ=             -0.4051

 Normal termination of Gaussian 09 at Wed Aug 26 19:25:32 2020.
