 Gaussian 09, Revision D.01,
 Gaussian 09:  ES64L-G09RevD.01 24-Apr-2013

 --------------------
 #p B2PLYPD3/Def2QZVP
 --------------------

 ----------
 butane_opt
 ----------
 Symbolic Z-matrix:
 Charge =  0 Multiplicity = 1

                         Standard orientation:
 ---------------------------------------------------------------------
 Center     Atomic      Atomic             Coordinates (Angstroms)
 Number     Number       Type             X           Y           Z
 ---------------------------------------------------------------------
      1          6           0        1.915568    0.146927   -0.114107
      2          6           0        0.466034   -0.543254    0.001137
      3          1           0        2.756546   -0.494441   -0.134033
      4          1           0        2.326554    0.392985    0.610556
      5          1           0        2.170535    1.227109   -1.010013
      6          6           0       -0.572094    0.348628    0.277720
      7          1           0        0.446062   -1.396528    0.761360
      8          1           0        0.346252   -0.848133   -0.794299
      9          6           0       -1.892366   -0.048195   -0.176951
     10          1           0       -0.646380    0.916835   -0.185266
     11          1           0       -0.369928    1.283680    1.704822
     12          1           0       -1.605075   -0.353661   -0.884506
     13          1           0       -2.776018    1.035201   -0.688733
     14          1           0       -2.151399   -1.187684    0.693323
 ---------------------------------------------------------------------

 SCF Done:  E(RB2PLYPD3) =  -157.462976022     A.U. after   12 cycles
 E2(B2PLYPD3) =    -0.2560559658D+00 E(B2PLYPD3) =    -0.15771903198735D+03

 The electronic state is 1-A.
 Alpha  occ. eigenvalues --  -10.65077 -10.61145 -10.61115 -10.60853  -1.00406
 Alpha  occ. eigenvalues --   -0.87732  -0.78962  -0.72221  -0.58332  -0.52040
 Alpha  occ. eigenvalues --   -0.49968  -0.47063  -0.41966  -0.40122  -0.39393
 Alpha  occ. eigenvalues --   -0.36237  -0.32267
 Alpha virt. eigenvalues --    0.00985   0.04164   0.05447   0.07079   0.09205
 Alpha virt. eigenvalues --    0.10172   0.11431   0.12638   0.13707   0.14550
 Alpha virt. eigenvalues --    0.15301   0.16765   0.17362   0.19664   0.20161

 Mulliken charges:
               1
     1  C   -0.204364
     2  C   -0.098898
     3  H    0.029694
     4  H    0.121111
     5  H    0.014264
     6  C   -0.413873
     7  H    0.041219
     8  H    0.157606
     9  C   -0.359445
    10  H    0.445137
    11  H   -0.074713
    12  H    0.274532
    13  H    0.047839
    14  H    0.019891
 Sum of Mulliken charges =   0.00000

 Dipole moment (field-independent basis, Debye):
    X=              0.5785    Y=             -0.5644    Z=             -1.1178  Tot=              1.3794
 Quadrupole moment (field-independent basis, Debye-Ang):
   XX=            -30.0829   YY=            -29.6384   ZZ=            -30.1973
   XY=             -1.1700   XZ=              2.8690   YZ=             -2.1337

 Normal termination of Gaussian 09 at Wed Aug 26 15:29:40 2020.
