 Gaussian 09, Revision D.01,
 Gaussian 09:  ES64L-G09RevD.01 24-Apr-2013

 --------------------
 #p B2PLYPD3/Def2QZVP
 --------------------

 ----------
 butane_opt
 ----------
 Symbolic Z-matrix:
 Charge =  0 Multiplicity = 1

                         Standard orientation:
 ---------------------------------------------------------------------
 Center     Atomic      Atomic             Coordinates (Angstroms)
 Number     Number       Type             X           Y           Z
 ---------------------------------------------------------------------
      1          6           0        2.047345    0.126558   -0.081924
      2          6           0        0.571618   -0.595467    0.109656
      3          1           0        2.661509   -0.492945   -0.625590
      4          1           0        2.643579    1.316728    1.067759
      5          1           0        2.182733    0.489963   -0.673739
      6          6           0       -0.657563    0.441797    0.040595
      7          1           0        0.498844   -1.443466    1.104644
      8          1           0        0.296053   -0.762884   -0.503324
      9          6           0       -1.958878   -0.117941   -0.102573
     10          1           0       -0.402642    1.180054   -0.998740
     11          1           0       -0.872422    0.970089    0.910062
     12          1           0       -1.933570   -0.831878   -0.941123
     13          1           0       -2.919727    1.026733    0.072562
     14          1           0       -2.169481   -0.582080    0.792960
 ---------------------------------------------------------------------

 SCF Done:  E(RB2PLYPD3) =  -157.369842586     A.U. after   12 cycles
 E2(B2PLYPD3) =    -0.2564182827D+00 E(B2PLYPD3) =    -0.15762626086863D+03

 The electronic state is 1-A.
 Alpha  occ. eigenvalues --  -10.63222 -10.62410 -10.62009 -10.61986  -0.95517
 Alpha  occ. eigenvalues --   -0.89295  -0.81783  -0.66222  -0.56496  -0.51586
 Alpha  occ. eigenvalues --   -0.47273  -0.46678  -0.41561  -0.40324  -0.38681
 Alpha  occ. eigenvalues --   -0.35166  -0.33401
 Alpha virt. eigenvalues --    0.00646   0.03120   0.06915   0.07526   0.09306
 Alpha virt. eigenvalues --    0.09425   0.11256   0.12219   0.13947   0.15064
 Alpha virt. eigenvalues --    0.15831   0.16208   0.18218   0.19082   0.20078

 Mulliken charges:
               1
     1  C   -0.479159
     2  C   -0.665069
     3  H    0.046557
     4  H    0.004668
     5  H    0.416553
     6  C   -0.030332
     7  H    0.054968
     8  H    0.609807
     9  C   -0.162987
    10  H    0.007593
    11  H    0.055337
    12  H    0.055300
    13  H    0.016172
    14  H    0.070591
 Sum of Mulliken charges =   0.00000

 Dipole moment (field-independent basis, Debye):
    X=             -0.2781    Y=             -0.4808    Z=             -0.6132  Tot=              0.8274
 Quadrupole moment (field-independent basis, Debye-Ang):
   XX=            -32.3489   YY=            -29.7688   ZZ=            -27.9323
   XY=              0.1956   XZ=             -3.4968   YZ=              0.3748

 Normal termination of Gaussian 09 at Wed Aug 26 11:15:28 2020.
