 Gaussian 09, Revision D.01,
 Gaussian 09:  ES64L-G09RevD.01 24-Apr-2013

 --------------------
 #p B2PLYPD3/Def2QZVP
 --------------------

 ----------
 butane_opt
 ----------
 Symbolic Z-matrix:
 Charge =  0 Multiplicity = 1

                         Standard orientation:
 ---------------------------------------------------------------------
 Center     Atomic      Atomic             Coordinates (Angstroms)
 Number     Number       Type             X           Y           Z
 ---------------------------------------------------------------------
      1          6           0       -1.913587   -0.188978   -0.167507
      2          6           0       -0.498983    0.536519    0.078148
      3          1           0       -2.723501    0.626562   -0.168908
      4          1           0       -2.269706   -0.756048    0.716031
      5          1           0       -1.861898   -1.004590   -0.993345
      6          6           0        0.602399   -0.432140    0.303183
      7          1           0       -0.604616    1.510982    0.946459
      8          1           0       -0.445648    0.869041   -0.766100
      9          6           0        1.888467    0.126350   -0.232987
     10          1           0        0.147619   -0.913123   -0.173046
     11          1           0        0.660654   -0.979076    1.304298
     12          1           0        1.644552    0.427579   -0.991435
     13          1           0        2.917444   -1.018826   -0.354583
     14          1           0        2.065323    0.986996    0.595606
 ---------------------------------------------------------------------

 SCF Done:  E(RB2PLYPD3) =  -157.811102384     A.U. after   11 cycles
 E2(B2PLYPD3) =    -0.2512010854D+00 E(B2PLYPD3) =    -0.15806230346965D+03

 The electronic state is 1-A.
 Alpha  occ. eigenvalues --  -10.62606 -10.62487 -10.61729 -10.57596  -0.96143
 Alpha  occ. eigenvalues --   -0.83585  -0.75086  -0.69535  -0.56965  -0.50388
 Alpha  occ. eigenvalues --   -0.48281  -0.45962  -0.43094  -0.41382  -0.39328
 Alpha  occ. eigenvalues --   -0.37360  -0.34493
 Alpha virt. eigenvalues --    0.04001   0.05866   0.07459   0.08649   0.09642
 Alpha virt. eigenvalues --    0.11773   0.12484   0.13015   0.14138   0.14580
 Alpha virt. eigenvalues --    0.15392   0.16784   0.19024   0.19320   0.20195

 Mulliken charges:
               1
     1  C   -0.152421
     2  C   -0.142798
     3  H    0.055098
     4  H    0.035402
     5  H    0.046051
     6  C   -0.243543
     7  H   -0.003657
     8  H    0.132567
     9  C   -0.259200
    10  H    0.245359
    11  H    0.043196
    12  H    0.171710
    13  H    0.004461
    14  H    0.067774
 Sum of Mulliken charges =   0.00000

 Dipole moment (field-independent basis, Debye):
    X=             -0.7254    Y=             -0.0615    Z=             -0.2798  Tot=              0.7799
 Quadrupole moment (field-independent basis, Debye-Ang):
   XX=            -32.0174   YY=            -29.0354   ZZ=            -28.5924
   XY=              0.0671   XZ=              0.1237   YZ=              0.1315

 Normal termination of Gaussian 09 at Wed Aug 26 23:45:28 2020.
