 Gaussian 09, Revision D.01,
 Gaussian 09:  ES64L-G09RevD.01 24-Apr-2013

 --------------------
 #p B2PLYPD3/Def2QZVP
 --------------------

 ----------
 butane_opt
 ----------
 Symbolic Z-matrix:
 Charge =  0 Multiplicity = 1

                         Standard orientation:
 ---------------------------------------------------------------------
 Center     Atomic      Atomic             Coordinates (Angstroms)
 Number     Number       Type             X           Y           Z
 ---------------------------------------------------------------------
      1          6           0        1.829452    0.026807   -0.167029
      2          6           0        0.630638   -0.331924    0.318876
      3          1           0        2.681914   -1.030988   -0.528985
      4          1           0        2.439308    1.091317    0.637400
      5          1           0        1.645168    0.149578   -0.815439
      6          6           0       -0.472680    0.527719   -0.009590
      7          1           0        0.545590   -0.914429    1.396838
      8          1           0        0.232472   -1.062920   -0.383684
      9          6           0       -1.987210   -0.166671   -0.080644
     10          1           0       -0.250069    1.089264   -1.321174
     11          1           0       -0.248873    1.377640    0.766892
     12          1           0       -1.993476   -1.217856   -0.818415
     13          1           0       -2.791706    0.613229    0.045953
     14          1           0       -2.261530   -0.430418    0.650934
 ---------------------------------------------------------------------

 SCF Done:  E(RB2PLYPD3) =  -157.542799431     A.U. after   12 cycles
 E2(B2PLYPD3) =    -0.2560832723D+00 E(B2PLYPD3) =    -0.15779888270327D+03

 The electronic state is 1-A.
 Alpha  occ. eigenvalues --  -10.66186 -10.61544 -10.61538 -10.60916  -0.98295
 Alpha  occ. eigenvalues --   -0.86664  -0.78150  -0.65222  -0.57440  -0.50390
 Alpha  occ. eigenvalues --   -0.48679  -0.47062  -0.41551  -0.41038  -0.38719
 Alpha  occ. eigenvalues --   -0.36210  -0.32308
 Alpha virt. eigenvalues --    0.03972   0.04753   0.06094   0.06946   0.09427
 Alpha virt. eigenvalues --    0.09824   0.11775   0.13439   0.13799   0.14391
 Alpha virt. eigenvalues --    0.15008   0.16302   0.17775   0.19505   0.20164

 Mulliken charges:
               1
     1  C   -0.638748
     2  C    0.036641
     3  H    0.030309
     4  H    0.018708
     5  H    0.515797
     6  C   -0.049493
     7  H    0.032251
     8  H    0.016676
     9  C   -0.263356
    10  H   -0.001938
    11  H    0.026122
    12  H    0.045911
    13  H    0.045220
    14  H    0.185901
 Sum of Mulliken charges =   0.00000

 Dipole moment (field-independent basis, Debye):
    X=             -0.8967    Y=             -0.4907    Z=              0.3378  Tot=              1.0765
 Quadrupole moment (field-independent basis, Debye-Ang):
   XX=            -30.8860   YY=            -30.0248   ZZ=            -29.0277
   XY=              0.4344   XZ=             -1.6196   YZ=              1.1366

 Normal termination of Gaussian 09 at Wed Aug 26 10:08:18 2020.
