 Gaussian 09, Revision D.01,
 Gaussian 09:  ES64L-G09RevD.01 24-Apr-2013

 --------------------
 #p B2PLYPD3/Def2QZVP
 --------------------

 ----------
 butane_opt
 ----------
 Symbolic Z-matrix:
 Charge =  0 Multiplicity = 1

                         Standard orientation:
 ---------------------------------------------------------------------
 Center     Atomic      Atomic             Coordinates (Angstroms)
 Number     Number       Type             X           Y           Z
 ---------------------------------------------------------------------
      1          6           0       -1.967049   -0.138444    0.107863
      2          6           0       -0.561626    0.602147   -0.059641
      3          1           0       -2.733296    0.438431   -0.435867
      4          1           0       -2.643593   -1.385822    1.183375
      5          1           0       -1.903809   -0.269082   -0.481015
      6          6           0        0.644804   -0.523020   -0.233494
      7          1           0       -0.384212    1.190476    0.761451
      8          1           0       -0.574607    1.355360   -0.913488
      9          6           0        2.008618    0.046616    0.162377
     10          1           0        0.545436   -0.962608   -1.083569
     11          1           0        0.285638   -1.051781    0.428636
     12          1           0        1.908060    0.529663   -0.558127
     13          1           0        2.781871   -0.647697   -0.115786
     14          1           0        1.970030    0.879266    1.351762
 ---------------------------------------------------------------------

 SCF Done:  E(RB2PLYPD3) =  -157.318648472     A.U. after   12 cycles
 E2(B2PLYPD3) =    -0.2557132282D+00 E(B2PLYPD3) =    -0.15757436170040D+03

 The electronic state is 1-A.
 Alpha  occ. eigenvalues --  -10.62543 -10.61571 -10.60497 -10.58317  -0.95441
 Alpha  occ. eigenvalues --   -0.90124  -0.76944  -0.70377  -0.55260  -0.50648
 Alpha  occ. eigenvalues --   -0.47160  -0.46468  -0.40655  -0.40102  -0.38250
 Alpha  occ. eigenvalues --   -0.37530  -0.34679
 Alpha virt. eigenvalues --   -0.00386   0.04876   0.06515   0.08258   0.09842
 Alpha virt. eigenvalues --    0.10988   0.12359   0.12913   0.14164   0.15605
 Alpha virt. eigenvalues --    0.16085   0.16924   0.18426   0.18705   0.19557

 Mulliken charges:
               1
     1  C   -0.902757
     2  C    0.006111
     3  H    0.049861
     4  H    0.045864
     5  H    0.726658
     6  C   -0.129078
     7  H    0.049519
     8  H    0.012309
     9  C   -0.276829
    10  H    0.043831
    11  H    0.104211
    12  H    0.173350
    13  H    0.055628
    14  H    0.041324
 Sum of Mulliken charges =   0.00000

 Dipole moment (field-independent basis, Debye):
    X=              0.1388    Y=             -0.0932    Z=             -1.0693  Tot=              1.0823
 Quadrupole moment (field-independent basis, Debye-Ang):
   XX=            -30.6538   YY=            -28.7964   ZZ=            -27.6292
   XY=              0.0483   XZ=              0.4140   YZ=             -0.1845

 Normal termination of Gaussian 09 at Wed Aug 26 18:49:29 2020.
