 Gaussian 09, Revision D.01,
 Gaussian 09:  ES64L-G09RevD.01 24-Apr-2013

 --------------------
 #p B2PLYPD3/Def2QZVP
 --------------------

 ----------
 butane_opt
 ----------
 Symbolic Z-matrix:
 Charge =  0 Multiplicity = 1

                         Standard orientation:
 ---------------------------------------------------------------------
 Center     Atomic      Atomic             Coordinates (Angstroms)
 Number     Number       Type             X           Y           Z
 ---------------------------------------------------------------------
      1          6           0       -1.894880    0.094833    0.061782
      2          6           0       -0.572633   -0.413536   -0.201613
      3          1           0       -2.884339   -0.948313    0.056587
      4          1           0       -1.934145    0.322239   -0.496333
      5          1           0       -1.742884    0.975677    1.326556
      6          6           0        0.583435    0.558103   -0.081699
      7          1           0       -0.417334   -0.913776   -1.238675
      8          1           0       -0.531490   -0.971973    0.549542
      9          6           0        1.924126   -0.179972    0.106538
     10          1           0        0.148320    1.194790    0.975847
     11          1           0        0.538096    1.446772   -0.948083
     12          1           0        1.889230   -1.524566    1.152654
     13          1           0        2.700132    0.384821   -0.118691
     14          1           0        1.994130   -0.322240   -0.569454
 ---------------------------------------------------------------------

 SCF Done:  E(RB2PLYPD3) =  -157.090599672     A.U. after   12 cycles
 E2(B2PLYPD3) =    -0.2589894283D+00 E(B2PLYPD3) =    -0.15734958909983D+03

 The electronic state is 1-A.
 Alpha  occ. eigenvalues --  -10.65301 -10.62688 -10.60653 -10.59204  -0.97078
 Alpha  occ. eigenvalues --   -0.92907  -0.79090  -0.67338  -0.55993  -0.50703
 Alpha  occ. eigenvalues --   -0.47418  -0.46664  -0.41368  -0.39449  -0.37426
 Alpha  occ. eigenvalues --   -0.35434  -0.34893
 Alpha virt. eigenvalues --    0.00900   0.03428   0.05805   0.06473   0.09383
 Alpha virt. eigenvalues --    0.09754   0.11330   0.12889   0.13438   0.15097
 Alpha virt. eigenvalues --    0.15367   0.16081   0.17938   0.19019   0.21504

 Mulliken charges:
               1
     1  C   -0.818718
     2  C   -0.006809
     3  H    0.040348
     4  H    0.645359
     5  H    0.034320
     6  C   -0.023572
     7  H    0.020208
     8  H    0.105248
     9  C   -0.618660
    10  H   -0.001572
    11  H    0.022021
    12  H    0.043870
    13  H    0.064707
    14  H    0.493250
 Sum of Mulliken charges =   0.00000

 Dipole moment (field-independent basis, Debye):
    X=              0.5361    Y=             -0.1564    Z=             -1.0071  Tot=              1.1516
 Quadrupole moment (field-independent basis, Debye-Ang):
   XX=            -31.0256   YY=            -29.6940   ZZ=            -28.3265
   XY=              0.6905   XZ=             -1.2658   YZ=             -1.0413

 Normal termination of Gaussian 09 at Wed Aug 26 13:21:43 2020.
