 Gaussian 09, Revision D.01,
 Gaussian 09:  ES64L-G09RevD.01 24-Apr-2013

 --------------------
 #p B2PLYPD3/Def2QZVP
 --------------------

 ----------
 butane_opt
 ----------
 Symbolic Z-matrix:
 Charge =  0 Multiplicity = 1

                         Standard orientation:
 ---------------------------------------------------------------------
 Center     Atomic      Atomic             Coordinates (Angstroms)
 Number     Number       Type             X           Y           Z
 ---------------------------------------------------------------------
      1          6           0        1.879608   -0.150503    0.120717
      2          6           0        0.534095    0.546672    0.006785
      3          1           0        2.526205    0.464392   -0.802354
      4          1           0        1.904155   -0.232705   -0.508862
      5          1           0        2.452659   -1.360355    1.214134
      6          6           0       -0.528395   -0.422200   -0.173170
      7          1           0        0.619843    1.312853   -0.852165
      8          1           0        0.208166    1.172886    0.891402
      9          6           0       -1.900477    0.014922    0.088092
     10          1           0       -0.649571   -1.129813    0.625958
     11          1           0       -0.461668   -1.002677   -1.287669
     12          1           0       -1.906259    1.020791    1.253744
     13          1           0       -2.736699   -0.851148   -0.187684
     14          1           0       -1.865814    0.672428   -0.601051
 ---------------------------------------------------------------------

 SCF Done:  E(RB2PLYPD3) =  -157.363468694     A.U. after   13 cycles
 E2(B2PLYPD3) =    -0.2624488212D+00 E(B2PLYPD3) =    -0.15762591751547D+03

 The electronic state is 1-A.
 Alpha  occ. eigenvalues --  -10.63297 -10.62982 -10.62778 -10.61459  -0.97803
 Alpha  occ. eigenvalues --   -0.90750  -0.76381  -0.65569  -0.54797  -0.50795
 Alpha  occ. eigenvalues --   -0.50128  -0.44355  -0.41258  -0.38085  -0.37075
 Alpha  occ. eigenvalues --   -0.33990  -0.31811
 Alpha virt. eigenvalues --   -0.00733   0.03580   0.03915   0.06415   0.09458
 Alpha virt. eigenvalues --    0.10164   0.11336   0.12238   0.13054   0.14333
 Alpha virt. eigenvalues --    0.16253   0.16856   0.17857   0.18497   0.20150

 Mulliken charges:
               1
     1  C   -0.853617
     2  C   -0.014261
     3  H    0.021769
     4  H    0.711479
     5  H    0.075848
     6  C   -0.023704
     7  H    0.020099
     8  H    0.043790
     9  C   -0.198196
    10  H    0.047806
    11  H    0.007371
    12  H    0.000893
    13  H    0.066575
    14  H    0.094147
 Sum of Mulliken charges =   0.00000

 Dipole moment (field-independent basis, Debye):
    X=             -0.2671    Y=             -0.4864    Z=             -1.0820  Tot=              1.2160
 Quadrupole moment (field-independent basis, Debye-Ang):
   XX=            -32.9989   YY=            -29.5650   ZZ=            -28.2812
   XY=             -0.5202   XZ=             -0.5421   YZ=             -1.2090

 Normal termination of Gaussian 09 at Wed Aug 26 14:22:51 2020.
