 Gaussian 09, Revision D.01,
 Gaussian 09:  ES64L-G09RevD.01 24-Apr-2013

 --------------------
 #p B2PLYPD3/Def2QZVP
 --------------------

 ----------
 butane_opt
 ----------
 Symbolic Z-matrix:
 Charge =  0 Multiplicity = 1

                         Standard orientation:
 ---------------------------------------------------------------------
 Center     Atomic      Atomic             Coordinates (Angstroms)
 Number     Number       Type             X           Y           Z
 ---------------------------------------------------------------------
      1          6           0       -2.120563   -0.127459   -0.184640
      2          6           0       -0.536373    0.558706    0.260315
      3          1           0       -2.727596    0.560419   -0.457507
      4          1           0       -2.690007   -0.975521    0.706252
      5          1           0       -1.802784   -0.746913   -1.010718
      6          6           0        0.650312   -0.462297    0.103203
      7          1           0       -0.104707    1.498717    1.363554
      8          1           0       -0.366438    0.961953   -0.479657
      9          6           0        1.926694    0.073154   -0.198149
     10          1           0        0.485381   -0.862156   -0.564121
     11          1           0        0.712496   -1.314002    1.251941
     12          1           0        2.037689    1.022125   -1.242890
     13          1           0        2.847049   -0.918324   -0.076968
     14          1           0        2.088496    0.521077    0.625740
 ---------------------------------------------------------------------

 SCF Done:  E(RB2PLYPD3) =  -157.685115285     A.U. after   11 cycles
 E2(B2PLYPD3) =    -0.2553888830D+00 E(B2PLYPD3) =    -0.15794050416754D+03

 The electronic state is 1-A.
 Alpha  occ. eigenvalues --  -10.64203 -10.64012 -10.63371 -10.60572  -0.94578
 Alpha  occ. eigenvalues --   -0.83416  -0.75027  -0.69770  -0.53308  -0.51047
 Alpha  occ. eigenvalues --   -0.46178  -0.44987  -0.43481  -0.40133  -0.37725
 Alpha  occ. eigenvalues --   -0.36443  -0.34399
 Alpha virt. eigenvalues --    0.03336   0.04888   0.05513   0.06858   0.10181
 Alpha virt. eigenvalues --    0.10778   0.11455   0.11993   0.13996   0.14932
 Alpha virt. eigenvalues --    0.15006   0.15548   0.17497   0.18448   0.19643

 Mulliken charges:
               1
     1  C   -0.172274
     2  C   -0.258853
     3  H    0.096474
     4  H    0.037195
     5  H    0.068901
     6  C   -0.287705
     7  H    0.002616
     8  H    0.232754
     9  C   -0.176476
    10  H    0.296425
    11  H   -0.002544
    12  H    0.026308
    13  H    0.040317
    14  H    0.096863
 Sum of Mulliken charges =   0.00000

 Dipole moment (field-independent basis, Debye):
    X=             -0.2915    Y=              0.0059    Z=             -0.7753  Tot=              0.8283
 Quadrupole moment (field-independent basis, Debye-Ang):
   XX=            -29.9530   YY=            -29.9925   ZZ=            -29.3167
   XY=              0.0322   XZ=              1.7150   YZ=             -0.5996

 Normal termination of Gaussian 09 at Wed Aug 26 23:48:18 2020.
