 Gaussian 09, Revision D.01,
 Gaussian 09:  ES64L-G09RevD.01 24-Apr-2013

 --------------------
 #p B2PLYPD3/Def2QZVP
 --------------------

 ----------
 butane_opt
 ----------
 Symbolic Z-matrix:
 Charge =  0 Multiplicity = 1

                         Standard orientation:
 ---------------------------------------------------------------------
 Center     Atomic      Atomic             Coordinates (Angstroms)
 Number     Number       Type             X           Y           Z
 ---------------------------------------------------------------------
      1          6           0       -1.947718    0.087667    0.061885
      2          6           0       -0.631273   -0.448249   -0.079942
      3          1           0       -2.723947   -0.756829   -0.397848
      4          1           0       -1.940798    0.199499   -0.506987
      5          1           0       -2.277797    1.286382    1.423420
      6          6           0        0.554484    0.588549   -0.087129
      7          1           0       -0.572090   -1.289714   -1.063194
      8          1           0       -0.823476   -1.112886    0.696892
      9          6           0        2.028582   -0.254472    0.078828
     10          1           0        0.357062    0.855455    0.593993
     11          1           0        0.621158    1.802451   -1.204696
     12          1           0        2.200422   -0.966067    1.112683
     13          1           0        2.963978    0.583361    0.070580
     14          1           0        2.171041   -0.442617   -0.566692
 ---------------------------------------------------------------------

 SCF Done:  E(RB2PLYPD3) =  -156.821235524     A.U. after   13 cycles
 E2(B2PLYPD3) =    -0.2616680706D+00 E(B2PLYPD3) =    -0.15708290359481D+03

 The electronic state is 1-A.
 Alpha  occ. eigenvalues --  -10.64069 -10.63024 -10.62847 -10.61447  -0.98490
 Alpha  occ. eigenvalues --   -0.89041  -0.81303  -0.70384  -0.54150  -0.51191
 Alpha  occ. eigenvalues --   -0.48394  -0.43710  -0.43150  -0.38805  -0.37759
 Alpha  occ. eigenvalues --   -0.34250  -0.33949
 Alpha virt. eigenvalues --   -0.01836   0.02172   0.05305   0.05902   0.09808
 Alpha virt. eigenvalues --    0.10182   0.11588   0.11967   0.13149   0.15279
 Alpha virt. eigenvalues --    0.15546   0.16228   0.17367   0.18841   0.20396

 Mulliken charges:
               1
     1  C   -0.927636
     2  C    0.034293
     3  H    0.064767
     4  H    0.734004
     5  H    0.031022
     6  C   -0.446236
     7  H   -0.007200
     8  H    0.070440
     9  C   -0.590924
    10  H    0.442079
    11  H    0.008804
    12  H    0.087024
    13  H    0.036214
    14  H    0.463348
 Sum of Mulliken charges =   0.00000

 Dipole moment (field-independent basis, Debye):
    X=              0.2234    Y=             -0.4788    Z=             -0.0477  Tot=              0.5305
 Quadrupole moment (field-independent basis, Debye-Ang):
   XX=            -30.6728   YY=            -29.5728   ZZ=            -28.0936
   XY=              0.1662   XZ=              0.7256   YZ=              0.4298

 Normal termination of Gaussian 09 at Wed Aug 26 12:19:54 2020.
