 Gaussian 09, Revision D.01,
 Gaussian 09:  ES64L-G09RevD.01 24-Apr-2013

 --------------------
 #p B2PLYPD3/Def2QZVP
 --------------------

 ----------
 butane_opt
 ----------
 Symbolic Z-matrix:
 Charge =  0 Multiplicity = 1

                         Standard orientation:
 ---------------------------------------------------------------------
 Center     Atomic      Atomic             Coordinates (Angstroms)
 Number     Number       Type             X           Y           Z
 ---------------------------------------------------------------------
      1          6           0       -1.999693   -0.210070    0.158431
      2          6           0       -0.538810    0.616673   -0.206350
      3          1           0       -2.740062    0.382934    0.758951
      4          1           0       -1.723371   -0.556111    0.950322
      5          1           0       -2.779610   -0.769327   -0.889542
      6          6           0        0.621439   -0.425291   -0.238845
      7          1           0       -0.286093    0.984528    0.640201
      8          1           0       -0.516546    1.625530   -1.060428
      9          6           0        1.989346    0.072694    0.147501
     10          1           0        0.346582   -1.009471   -1.077422
     11          1           0        0.435697   -1.478187    0.702323
     12          1           0        2.147841    0.447650   -0.458135
     13          1           0        2.850711   -0.776054   -0.028411
     14          1           0        1.831153    0.824469    1.297723
 ---------------------------------------------------------------------

 SCF Done:  E(RB2PLYPD3) =  -157.674124802     A.U. after   11 cycles
 E2(B2PLYPD3) =    -0.2554249203D+00 E(B2PLYPD3) =    -0.15792954972204D+03

 The electronic state is 1-A.
 Alpha  occ. eigenvalues --  -10.63714 -10.63387 -10.62799 -10.61128  -0.92322
 Alpha  occ. eigenvalues --   -0.85056  -0.76094  -0.66554  -0.54328  -0.48645
 Alpha  occ. eigenvalues --   -0.47740  -0.45078  -0.41972  -0.40871  -0.38038
 Alpha  occ. eigenvalues --   -0.36182  -0.33167
 Alpha virt. eigenvalues --    0.04046   0.05172   0.06221   0.07936   0.09636
 Alpha virt. eigenvalues --    0.10220   0.11706   0.12916   0.13948   0.14681
 Alpha virt. eigenvalues --    0.15382   0.16484   0.17720   0.19257   0.20605

 Mulliken charges:
               1
     1  C   -0.220391
     2  C   -0.132817
     3  H    0.026406
     4  H    0.133015
     5  H    0.060041
     6  C   -0.012074
     7  H    0.101377
     8  H    0.027506
     9  C   -0.513872
    10  H    0.051204
    11  H   -0.034390
    12  H    0.402270
    13  H    0.059698
    14  H    0.052028
 Sum of Mulliken charges =   0.00000

 Dipole moment (field-independent basis, Debye):
    X=              0.2221    Y=              0.4092    Z=             -0.0822  Tot=              0.4728
 Quadrupole moment (field-independent basis, Debye-Ang):
   XX=            -29.3271   YY=            -30.5307   ZZ=            -28.2052
   XY=              0.1479   XZ=             -1.2466   YZ=              0.7683

 Normal termination of Gaussian 09 at Wed Aug 26 11:05:34 2020.
