 Gaussian 09, Revision D.01,
 Gaussian 09:  ES64L-G09RevD.01 24-Apr-2013

 --------------------
 #p B2PLYPD3/Def2QZVP
 --------------------

 ----------
 butane_opt
 ----------
 Symbolic Z-matrix:
 Charge =  0 Multiplicity = 1

                         Standard orientation:
 ---------------------------------------------------------------------
 Center     Atomic      Atomic             Coordinates (Angstroms)
 Number     Number       Type             X           Y           Z
 ---------------------------------------------------------------------
      1          6           0       -1.895479    0.087934   -0.047364
      2          6           0       -0.601626   -0.473494   -0.003225
      3          1           0       -2.801305   -0.623309   -0.302199
      4          1           0       -1.909021    0.284102   -0.604123
      5          1           0       -2.072110    0.804955    1.047748
      6          6           0        0.481137    0.612350   -0.022412
      7          1           0       -0.460723   -0.887237   -0.811492
      8          1           0       -0.788673   -1.509790    1.024951
      9          6           0        2.062754   -0.137910   -0.038045
     10          1           0        0.201658    1.284245    0.869557
     11          1           0        0.366133    1.449908   -0.866085
     12          1           0        2.117716   -0.877670    0.926721
     13          1           0        2.787516    0.408235    0.353033
     14          1           0        2.278089   -0.866712   -0.971832
 ---------------------------------------------------------------------

 SCF Done:  E(RB2PLYPD3) =  -157.427354992     A.U. after   12 cycles
 E2(B2PLYPD3) =    -0.2532776264D+00 E(B2PLYPD3) =    -0.15768063261847D+03

 The electronic state is 1-A.
 Alpha  occ. eigenvalues --  -10.64873 -10.63149 -10.61490 -10.59069  -0.96527
 Alpha  occ. eigenvalues --   -0.83485  -0.75888  -0.67548  -0.57348  -0.49251
 Alpha  occ. eigenvalues --   -0.48489  -0.46778  -0.42354  -0.39443  -0.38446
 Alpha  occ. eigenvalues --   -0.36407  -0.34375
 Alpha virt. eigenvalues --    0.04406   0.05897   0.06535   0.08161   0.10275
 Alpha virt. eigenvalues --    0.10799   0.12722   0.13022   0.13947   0.14684
 Alpha virt. eigenvalues --    0.15389   0.16463   0.18301   0.19603   0.20303

 Mulliken charges:
               1
     1  C   -0.819944
     2  C   -0.005849
     3  H    0.069871
     4  H    0.614328
     5  H    0.053834
     6  C   -0.059409
     7  H    0.094023
     8  H   -0.007100
     9  C   -0.167571
    10  H    0.033126
    11  H    0.028995
    12  H    0.031084
    13  H    0.077762
    14  H    0.056851
 Sum of Mulliken charges =   0.00000

 Dipole moment (field-independent basis, Debye):
    X=              0.0933    Y=              0.3066    Z=             -0.5840  Tot=              0.6661
 Quadrupole moment (field-independent basis, Debye-Ang):
   XX=            -29.2419   YY=            -29.7037   ZZ=            -28.2158
   XY=              0.1063   XZ=              0.9958   YZ=              0.9538

 Normal termination of Gaussian 09 at Wed Aug 26 23:31:10 2020.
