 Gaussian 09, Revision D.01,
 Gaussian 09:  ES64L-G09RevD.01 24-Apr-2013

 --------------------
 #p B2PLYPD3/Def2QZVP
 --------------------

 ----------
 butane_opt
 ----------
 Symbolic Z-matrix:
 Charge =  0 Multiplicity = 1

                         Standard orientation:
 ---------------------------------------------------------------------
 Center     Atomic      Atomic             Coordinates (Angstroms)
 Number     Number       Type             X           Y           Z
 ---------------------------------------------------------------------
      1          6           0       -2.039598   -0.177597    0.020709
      2          6           0       -0.552908    0.560449   -0.079328
      3          1           0       -2.736142    0.611898   -0.046089
      4          1           0       -2.108728   -0.836410    0.910331
      5          1           0       -2.185770   -0.621784   -0.689772
      6          6           0        0.581997   -0.472972   -0.009023
      7          1           0       -0.411380    1.256938    0.812550
      8          1           0       -0.312977    1.196128   -0.979355
      9          6           0        1.973879    0.080713    0.039538
     10          1           0        0.636522   -1.087918   -0.802307
     11          1           0        0.524023   -1.228078    1.037981
     12          1           0        1.810114    0.459571   -0.665892
     13          1           0        2.766806   -0.672807   -0.535261
     14          1           0        2.237309    0.978911    1.126431
 ---------------------------------------------------------------------

 SCF Done:  E(RB2PLYPD3) =  -157.858829493     A.U. after   11 cycles
 E2(B2PLYPD3) =    -0.2503014230D+00 E(B2PLYPD3) =    -0.15810913091557D+03

 The electronic state is 1-A.
 Alpha  occ. eigenvalues --  -10.62840 -10.61657 -10.60801 -10.58331  -0.92812
 Alpha  occ. eigenvalues --   -0.85361  -0.75241  -0.66276  -0.53626  -0.50168
 Alpha  occ. eigenvalues --   -0.49193  -0.46759  -0.43148  -0.41757  -0.37774
 Alpha  occ. eigenvalues --   -0.37616  -0.34819
 Alpha virt. eigenvalues --    0.04468   0.06520   0.07873   0.07968   0.10253
 Alpha virt. eigenvalues --    0.11616   0.12208   0.13270   0.14399   0.15206
 Alpha virt. eigenvalues --    0.15910   0.16487   0.18687   0.19516   0.20903

 Mulliken charges:
               1
     1  C   -0.231675
     2  C   -0.060643
     3  H    0.043466
     4  H    0.066436
     5  H    0.134703
     6  C   -0.030465
     7  H    0.035260
     8  H    0.028684
     9  C   -0.388952
    10  H    0.063406
    11  H   -0.011543
    12  H    0.274255
    13  H    0.040167
    14  H    0.036899
 Sum of Mulliken charges =   0.00000

 Dipole moment (field-independent basis, Debye):
    X=             -0.4625    Y=              0.1124    Z=             -0.7979  Tot=              0.9291
 Quadrupole moment (field-independent basis, Debye-Ang):
   XX=            -30.4075   YY=            -29.2891   ZZ=            -27.9008
   XY=             -0.0093   XZ=             -0.8056   YZ=              0.7943

 Normal termination of Gaussian 09 at Wed Aug 26 10:42:09 2020.
