 Gaussian 09, Revision D.01,
 Gaussian 09:  ES64L-G09RevD.01 24-Apr-2013

 --------------------
 #p B2PLYPD3/Def2QZVP
 --------------------

 ----------
 butane_opt
 ----------
 Symbolic Z-matrix:
 Charge =  0 Multiplicity = 1

                         Standard orientation:
 ---------------------------------------------------------------------
 Center     Atomic      Atomic             Coordinates (Angstroms)
 Number     Number       Type             X           Y           Z
 ---------------------------------------------------------------------
      1          6           0       -1.964265    0.044691   -0.093525
      2          6           0       -0.550016   -0.499368    0.099549
      3          1           0       -2.756545   -0.760531   -0.111648
      4          1           0       -2.174504    0.797516   -1.069483
      5          1           0       -2.240284    0.761606    0.787194
      6          6           0        0.585084    0.582211    0.102811
      7          1           0       -0.241675   -1.100348   -0.840787
      8          1           0       -0.660549   -1.130356    0.982641
      9          6           0        1.994289   -0.090773   -0.126582
     10          1           0        0.476561    1.607291    1.208772
     11          1           0        0.266190    0.811710   -0.518585
     12          1           0        2.447075   -1.103199    1.247356
     13          1           0        2.496784    0.356028   -0.763531
     14          1           0        1.996394   -0.460281   -0.815445
 ---------------------------------------------------------------------

 SCF Done:  E(RB2PLYPD3) =  -157.547358064     A.U. after   12 cycles
 E2(B2PLYPD3) =    -0.2555596967D+00 E(B2PLYPD3) =    -0.15780291776033D+03

 The electronic state is 1-A.
 Alpha  occ. eigenvalues --  -10.63111 -10.62494 -10.62119 -10.61244  -0.96294
 Alpha  occ. eigenvalues --   -0.89013  -0.79148  -0.66840  -0.55059  -0.50702
 Alpha  occ. eigenvalues --   -0.47489  -0.44824  -0.40543  -0.39994  -0.37587
 Alpha  occ. eigenvalues --   -0.36013  -0.35240
 Alpha virt. eigenvalues --   -0.00007   0.05516   0.06255   0.07316   0.09094
 Alpha virt. eigenvalues --    0.10917   0.12167   0.12362   0.13536   0.14830
 Alpha virt. eigenvalues --    0.16416   0.17341   0.17654   0.18905   0.20305

 Mulliken charges:
               1
     1  C   -0.157241
     2  C   -0.022424
     3  H    0.059854
     4  H    0.014189
     5  H    0.046491
     6  C   -0.535018
     7  H    0.024515
     8  H    0.047794
     9  C   -0.419592
    10  H    0.006764
    11  H    0.489664
    12  H    0.033838
    13  H    0.091723
    14  H    0.319443
 Sum of Mulliken charges =   0.00000

 Dipole moment (field-independent basis, Debye):
    X=             -0.2714    Y=             -0.4017    Z=             -1.0001  Tot=              1.1114
 Quadrupole moment (field-independent basis, Debye-Ang):
   XX=            -30.7334   YY=            -30.3930   ZZ=            -27.5773
   XY=             -0.1952   XZ=             -2.5961   YZ=             -0.7480

 Normal termination of Gaussian 09 at Wed Aug 26 21:28:51 2020.
