 Gaussian 09, Revision D.01,
 Gaussian 09:  ES64L-G09RevD.01 24-Apr-2013

 --------------------
 #p B2PLYPD3/Def2QZVP
 --------------------

 ----------
 butane_opt
 ----------
 Symbolic Z-matrix:
 Charge =  0 Multiplicity = 1

                         Standard orientation:
 ---------------------------------------------------------------------
 Center     Atomic      Atomic             Coordinates (Angstroms)
 Number     Number       Type             X           Y           Z
 ---------------------------------------------------------------------
      1          6           0        1.953238    0.086518   -0.213444
      2          6           0        0.579132   -0.493058    0.196600
      3          1           0        2.791110   -0.844080   -0.642457
      4          1           0        2.477089    1.036136    0.854389
      5          1           0        1.588229    0.585727   -0.941721
      6          6           0       -0.489723    0.569382    0.099374
      7          1           0        0.566493   -1.514678    1.529134
      8          1           0        0.346703   -0.892512   -0.366301
      9          6           0       -1.953521   -0.169325   -0.099260
     10          1           0       -0.640174    1.095862   -0.807522
     11          1           0       -0.438118    1.403766    1.135209
     12          1           0       -2.183993   -0.916595   -1.005438
     13          1           0       -2.579923    0.518828   -0.121025
     14          1           0       -2.462164   -0.433556    0.466114
 ---------------------------------------------------------------------

 SCF Done:  E(RB2PLYPD3) =  -157.553665464     A.U. after   12 cycles
 E2(B2PLYPD3) =    -0.2555192946D+00 E(B2PLYPD3) =    -0.15780918475829D+03

 The electronic state is 1-A.
 Alpha  occ. eigenvalues --  -10.65437 -10.65063 -10.62541 -10.56931  -0.94973
 Alpha  occ. eigenvalues --   -0.88004  -0.76228  -0.70256  -0.54466  -0.49614
 Alpha  occ. eigenvalues --   -0.48070  -0.46279  -0.42291  -0.39533  -0.37904
 Alpha  occ. eigenvalues --   -0.37593  -0.33811
 Alpha virt. eigenvalues --    0.01916   0.05117   0.06026   0.07630   0.09139
 Alpha virt. eigenvalues --    0.10386   0.11587   0.13173   0.14409   0.14803
 Alpha virt. eigenvalues --    0.15929   0.16143   0.17897   0.19142   0.19898

 Mulliken charges:
               1
     1  C   -0.186491
     2  C   -0.473571
     3  H    0.047294
     4  H    0.025866
     5  H    0.119074
     6  C   -0.052829
     7  H   -0.027506
     8  H    0.492889
     9  C   -0.291031
    10  H    0.077960
    11  H    0.019244
    12  H    0.022127
    13  H    0.055247
    14  H    0.171726
 Sum of Mulliken charges =   0.00000

 Dipole moment (field-independent basis, Debye):
    X=             -0.7997    Y=              0.3325    Z=             -0.9312  Tot=              1.2717
 Quadrupole moment (field-independent basis, Debye-Ang):
   XX=            -29.2877   YY=            -29.9135   ZZ=            -29.2291
   XY=             -0.6567   XZ=             -0.8168   YZ=              1.2132

 Normal termination of Gaussian 09 at Wed Aug 26 23:49:58 2020.
