 Gaussian 09, Revision D.01,
 Gaussian 09:  ES64L-G09RevD.01 24-Apr-2013

 --------------------
 #p B2PLYPD3/Def2QZVP
 --------------------

 ----------
 butane_opt
 ----------
 Symbolic Z-matrix:
 Charge =  0 Multiplicity = 1

                         Standard orientation:
 ---------------------------------------------------------------------
 Center     Atomic      Atomic             Coordinates (Angstroms)
 Number     Number       Type             X           Y           Z
 ---------------------------------------------------------------------
      1          6           0        1.997689   -0.166230   -0.163040
      2          6           0        0.505130    0.683879    0.191323
      3          1           0        2.779431    0.467291   -0.532634
      4          1           0        2.093748   -0.935959   -0.912720
      5          1           0        2.454769   -0.915984    0.853555
      6          6           0       -0.602294   -0.477727    0.248753
      7          1           0       -0.063876    1.001893   -0.648788
      8          1           0        0.609581    1.437081    1.092573
      9          6           0       -1.856724    0.074917   -0.169245
     10          1           0       -0.781436   -1.051899    1.013723
     11          1           0       -0.470676   -1.093537   -0.573259
     12          1           0       -2.425706    0.543191    0.458469
     13          1           0       -2.725912   -0.867678   -0.190504
     14          1           0       -1.732732    0.726563   -1.207164
 ---------------------------------------------------------------------

 SCF Done:  E(RB2PLYPD3) =  -157.958396916     A.U. after   11 cycles
 E2(B2PLYPD3) =    -0.2519334658D+00 E(B2PLYPD3) =    -0.15821033038168D+03

 The electronic state is 1-A.
 Alpha  occ. eigenvalues --  -10.64130 -10.63276 -10.61277 -10.58724  -0.92705
 Alpha  occ. eigenvalues --   -0.80525  -0.72932  -0.68889  -0.56928  -0.48356
 Alpha  occ. eigenvalues --   -0.47587  -0.44516  -0.42401  -0.41336  -0.38723
 Alpha  occ. eigenvalues --   -0.36829  -0.34662
 Alpha virt. eigenvalues --    0.05159   0.05885   0.08320   0.08685   0.10364
 Alpha virt. eigenvalues --    0.11286   0.12539   0.12609   0.14215   0.15169
 Alpha virt. eigenvalues --    0.15867   0.16628   0.18406   0.19856   0.20736

 Mulliken charges:
               1
     1  C   -0.160431
     2  C   -0.125145
     3  H    0.055788
     4  H    0.046178
     5  H    0.016959
     6  C   -0.024682
     7  H    0.075044
     8  H    0.057004
     9  C   -0.147828
    10  H    0.043655
    11  H    0.079319
    12  H    0.052817
    13  H   -0.000582
    14  H    0.031904
 Sum of Mulliken charges =   0.00000

 Dipole moment (field-independent basis, Debye):
    X=             -0.2791    Y=             -0.0108    Z=              0.0314  Tot=              0.2810
 Quadrupole moment (field-independent basis, Debye-Ang):
   XX=            -30.2851   YY=            -29.0555   ZZ=            -28.6979
   XY=             -0.3059   XZ=             -1.6511   YZ=              0.1509

 Normal termination of Gaussian 09 at Wed Aug 26 23:36:20 2020.
