 Gaussian 09, Revision D.01,
 Gaussian 09:  ES64L-G09RevD.01 24-Apr-2013

 --------------------
 #p B2PLYPD3/Def2QZVP
 --------------------

 ----------
 butane_opt
 ----------
 Symbolic Z-matrix:
 Charge =  0 Multiplicity = 1

                         Standard orientation:
 ---------------------------------------------------------------------
 Center     Atomic      Atomic             Coordinates (Angstroms)
 Number     Number       Type             X           Y           Z
 ---------------------------------------------------------------------
      1          6           0        2.042262    0.143853    0.039146
      2          6           0        0.481646   -0.635319   -0.063492
      3          1           0        2.792623   -0.527943   -0.150679
      4          1           0        2.387776    1.521879    1.301863
      5          1           0        2.358857    0.299076   -0.629406
      6          6           0       -0.648379    0.466359   -0.180327
      7          1           0        0.252486   -1.150090    0.949075
      8          1           0        0.556658   -1.418535   -0.905760
      9          6           0       -1.910450   -0.057886    0.122188
     10          1           0       -0.466991    1.047325   -1.222509
     11          1           0       -0.557678    1.199138    0.606099
     12          1           0       -2.406529   -0.296368   -0.558569
     13          1           0       -2.668621    0.756600   -0.222388
     14          1           0       -2.039053   -0.933124    1.327185
 ---------------------------------------------------------------------

 SCF Done:  E(RB2PLYPD3) =  -157.588839061     A.U. after   13 cycles
 E2(B2PLYPD3) =    -0.2589758766D+00 E(B2PLYPD3) =    -0.15784781493809D+03

 The electronic state is 1-A.
 Alpha  occ. eigenvalues --  -10.65242 -10.62356 -10.61925 -10.61233  -0.92903
 Alpha  occ. eigenvalues --   -0.89063  -0.78581  -0.68157  -0.54199  -0.50215
 Alpha  occ. eigenvalues --   -0.47270  -0.43498  -0.41131  -0.40174  -0.37031
 Alpha  occ. eigenvalues --   -0.33859  -0.32795
 Alpha virt. eigenvalues --   -0.01038   0.03845   0.05762   0.06853   0.09722
 Alpha virt. eigenvalues --    0.09904   0.11534   0.12704   0.12855   0.15093
 Alpha virt. eigenvalues --    0.16005   0.16585   0.18350   0.18912   0.20989

 Mulliken charges:
               1
     1  C   -0.448422
     2  C   -0.054490
     3  H    0.051778
     4  H   -0.003893
     5  H    0.332996
     6  C   -0.020311
     7  H    0.046111
     8  H    0.041123
     9  C   -0.254450
    10  H    0.013815
    11  H    0.082908
    12  H    0.141091
    13  H    0.024056
    14  H    0.047688
 Sum of Mulliken charges =   0.00000

 Dipole moment (field-independent basis, Debye):
    X=             -0.4799    Y=             -0.5460    Z=             -1.3220  Tot=              1.5087
 Quadrupole moment (field-independent basis, Debye-Ang):
   XX=            -29.8261   YY=            -30.1560   ZZ=            -28.7338
   XY=             -1.1058   XZ=             -1.2950   YZ=             -0.1575

 Normal termination of Gaussian 09 at Wed Aug 26 18:34:17 2020.
