 Gaussian 09, Revision D.01,
 Gaussian 09:  ES64L-G09RevD.01 24-Apr-2013

 --------------------
 #p B2PLYPD3/Def2QZVP
 --------------------

 ----------
 butane_opt
 ----------
 Symbolic Z-matrix:
 Charge =  0 Multiplicity = 1

                         Standard orientation:
 ---------------------------------------------------------------------
 Center     Atomic      Atomic             Coordinates (Angstroms)
 Number     Number       Type             X           Y           Z
 ---------------------------------------------------------------------
      1          6           0        1.876402    0.071714   -0.140546
      2          6           0        0.558555   -0.422888    0.223502
      3          1           0        2.764498   -0.867483   -0.613419
      4          1           0        2.329402    0.976213    0.824179
      5          1           0        1.594473    0.300953   -0.799582
      6          6           0       -0.436991    0.600345    0.145972
      7          1           0        0.531664   -1.213821    1.428943
      8          1           0        0.324237   -1.156455   -0.684061
      9          6           0       -1.959378   -0.136512   -0.156141
     10          1           0       -0.214694    1.323997   -0.950381
     11          1           0       -0.703694    1.118968    0.730720
     12          1           0       -1.803847   -0.870633   -0.989986
     13          1           0       -2.506459    0.296561   -0.272081
     14          1           0       -2.547102   -0.584254    0.888949
 ---------------------------------------------------------------------

 SCF Done:  E(RB2PLYPD3) =  -157.485082845     A.U. after   12 cycles
 E2(B2PLYPD3) =    -0.2542560804D+00 E(B2PLYPD3) =    -0.15773933892518D+03

 The electronic state is 1-A.
 Alpha  occ. eigenvalues --  -10.64962 -10.62115 -10.61898 -10.59497  -0.95952
 Alpha  occ. eigenvalues --   -0.87374  -0.78952  -0.67620  -0.55935  -0.51436
 Alpha  occ. eigenvalues --   -0.49853  -0.46478  -0.43853  -0.39979  -0.36961
 Alpha  occ. eigenvalues --   -0.35608  -0.35077
 Alpha virt. eigenvalues --    0.04075   0.05342   0.05872   0.07352   0.09604
 Alpha virt. eigenvalues --    0.10452   0.11833   0.12878   0.14140   0.14963
 Alpha virt. eigenvalues --    0.16569   0.17388   0.17881   0.19223   0.20929

 Mulliken charges:
               1
     1  C   -0.498174
     2  C    0.007128
     3  H    0.032967
     4  H    0.044313
     5  H    0.396697
     6  C   -0.186729
     7  H    0.004816
     8  H    0.042768
     9  C   -0.523354
    10  H   -0.006368
    11  H    0.196733
    12  H    0.070299
    13  H    0.395772
    14  H    0.023132
 Sum of Mulliken charges =   0.00000

 Dipole moment (field-independent basis, Debye):
    X=             -0.5604    Y=              0.5278    Z=             -0.4183  Tot=              0.8761
 Quadrupole moment (field-independent basis, Debye-Ang):
   XX=            -30.4594   YY=            -30.0238   ZZ=            -28.4016
   XY=             -1.0111   XZ=             -0.4616   YZ=              1.4201

 Normal termination of Gaussian 09 at Wed Aug 26 14:59:02 2020.
