 Gaussian 09, Revision D.01,
 Gaussian 09:  ES64L-G09RevD.01 24-Apr-2013

 --------------------
 #p B2PLYPD3/Def2QZVP
 --------------------

 ----------
 butane_opt
 ----------
 Symbolic Z-matrix:
 Charge =  0 Multiplicity = 1

                         Standard orientation:
 ---------------------------------------------------------------------
 Center     Atomic      Atomic             Coordinates (Angstroms)
 Number     Number       Type             X           Y           Z
 ---------------------------------------------------------------------
      1          6           0        1.973743   -0.155368    0.151383
      2          6           0        0.515756    0.587932   -0.172241
      3          1           0        2.691389    0.513355    0.557296
      4          1           0        2.415856   -0.744105   -0.800534
      5          1           0        1.732793   -0.663136    0.866405
      6          6           0       -0.516709   -0.493832   -0.186896
      7          1           0        0.368296    1.489482   -1.290282
      8          1           0        0.097498    0.991475    0.643676
      9          6           0       -1.898551    0.050951    0.114347
     10          1           0       -0.277389   -1.356766    0.716613
     11          1           0       -0.864529   -0.956169   -1.044421
     12          1           0       -2.017520    0.993235    1.438049
     13          1           0       -2.590566   -0.643966    0.080799
     14          1           0       -2.001260    0.438493   -0.607159
 ---------------------------------------------------------------------

 SCF Done:  E(RB2PLYPD3) =  -157.816764983     A.U. after   11 cycles
 E2(B2PLYPD3) =    -0.2524184247D+00 E(B2PLYPD3) =    -0.15806918340820D+03

 The electronic state is 1-A.
 Alpha  occ. eigenvalues --  -10.63937 -10.62421 -10.60325 -10.60220  -0.94129
 Alpha  occ. eigenvalues --   -0.85364  -0.75978  -0.66258  -0.54514  -0.51787
 Alpha  occ. eigenvalues --   -0.49855  -0.47178  -0.42087  -0.40289  -0.38770
 Alpha  occ. eigenvalues --   -0.36101  -0.35182
 Alpha virt. eigenvalues --    0.03912   0.05533   0.06508   0.07331   0.10376
 Alpha virt. eigenvalues --    0.11238   0.12335   0.13193   0.13862   0.15012
 Alpha virt. eigenvalues --    0.16072   0.16452   0.18202   0.18907   0.20896

 Mulliken charges:
               1
     1  C   -0.187135
     2  C   -0.108617
     3  H    0.043062
     4  H    0.051154
     5  H    0.117649
     6  C   -0.034681
     7  H   -0.000733
     8  H    0.103977
     9  C   -0.286308
    10  H    0.002228
    11  H    0.052567
    12  H   -0.030189
    13  H    0.064568
    14  H    0.212458
 Sum of Mulliken charges =   0.00000

 Dipole moment (field-independent basis, Debye):
    X=              0.0066    Y=             -0.6149    Z=             -0.3789  Tot=              0.7223
 Quadrupole moment (field-independent basis, Debye-Ang):
   XX=            -29.5462   YY=            -30.3597   ZZ=            -28.5235
   XY=              1.0150   XZ=              2.2223   YZ=              0.0893

 Normal termination of Gaussian 09 at Wed Aug 26 23:20:25 2020.
