 Gaussian 09, Revision D.01,
 Gaussian 09:  ES64L-G09RevD.01 24-Apr-2013

 --------------------
 #p B2PLYPD3/Def2QZVP
 --------------------

 ----------
 butane_opt
 ----------
 Symbolic Z-matrix:
 Charge =  0 Multiplicity = 1

                         Standard orientation:
 ---------------------------------------------------------------------
 Center     Atomic      Atomic             Coordinates (Angstroms)
 Number     Number       Type             X           Y           Z
 ---------------------------------------------------------------------
      1          6           0       -1.859055    0.037058    0.137438
      2          6           0       -0.599979   -0.371319   -0.311682
      3          1           0       -2.766408   -0.859051    0.548696
      4          1           0       -2.535888    0.624952   -0.544297
      5          1           0       -1.326369    0.604074    1.259963
      6          6           0        0.490626    0.558849   -0.041580
      7          1           0       -0.531109   -0.950672   -1.410756
      8          1           0       -0.222570   -1.030436    0.347445
      9          6           0        1.941747   -0.258879    0.102933
     10          1           0        0.167916    0.990391    1.066403
     11          1           0        0.292852    1.596618   -0.921390
     12          1           0        2.014517   -1.238757    0.904305
     13          1           0        2.883542    0.801779   -0.012451
     14          1           0        2.183485   -0.333154   -0.560568
 ---------------------------------------------------------------------

 SCF Done:  E(RB2PLYPD3) =  -157.663195325     A.U. after   11 cycles
 E2(B2PLYPD3) =    -0.2591497508D+00 E(B2PLYPD3) =    -0.15792234507622D+03

 The electronic state is 1-A.
 Alpha  occ. eigenvalues --  -10.66221 -10.64695 -10.63099 -10.60629  -0.94575
 Alpha  occ. eigenvalues --   -0.85803  -0.74055  -0.64110  -0.55066  -0.52593
 Alpha  occ. eigenvalues --   -0.48447  -0.45948  -0.40397  -0.39157  -0.36381
 Alpha  occ. eigenvalues --   -0.36247  -0.33546
 Alpha virt. eigenvalues --    0.03742   0.04714   0.06226   0.06879   0.08813
 Alpha virt. eigenvalues --    0.10256   0.11150   0.12718   0.13715   0.14751
 Alpha virt. eigenvalues --    0.15464   0.16041   0.17672   0.19005   0.20607

 Mulliken charges:
               1
     1  C   -0.174504
     2  C   -0.029477
     3  H    0.025613
     4  H    0.068473
     5  H    0.028737
     6  C   -0.022653
     7  H    0.016076
     8  H    0.077341
     9  C   -0.585992
    10  H    0.032480
    11  H    0.004595
    12  H    0.095123
    13  H    0.011112
    14  H    0.453076
 Sum of Mulliken charges =   0.00000

 Dipole moment (field-independent basis, Debye):
    X=              0.1064    Y=             -0.7282    Z=             -0.3287  Tot=              0.8060
 Quadrupole moment (field-independent basis, Debye-Ang):
   XX=            -31.2040   YY=            -30.3271   ZZ=            -29.5020
   XY=             -1.3127   XZ=              0.2635   YZ=             -1.1068

 Normal termination of Gaussian 09 at Wed Aug 26 10:26:28 2020.
