 Gaussian 09, Revision D.01,
 Gaussian 09:  ES64L-G09RevD.01 24-Apr-2013

 --------------------
 #p B2PLYPD3/Def2QZVP
 --------------------

 ----------
 butane_opt
 ----------
 Symbolic Z-matrix:
 Charge =  0 Multiplicity = 1

                         Standard orientation:
 ---------------------------------------------------------------------
 Center     Atomic      Atomic             Coordinates (Angstroms)
 Number     Number       Type             X           Y           Z
 ---------------------------------------------------------------------
      1          6           0        1.889302    0.013222    0.030576
      2          6           0        0.623395   -0.475777    0.008996
      3          1           0        2.670405   -0.881855   -0.375839
      4          1           0        2.488785    1.125062    1.153817
      5          1           0        1.948021    0.510312   -0.647687
      6          6           0       -0.531736    0.615825   -0.119939
      7          1           0        0.400670   -1.116928    1.017427
      8          1           0        0.630416   -1.211837   -0.829882
      9          6           0       -1.990564   -0.170637    0.036173
     10          1           0       -0.243864    1.188925   -0.969314
     11          1           0       -0.478555    1.581501    0.717129
     12          1           0       -2.083254   -0.613763   -0.611081
     13          1           0       -2.758595    0.429504   -0.214509
     14          1           0       -2.516409   -0.906718    1.025104
 ---------------------------------------------------------------------

 SCF Done:  E(RB2PLYPD3) =  -157.734059443     A.U. after   12 cycles
 E2(B2PLYPD3) =    -0.2540198588D+00 E(B2PLYPD3) =    -0.15798807930142D+03

 The electronic state is 1-A.
 Alpha  occ. eigenvalues --  -10.64659 -10.62528 -10.62427 -10.59387  -0.93993
 Alpha  occ. eigenvalues --   -0.86698  -0.75451  -0.67364  -0.52637  -0.50411
 Alpha  occ. eigenvalues --   -0.49919  -0.47235  -0.42027  -0.41320  -0.38477
 Alpha  occ. eigenvalues --   -0.35630  -0.33441
 Alpha virt. eigenvalues --    0.02373   0.05216   0.05941   0.07418   0.09433
 Alpha virt. eigenvalues --    0.10884   0.11792   0.12587   0.14364   0.15429
 Alpha virt. eigenvalues --    0.15522   0.16361   0.17727   0.19132   0.20806

 Mulliken charges:
               1
     1  C   -0.259847
     2  C    0.006493
     3  H    0.033811
     4  H   -0.022091
     5  H    0.176986
     6  C   -0.065881
     7  H    0.032842
     8  H    0.045137
     9  C   -0.334194
    10  H    0.045682
    11  H    0.022117
    12  H    0.232927
    13  H    0.040450
    14  H    0.045566
 Sum of Mulliken charges =   0.00000

 Dipole moment (field-independent basis, Debye):
    X=             -0.6820    Y=             -0.3315    Z=             -1.3932  Tot=              1.5862
 Quadrupole moment (field-independent basis, Debye-Ang):
   XX=            -30.6817   YY=            -29.0119   ZZ=            -29.2325
   XY=             -0.1592   XZ=             -1.5619   YZ=             -0.0621

 Normal termination of Gaussian 09 at Wed Aug 26 20:28:04 2020.
