 Gaussian 09, Revision D.01,
 Gaussian 09:  ES64L-G09RevD.01 24-Apr-2013

 --------------------
 #p B2PLYPD3/Def2QZVP
 --------------------

 ----------
 butane_opt
 ----------
 Symbolic Z-matrix:
 Charge =  0 Multiplicity = 1

                         Standard orientation:
 ---------------------------------------------------------------------
 Center     Atomic      Atomic             Coordinates (Angstroms)
 Number     Number       Type             X           Y           Z
 ---------------------------------------------------------------------
      1          6           0        1.898639    0.045841   -0.143158
      2          6           0        0.494707   -0.477447    0.184458
      3          1           0        2.554962   -0.537808   -0.394421
      4          1           0        2.340701    0.917039    0.859299
      5          1           0        1.819031    0.648375   -1.032794
      6          6           0       -0.570877    0.495269    0.178507
      7          1           0        0.458967   -1.121748    0.993964
      8          1           0        0.504925   -1.293762   -0.611607
      9          6           0       -1.917444   -0.096299   -0.094081
     10          1           0       -0.121075    1.204963   -0.810951
     11          1           0       -0.337533    1.223371    1.082121
     12          1           0       -1.601014   -0.722822   -0.818092
     13          1           0       -2.685523    0.579433   -0.763016
     14          1           0       -2.363596   -0.701224    0.741138
 ---------------------------------------------------------------------

 SCF Done:  E(RB2PLYPD3) =  -157.990269024     A.U. after   11 cycles
 E2(B2PLYPD3) =    -0.2506289559D+00 E(B2PLYPD3) =    -0.15824089798007D+03

 The electronic state is 1-A.
 Alpha  occ. eigenvalues --  -10.63312 -10.61188 -10.60926 -10.60418  -0.93212
 Alpha  occ. eigenvalues --   -0.84321  -0.74434  -0.66077  -0.54133  -0.51820
 Alpha  occ. eigenvalues --   -0.48608  -0.46724  -0.43255  -0.41875  -0.38909
 Alpha  occ. eigenvalues --   -0.36279  -0.34294
 Alpha virt. eigenvalues --    0.05286   0.06438   0.07479   0.08003   0.10582
 Alpha virt. eigenvalues --    0.11886   0.12227   0.12682   0.14679   0.15549
 Alpha virt. eigenvalues --    0.15892   0.17259   0.17979   0.20155   0.20686

 Mulliken charges:
               1
     1  C   -0.149231
     2  C    0.027114
     3  H    0.076864
     4  H   -0.009525
     5  H    0.041481
     6  C   -0.040605
     7  H    0.029361
     8  H   -0.012684
     9  C   -0.178230
    10  H   -0.002086
    11  H    0.040498
    12  H    0.075362
    13  H    0.047318
    14  H    0.054363
 Sum of Mulliken charges =   0.00000

 Dipole moment (field-independent basis, Debye):
    X=             -0.0818    Y=             -0.7312    Z=             -0.3423  Tot=              0.8115
 Quadrupole moment (field-independent basis, Debye-Ang):
   XX=            -30.3215   YY=            -29.7298   ZZ=            -28.4838
   XY=             -0.4358   XZ=             -0.9852   YZ=             -0.1435

 Normal termination of Gaussian 09 at Wed Aug 26 16:18:33 2020.
