 Gaussian 09, Revision D.01,
 Gaussian 09:  ES64L-G09RevD.01 24-Apr-2013

 --------------------
 #p B2PLYPD3/Def2QZVP
 --------------------

 ----------
 butane_opt
 ----------
 Symbolic Z-matrix:
 Charge =  0 Multiplicity = 1

                         Standard orientation:
 ---------------------------------------------------------------------
 Center     Atomic      Atomic             Coordinates (Angstroms)
 Number     Number       Type             X           Y           Z
 ---------------------------------------------------------------------
      1          6           0       -1.847401    0.026000    0.017421
      2          6           0       -0.562633   -0.406548   -0.026600
      3          1           0       -2.588186   -0.701979   -0.125424
      4          1           0       -1.890147    0.285667   -0.612517
      5          1           0       -2.021603    0.876815    1.062499
      6          6           0        0.480702    0.580412   -0.182819
      7          1           0       -0.519420   -1.181193   -0.882314
      8          1           0       -0.387177   -1.140918    0.970900
      9          6           0        1.939643   -0.105101    0.066320
     10          1           0        0.156572    1.302692    0.662881
     11          1           0        0.317836    1.314848   -1.033907
     12          1           0        1.496427   -0.770356    0.981800
     13          1           0        2.633368    0.421690    0.587207
     14          1           0        2.740466   -0.975842   -0.857053
 ---------------------------------------------------------------------

 SCF Done:  E(RB2PLYPD3) =  -157.688030661     A.U. after   11 cycles
 E2(B2PLYPD3) =    -0.2536516705D+00 E(B2PLYPD3) =    -0.15794168233142D+03

 The electronic state is 1-A.
 Alpha  occ. eigenvalues --  -10.64799 -10.63328 -10.61353 -10.57069  -0.97480
 Alpha  occ. eigenvalues --   -0.85517  -0.73968  -0.66419  -0.55549  -0.52682
 Alpha  occ. eigenvalues --   -0.51150  -0.44356  -0.42136  -0.39008  -0.38172
 Alpha  occ. eigenvalues --   -0.37122  -0.34950
 Alpha virt. eigenvalues --    0.04530   0.05299   0.07256   0.07490   0.09127
 Alpha virt. eigenvalues --    0.11049   0.12440   0.13764   0.14776   0.14893
 Alpha virt. eigenvalues --    0.15398   0.16395   0.18227   0.19946   0.20560

 Mulliken charges:
               1
     1  C   -0.599112
     2  C    0.049956
     3  H    0.069816
     4  H    0.454765
     5  H    0.023188
     6  C   -0.022092
     7  H    0.013178
     8  H   -0.002750
     9  C   -0.196229
    10  H    0.025823
    11  H    0.031224
    12  H    0.044738
    13  H    0.073441
    14  H    0.034055
 Sum of Mulliken charges =   0.00000

 Dipole moment (field-independent basis, Debye):
    X=             -0.3763    Y=              0.2200    Z=             -0.1804  Tot=              0.4718
 Quadrupole moment (field-independent basis, Debye-Ang):
   XX=            -29.6828   YY=            -29.7170   ZZ=            -28.8028
   XY=              0.7722   XZ=              1.3679   YZ=              0.4521

 Normal termination of Gaussian 09 at Wed Aug 26 14:11:16 2020.
