 Gaussian 09, Revision D.01,
 Gaussian 09:  ES64L-G09RevD.01 24-Apr-2013

 --------------------
 #p B2PLYPD3/Def2QZVP
 --------------------

 ----------
 butane_opt
 ----------
 Symbolic Z-matrix:
 Charge =  0 Multiplicity = 1

                         Standard orientation:
 ---------------------------------------------------------------------
 Center     Atomic      Atomic             Coordinates (Angstroms)
 Number     Number       Type             X           Y           Z
 ---------------------------------------------------------------------
      1          6           0       -2.061813   -0.116270    0.091549
      2          6           0       -0.525854    0.538815   -0.054864
      3          1           0       -2.700290    0.509860   -0.526224
      4          1           0       -2.673718   -1.196957    1.349139
      5          1           0       -1.895257   -0.296778   -0.496031
      6          6           0        0.583560   -0.505046   -0.127803
      7          1           0       -0.339075    1.100808    0.795729
      8          1           0       -0.329975    1.577556   -1.135836
      9          6           0        1.983090    0.058090    0.110572
     10          1           0        0.398933   -1.365200   -1.273730
     11          1           0        0.882715   -0.986502    0.452177
     12          1           0        2.072649    0.320250   -0.493455
     13          1           0        2.711493   -0.516107   -0.080184
     14          1           0        1.998627    0.999535    1.291692
 ---------------------------------------------------------------------

 SCF Done:  E(RB2PLYPD3) =  -156.950856371     A.U. after   13 cycles
 E2(B2PLYPD3) =    -0.2612081504D+00 E(B2PLYPD3) =    -0.15721206452119D+03

 The electronic state is 1-A.
 Alpha  occ. eigenvalues --  -10.66302 -10.61757 -10.61157 -10.59004  -0.97017
 Alpha  occ. eigenvalues --   -0.92457  -0.80757  -0.71490  -0.55082  -0.50570
 Alpha  occ. eigenvalues --   -0.46136  -0.44345  -0.42563  -0.38670  -0.37089
 Alpha  occ. eigenvalues --   -0.35839  -0.33483
 Alpha virt. eigenvalues --   -0.01258   0.03458   0.04273   0.07190   0.08718
 Alpha virt. eigenvalues --    0.09983   0.11823   0.12473   0.13996   0.15235
 Alpha virt. eigenvalues --    0.16117   0.16612   0.17324   0.18877   0.20204

 Mulliken charges:
               1
     1  C   -0.835536
     2  C   -0.043139
     3  H    0.070534
     4  H    0.067800
     5  H    0.690860
     6  C   -0.275772
     7  H    0.068046
     8  H    0.003250
     9  C   -0.651554
    10  H   -0.015526
    11  H    0.307764
    12  H    0.510190
    13  H    0.055096
    14  H    0.047987
 Sum of Mulliken charges =   0.00000

 Dipole moment (field-independent basis, Debye):
    X=              0.6765    Y=             -0.1059    Z=             -0.1451  Tot=              0.6999
 Quadrupole moment (field-independent basis, Debye-Ang):
   XX=            -28.8212   YY=            -29.8948   ZZ=            -28.0830
   XY=              0.4135   XZ=              0.0963   YZ=             -0.5961

 Normal termination of Gaussian 09 at Wed Aug 26 21:54:01 2020.
