 Gaussian 09, Revision D.01,
 Gaussian 09:  ES64L-G09RevD.01 24-Apr-2013

 --------------------
 #p B2PLYPD3/Def2QZVP
 --------------------

 ----------
 butane_opt
 ----------
 Symbolic Z-matrix:
 Charge =  0 Multiplicity = 1

                         Standard orientation:
 ---------------------------------------------------------------------
 Center     Atomic      Atomic             Coordinates (Angstroms)
 Number     Number       Type             X           Y           Z
 ---------------------------------------------------------------------
      1          6           0       -1.980465   -0.069943    0.109710
      2          6           0       -0.578398    0.516373   -0.224286
      3          1           0       -2.743212    0.625596   -0.012261
      4          1           0       -1.971375   -0.727143    1.385319
      5          1           0       -2.033910   -0.460622   -0.535306
      6          6           0        0.533830   -0.589714    0.097010
      7          1           0       -0.518304    0.940907    0.457423
      8          1           0       -0.633742    1.134369   -1.316878
      9          6           0        1.959181    0.043228    0.036999
     10          1           0        0.449481   -1.407550   -0.833232
     11          1           0        0.488660   -0.846899    0.776677
     12          1           0        1.799073    0.171203   -0.550060
     13          1           0        2.604144   -0.498496   -0.752730
     14          1           0        2.954295    1.668968    1.264452
 ---------------------------------------------------------------------

 SCF Done:  E(RB2PLYPD3) =  -156.934810019     A.U. after   14 cycles
 E2(B2PLYPD3) =    -0.2624306905D+00 E(B2PLYPD3) =    -0.15719724070944D+03

 The electronic state is 1-A.
 Alpha  occ. eigenvalues --  -10.62881 -10.61876 -10.60241 -10.59411  -0.98273
 Alpha  occ. eigenvalues --   -0.91648  -0.81748  -0.74067  -0.57146  -0.50168
 Alpha  occ. eigenvalues --   -0.49129  -0.47825  -0.42363  -0.40621  -0.37976
 Alpha  occ. eigenvalues --   -0.36949  -0.30944
 Alpha virt. eigenvalues --   -0.07258   0.04606   0.05510   0.07262   0.09261
 Alpha virt. eigenvalues --    0.10478   0.11957   0.12262   0.14188   0.15785
 Alpha virt. eigenvalues --    0.16109   0.16667   0.18238   0.18495   0.19903

 Mulliken charges:
               1
     1  C   -0.451420
     2  C   -0.315220
     3  H    0.059516
     4  H    0.031181
     5  H    0.336473
     6  C   -0.375391
     7  H    0.313331
     8  H    0.044383
     9  C   -0.857059
    10  H    0.044933
    11  H    0.391569
    12  H    0.735840
    13  H    0.056069
    14  H   -0.014203
 Sum of Mulliken charges =   0.00000

 Dipole moment (field-independent basis, Debye):
    X=             -1.1965    Y=             -0.2006    Z=             -1.3126  Tot=              1.7874
 Quadrupole moment (field-independent basis, Debye-Ang):
   XX=            -32.9430   YY=            -29.9358   ZZ=            -27.0474
   XY=             -0.9619   XZ=             -1.6078   YZ=              0.3659

 Normal termination of Gaussian 09 at Wed Aug 26 23:03:07 2020.
