 Gaussian 09, Revision D.01,
 Gaussian 09:  ES64L-G09RevD.01 24-Apr-2013

 --------------------
 #p B2PLYPD3/Def2QZVP
 --------------------

 ----------
 butane_opt
 ----------
 Symbolic Z-matrix:
 Charge =  0 Multiplicity = 1

                         Standard orientation:
 ---------------------------------------------------------------------
 Center     Atomic      Atomic             Coordinates (Angstroms)
 Number     Number       Type             X           Y           Z
 ---------------------------------------------------------------------
      1          6           0       -1.989619    0.123478   -0.155245
      2          6           0       -0.661593   -0.509676    0.151815
      3          1           0       -2.715727   -0.556365   -0.391811
      4          1           0       -1.682482    0.567490   -1.071856
      5          1           0       -2.202118    0.750793    0.805606
      6          6           0        0.536842    0.547023    0.151435
      7          1           0       -0.519647   -0.768295   -0.418246
      8          1           0       -0.643312   -1.342927    1.108953
      9          6           0        2.057674   -0.202525   -0.043021
     10          1           0        0.625794    1.405336    1.044041
     11          1           0        0.422656    1.056366   -0.660139
     12          1           0        2.399649   -0.564315    0.591853
     13          1           0        2.840530    0.577273   -0.610254
     14          1           0        1.814829   -0.875152   -1.028056
 ---------------------------------------------------------------------

 SCF Done:  E(RB2PLYPD3) =  -157.593779428     A.U. after   11 cycles
 E2(B2PLYPD3) =    -0.2488495497D+00 E(B2PLYPD3) =    -0.15784262897743D+03

 The electronic state is 1-A.
 Alpha  occ. eigenvalues --  -10.62407 -10.60998 -10.59757 -10.58686  -0.94651
 Alpha  occ. eigenvalues --   -0.83617  -0.75622  -0.70906  -0.55506  -0.51864
 Alpha  occ. eigenvalues --   -0.49864  -0.45369  -0.44103  -0.41410  -0.38293
 Alpha  occ. eigenvalues --   -0.37186  -0.36129
 Alpha virt. eigenvalues --    0.05415   0.06834   0.08164   0.08665   0.10871
 Alpha virt. eigenvalues --    0.11921   0.12102   0.13002   0.14241   0.15144
 Alpha virt. eigenvalues --    0.16446   0.17201   0.18699   0.18770   0.21172

 Mulliken charges:
               1
     1  C   -0.106216
     2  C   -0.780435
     3  H    0.056292
     4  H    0.043618
     5  H    0.061512
     6  C   -0.046061
     7  H    0.665762
     8  H    0.040561
     9  C   -0.320382
    10  H    0.016441
    11  H    0.093562
    12  H    0.211580
    13  H    0.032646
    14  H    0.031120
 Sum of Mulliken charges =   0.00000

 Dipole moment (field-independent basis, Debye):
    X=             -0.0902    Y=             -0.1988    Z=             -0.4361  Tot=              0.4877
 Quadrupole moment (field-independent basis, Debye-Ang):
   XX=            -29.5846   YY=            -29.4455   ZZ=            -27.5453
   XY=              0.8885   XZ=              0.4069   YZ=             -0.0911

 Normal termination of Gaussian 09 at Wed Aug 26 14:52:15 2020.
