 Gaussian 09, Revision D.01,
 Gaussian 09:  ES64L-G09RevD.01 24-Apr-2013

 --------------------
 #p B2PLYPD3/Def2QZVP
 --------------------

 ----------
 butane_opt
 ----------
 Symbolic Z-matrix:
 Charge =  0 Multiplicity = 1

                         Standard orientation:
 ---------------------------------------------------------------------
 Center     Atomic      Atomic             Coordinates (Angstroms)
 Number     Number       Type             X           Y           Z
 ---------------------------------------------------------------------
      1          6           0        1.967366   -0.127653   -0.132978
      2          6           0        0.578483    0.544665    0.206583
      3          1           0        2.798281    0.521728   -0.725877
      4          1           0        1.824579   -0.515495   -0.781137
      5          1           0        2.459086   -0.762736    0.716591
      6          6           0       -0.614286   -0.600368    0.140302
      7          1           0        0.378116    1.077503   -0.395242
      8          1           0        0.604837    1.468500    1.288830
      9          6           0       -1.954322    0.124776   -0.147462
     10          1           0       -0.637995   -1.160019    0.908947
     11          1           0       -0.214522   -1.373957   -0.811327
     12          1           0       -2.309896    0.537418    0.525935
     13          1           0       -2.653151   -0.580968    0.096448
     14          1           0       -2.112782    1.139502   -1.221831
 ---------------------------------------------------------------------

 SCF Done:  E(RB2PLYPD3) =  -157.684568904     A.U. after   11 cycles
 E2(B2PLYPD3) =    -0.2510174743D+00 E(B2PLYPD3) =    -0.15793558637872D+03

 The electronic state is 1-A.
 Alpha  occ. eigenvalues --  -10.63353 -10.61735 -10.60876 -10.58722  -0.91665
 Alpha  occ. eigenvalues --   -0.86759  -0.77025  -0.71309  -0.53606  -0.49794
 Alpha  occ. eigenvalues --   -0.48454  -0.46995  -0.42145  -0.41055  -0.38703
 Alpha  occ. eigenvalues --   -0.37115  -0.34744
 Alpha virt. eigenvalues --    0.04108   0.06057   0.06504   0.07950   0.10429
 Alpha virt. eigenvalues --    0.11276   0.11901   0.13727   0.14289   0.15521
 Alpha virt. eigenvalues --    0.16027   0.16401   0.18198   0.18993   0.20053

 Mulliken charges:
               1
     1  C   -0.443733
     2  C   -0.205529
     3  H    0.023614
     4  H    0.328612
     5  H    0.064442
     6  C   -0.021092
     7  H    0.211093
     8  H   -0.011090
     9  C   -0.222166
    10  H    0.073844
    11  H    0.005682
    12  H    0.128943
    13  H    0.036696
    14  H    0.030683
 Sum of Mulliken charges =   0.00000

 Dipole moment (field-independent basis, Debye):
    X=             -0.4840    Y=             -0.4095    Z=              0.0683  Tot=              0.6377
 Quadrupole moment (field-independent basis, Debye-Ang):
   XX=            -29.3250   YY=            -28.8844   ZZ=            -28.7302
   XY=             -0.8080   XZ=             -2.4538   YZ=             -1.4449

 Normal termination of Gaussian 09 at Wed Aug 26 14:38:38 2020.
