 Gaussian 09, Revision D.01,
 Gaussian 09:  ES64L-G09RevD.01 24-Apr-2013

 --------------------
 #p B2PLYPD3/Def2QZVP
 --------------------

 ----------
 butane_opt
 ----------
 Symbolic Z-matrix:
 Charge =  0 Multiplicity = 1

                         Standard orientation:
 ---------------------------------------------------------------------
 Center     Atomic      Atomic             Coordinates (Angstroms)
 Number     Number       Type             X           Y           Z
 ---------------------------------------------------------------------
      1          6           0        1.937848    0.083899   -0.146382
      2          6           0        0.592980   -0.453050    0.114615
      3          1           0        2.741137   -0.691892    0.094540
      4          1           0        2.148849    0.726387    0.680210
      5          1           0        2.128792    0.651829   -1.066821
      6          6           0       -0.534638    0.537414    0.123199
      7          1           0        0.581118   -1.203983    1.131220
      8          1           0        0.454472   -1.003352   -0.684874
      9          6           0       -1.996077   -0.159475   -0.117708
     10          1           0       -0.385064    1.071463   -0.631325
     11          1           0       -0.571046    1.471696    1.107765
     12          1           0       -1.889705   -0.834838   -0.973934
     13          1           0       -2.878514    0.602361   -0.365542
     14          1           0       -2.330719   -0.842401    0.866422
 ---------------------------------------------------------------------

 SCF Done:  E(RB2PLYPD3) =  -158.018786850     A.U. after   11 cycles
 E2(B2PLYPD3) =    -0.2492205251D+00 E(B2PLYPD3) =    -0.15826800737478D+03

 The electronic state is 1-A.
 Alpha  occ. eigenvalues --  -10.63514 -10.62208 -10.60932 -10.59994  -0.92265
 Alpha  occ. eigenvalues --   -0.82322  -0.72470  -0.66984  -0.54014  -0.49275
 Alpha  occ. eigenvalues --   -0.48207  -0.46885  -0.41666  -0.40425  -0.38693
 Alpha  occ. eigenvalues --   -0.37729  -0.36406
 Alpha virt. eigenvalues --    0.05310   0.06464   0.07736   0.08117   0.10713
 Alpha virt. eigenvalues --    0.11637   0.12545   0.13343   0.14363   0.14735
 Alpha virt. eigenvalues --    0.15500   0.16178   0.19116   0.19928   0.21288

 Mulliken charges:
               1
     1  C   -0.145747
     2  C   -0.054925
     3  H    0.041372
     4  H    0.042722
     5  H    0.045526
     6  C   -0.084320
     7  H    0.009961
     8  H    0.075715
     9  C   -0.163055
    10  H    0.094699
    11  H   -0.003776
    12  H    0.057307
    13  H    0.046452
    14  H    0.038071
 Sum of Mulliken charges =   0.00000

 Dipole moment (field-independent basis, Debye):
    X=              0.2110    Y=             -0.0218    Z=             -0.5590  Tot=              0.5979
 Quadrupole moment (field-independent basis, Debye-Ang):
   XX=            -29.8452   YY=            -29.5272   ZZ=            -28.5790
   XY=             -0.2676   XZ=              0.3975   YZ=             -0.5009

 Normal termination of Gaussian 09 at Wed Aug 26 09:38:19 2020.
