 Gaussian 09, Revision D.01,
 Gaussian 09:  ES64L-G09RevD.01 24-Apr-2013

 --------------------
 #p B2PLYPD3/Def2QZVP
 --------------------

 ----------
 butane_opt
 ----------
 Symbolic Z-matrix:
 Charge =  0 Multiplicity = 1

                         Standard orientation:
 ---------------------------------------------------------------------
 Center     Atomic      Atomic             Coordinates (Angstroms)
 Number     Number       Type             X           Y           Z
 ---------------------------------------------------------------------
      1          6           0       -1.974114   -0.154971    0.062352
      2          6           0       -0.548456    0.545680   -0.086797
      3          1           0       -2.771089    0.562279   -0.196677
      4          1           0       -2.118217   -0.896779    1.047488
      5          1           0       -2.209833   -0.742567   -0.759508
      6          6           0        0.596602   -0.459192    0.038604
      7          1           0       -0.387392    1.290024    0.799902
      8          1           0       -0.528230    1.301549   -1.058920
      9          6           0        1.960213    0.077826    0.011579
     10          1           0        0.487167   -1.252807   -0.799253
     11          1           0        0.330328   -0.949213    0.871535
     12          1           0        1.807313    0.465399   -0.668935
     13          1           0        2.832524   -0.862367   -0.415401
     14          1           0        2.351963    1.028419    1.025336
 ---------------------------------------------------------------------

 SCF Done:  E(RB2PLYPD3) =  -157.886822445     A.U. after   11 cycles
 E2(B2PLYPD3) =    -0.2513739080D+00 E(B2PLYPD3) =    -0.15813819635299D+03

 The electronic state is 1-A.
 Alpha  occ. eigenvalues --  -10.63879 -10.61926 -10.61890 -10.60553  -0.93118
 Alpha  occ. eigenvalues --   -0.84045  -0.74062  -0.66365  -0.52803  -0.49387
 Alpha  occ. eigenvalues --   -0.47798  -0.45213  -0.43071  -0.39747  -0.38830
 Alpha  occ. eigenvalues --   -0.38061  -0.35680
 Alpha virt. eigenvalues --    0.04531   0.05823   0.07203   0.07724   0.10140
 Alpha virt. eigenvalues --    0.11137   0.12478   0.12842   0.14167   0.15198
 Alpha virt. eigenvalues --    0.15622   0.15822   0.18309   0.19829   0.20408

 Mulliken charges:
               1
     1  C   -0.132383
     2  C   -0.045856
     3  H    0.042787
     4  H    0.039180
     5  H    0.040662
     6  C   -0.015264
     7  H    0.031562
     8  H    0.005234
     9  C   -0.410538
    10  H    0.017616
    11  H    0.053709
    12  H    0.307020
    13  H    0.036990
    14  H    0.029281
 Sum of Mulliken charges =   0.00000

 Dipole moment (field-independent basis, Debye):
    X=             -0.4956    Y=             -0.1187    Z=             -0.4361  Tot=              0.6707
 Quadrupole moment (field-independent basis, Debye-Ang):
   XX=            -30.9366   YY=            -29.1765   ZZ=            -28.7163
   XY=              0.1612   XZ=              0.1219   YZ=              0.0947

 Normal termination of Gaussian 09 at Wed Aug 26 11:00:23 2020.
