 Gaussian 09, Revision D.01,
 Gaussian 09:  ES64L-G09RevD.01 24-Apr-2013

 --------------------
 #p B2PLYPD3/Def2QZVP
 --------------------

 ----------
 butane_opt
 ----------
 Symbolic Z-matrix:
 Charge =  0 Multiplicity = 1

                         Standard orientation:
 ---------------------------------------------------------------------
 Center     Atomic      Atomic             Coordinates (Angstroms)
 Number     Number       Type             X           Y           Z
 ---------------------------------------------------------------------
      1          6           0       -1.988818   -0.182773   -0.134934
      2          6           0       -0.573354    0.590154    0.110876
      3          1           0       -2.671812    0.409525   -0.504966
      4          1           0       -2.139743   -0.672935    0.682937
      5          1           0       -1.887667   -0.840633   -1.045315
      6          6           0        0.585048   -0.519109    0.302674
      7          1           0       -0.729347    1.601690    1.017939
      8          1           0       -0.484869    0.871654   -0.440010
      9          6           0        1.960436    0.081098   -0.206900
     10          1           0        0.196028   -0.948224   -0.365027
     11          1           0        0.749376   -1.176860    1.279648
     12          1           0        1.794872    0.703459   -1.209558
     13          1           0        2.894535   -0.738145   -0.528033
     14          1           0        2.378760    0.974250    0.682090
 ---------------------------------------------------------------------

 SCF Done:  E(RB2PLYPD3) =  -157.564240874     A.U. after   11 cycles
 E2(B2PLYPD3) =    -0.2504165644D+00 E(B2PLYPD3) =    -0.15781465743820D+03

 The electronic state is 1-A.
 Alpha  occ. eigenvalues --  -10.65695 -10.61140 -10.61014 -10.58592  -0.93782
 Alpha  occ. eigenvalues --   -0.82910  -0.76385  -0.69615  -0.54510  -0.52433
 Alpha  occ. eigenvalues --   -0.46146  -0.45810  -0.44841  -0.39761  -0.39303
 Alpha  occ. eigenvalues --   -0.37343  -0.35636
 Alpha virt. eigenvalues --    0.04939   0.06648   0.07877   0.08281   0.10848
 Alpha virt. eigenvalues --    0.11334   0.12195   0.12893   0.13748   0.14828
 Alpha virt. eigenvalues --    0.16298   0.17243   0.18522   0.19212   0.21056

 Mulliken charges:
               1
     1  C   -0.106534
     2  C   -0.762761
     3  H    0.057210
     4  H    0.090530
     5  H    0.014731
     6  C   -0.143817
     7  H    0.022911
     8  H    0.636188
     9  C   -0.181403
    10  H    0.199793
    11  H    0.048916
    12  H    0.037084
    13  H    0.044806
    14  H    0.042347
 Sum of Mulliken charges =   0.00000

 Dipole moment (field-independent basis, Debye):
    X=             -0.4267    Y=             -0.3109    Z=             -0.5321  Tot=              0.7496
 Quadrupole moment (field-independent basis, Debye-Ang):
   XX=            -29.9648   YY=            -29.2518   ZZ=            -28.0476
   XY=             -0.5813   XZ=              0.4750   YZ=             -0.6309

 Normal termination of Gaussian 09 at Wed Aug 26 23:51:02 2020.
