 Gaussian 09, Revision D.01,
 Gaussian 09:  ES64L-G09RevD.01 24-Apr-2013

 --------------------
 #p B2PLYPD3/Def2QZVP
 --------------------

 ----------
 butane_opt
 ----------
 Symbolic Z-matrix:
 Charge =  0 Multiplicity = 1

                         Standard orientation:
 ---------------------------------------------------------------------
 Center     Atomic      Atomic             Coordinates (Angstroms)
 Number     Number       Type             X           Y           Z
 ---------------------------------------------------------------------
      1          6           0        1.902707    0.002691   -0.117467
      2          6           0        0.548301   -0.449761    0.044426
      3          1           0        2.651679   -0.718993    0.149017
      4          1           0        1.847581    0.408311    0.703090
      5          1           0        2.030300    1.108407   -1.216027
      6          6           0       -0.520121    0.565190    0.184941
      7          1           0        0.650492   -1.101217    0.845151
      8          1           0        0.335398   -1.104636   -0.742166
      9          6           0       -1.910718   -0.107214   -0.130998
     10          1           0       -0.287827    1.047756   -0.631713
     11          1           0       -0.281324    1.581115    1.316759
     12          1           0       -2.319205   -0.629733   -0.839522
     13          1           0       -2.557770    0.489339   -0.398954
     14          1           0       -2.190343   -1.145788    0.928948
 ---------------------------------------------------------------------

 SCF Done:  E(RB2PLYPD3) =  -157.769151969     A.U. after   11 cycles
 E2(B2PLYPD3) =    -0.2548362434D+00 E(B2PLYPD3) =    -0.15802398821235D+03

 The electronic state is 1-A.
 Alpha  occ. eigenvalues --  -10.64718 -10.61678 -10.61060 -10.59376  -0.95370
 Alpha  occ. eigenvalues --   -0.86968  -0.77642  -0.67783  -0.54869  -0.53548
 Alpha  occ. eigenvalues --   -0.48957  -0.45714  -0.41782  -0.40875  -0.37236
 Alpha  occ. eigenvalues --   -0.35800  -0.33602
 Alpha virt. eigenvalues --    0.03012   0.04400   0.05436   0.07333   0.09757
 Alpha virt. eigenvalues --    0.10719   0.12022   0.12157   0.13223   0.15284
 Alpha virt. eigenvalues --    0.15373   0.16729   0.18208   0.19534   0.20049

 Mulliken charges:
               1
     1  C   -0.215232
     2  C    0.006681
     3  H    0.062078
     4  H    0.115112
     5  H   -0.007965
     6  C   -0.087399
     7  H    0.021467
     8  H    0.042072
     9  C   -0.182726
    10  H    0.104245
    11  H    0.013142
    12  H    0.063696
    13  H    0.077957
    14  H   -0.013127
 Sum of Mulliken charges =   0.00000

 Dipole moment (field-independent basis, Debye):
    X=             -0.1249    Y=             -0.2937    Z=             -0.3475  Tot=              0.4718
 Quadrupole moment (field-independent basis, Debye-Ang):
   XX=            -30.4650   YY=            -29.5534   ZZ=            -29.2482
   XY=             -1.3970   XZ=              4.0658   YZ=             -0.5220

 Normal termination of Gaussian 09 at Wed Aug 26 16:56:51 2020.
