 Gaussian 09, Revision D.01,
 Gaussian 09:  ES64L-G09RevD.01 24-Apr-2013

 --------------------
 #p B2PLYPD3/Def2QZVP
 --------------------

 ----------
 butane_opt
 ----------
 Symbolic Z-matrix:
 Charge =  0 Multiplicity = 1

                         Standard orientation:
 ---------------------------------------------------------------------
 Center     Atomic      Atomic             Coordinates (Angstroms)
 Number     Number       Type             X           Y           Z
 ---------------------------------------------------------------------
      1          6           0       -1.829376    0.063903    0.079563
      2          6           0       -0.532538   -0.452971   -0.158963
      3          1           0       -2.637489   -0.750946    0.141021
      4          1           0       -2.257829    0.557027   -0.667177
      5          1           0       -2.078988    0.692075    1.046951
      6          6           0        0.531459    0.555955   -0.125186
      7          1           0       -0.506535   -1.011226   -1.084582
      8          1           0       -0.373103   -1.055248    0.709126
      9          6           0        1.921436   -0.150104    0.054595
     10          1           0        0.044767    1.074469    0.903981
     11          1           0        0.371290    1.333721   -0.938768
     12          1           0        1.618665   -0.835867    0.983146
     13          1           0        2.750143    0.421102    0.432336
     14          1           0        2.523188   -0.525808   -0.626095
 ---------------------------------------------------------------------

 SCF Done:  E(RB2PLYPD3) =  -158.031818639     A.U. after   11 cycles
 E2(B2PLYPD3) =    -0.2495159569D+00 E(B2PLYPD3) =    -0.15828133459606D+03

 The electronic state is 1-A.
 Alpha  occ. eigenvalues --  -10.62748 -10.60224 -10.59231 -10.58989  -0.93584
 Alpha  occ. eigenvalues --   -0.83753  -0.74633  -0.65966  -0.56279  -0.52900
 Alpha  occ. eigenvalues --   -0.47904  -0.46895  -0.41397  -0.40417  -0.39266
 Alpha  occ. eigenvalues --   -0.37439  -0.35476
 Alpha virt. eigenvalues --    0.05621   0.06725   0.08302   0.08423   0.10065
 Alpha virt. eigenvalues --    0.12207   0.12644   0.13687   0.14791   0.15760
 Alpha virt. eigenvalues --    0.16085   0.17165   0.18710   0.19986   0.21287

 Mulliken charges:
               1
     1  C   -0.116257
     2  C   -0.017552
     3  H    0.018785
     4  H    0.036509
     5  H    0.020288
     6  C   -0.063576
     7  H    0.031146
     8  H    0.055922
     9  C   -0.130419
    10  H    0.017332
    11  H    0.037750
    12  H    0.035612
    13  H    0.023873
    14  H    0.050587
 Sum of Mulliken charges =   0.00000

 Dipole moment (field-independent basis, Debye):
    X=              0.0318    Y=             -0.1020    Z=             -0.2791  Tot=              0.2989
 Quadrupole moment (field-independent basis, Debye-Ang):
   XX=            -27.8719   YY=            -30.2848   ZZ=            -28.3372
   XY=             -0.3024   XZ=             -0.5189   YZ=             -0.3343

 Normal termination of Gaussian 09 at Wed Aug 26 21:57:48 2020.
