 Gaussian 09, Revision D.01,
 Gaussian 09:  ES64L-G09RevD.01 24-Apr-2013

 --------------------
 #p B2PLYPD3/Def2QZVP
 --------------------

 ----------
 butane_opt
 ----------
 Symbolic Z-matrix:
 Charge =  0 Multiplicity = 1

                         Standard orientation:
 ---------------------------------------------------------------------
 Center     Atomic      Atomic             Coordinates (Angstroms)
 Number     Number       Type             X           Y           Z
 ---------------------------------------------------------------------
      1          6           0        1.963992   -0.125892    0.108099
      2          6           0        0.659656    0.434656   -0.221698
      3          1           0        2.711488    0.685330    0.010272
      4          1           0        2.234367   -0.646453   -0.632089
      5          1           0        2.072745   -0.576690    0.960836
      6          6           0       -0.532625   -0.504894    0.062471
      7          1           0        0.655278    1.074546   -1.184940
      8          1           0        0.470769    1.304175    0.671156
      9          6           0       -2.040852    0.145139    0.070369
     10          1           0       -0.550501   -1.222720    1.059159
     11          1           0       -0.653381   -1.295374   -0.662425
     12          1           0       -2.534138    1.407518    1.005635
     13          1           0       -2.802456   -0.701126   -0.733642
     14          1           0       -1.905195    0.276737   -0.609404
 ---------------------------------------------------------------------

 SCF Done:  E(RB2PLYPD3) =  -157.646956286     A.U. after   12 cycles
 E2(B2PLYPD3) =    -0.2559789271D+00 E(B2PLYPD3) =    -0.15790293521298D+03

 The electronic state is 1-A.
 Alpha  occ. eigenvalues --  -10.64043 -10.63769 -10.63085 -10.57221  -0.92695
 Alpha  occ. eigenvalues --   -0.87953  -0.75446  -0.66479  -0.54987  -0.50015
 Alpha  occ. eigenvalues --   -0.47882  -0.47421  -0.42791  -0.38831  -0.37410
 Alpha  occ. eigenvalues --   -0.35661  -0.34121
 Alpha virt. eigenvalues --    0.00716   0.05404   0.06358   0.07455   0.09310
 Alpha virt. eigenvalues --    0.10510   0.11870   0.12561   0.14190   0.15539
 Alpha virt. eigenvalues --    0.15663   0.16569   0.17714   0.19151   0.20363

 Mulliken charges:
               1
     1  C   -0.121685
     2  C   -0.052620
     3  H    0.027469
     4  H    0.052414
     5  H    0.065334
     6  C   -0.015782
     7  H    0.043961
     8  H    0.006486
     9  C   -0.731202
    10  H    0.023054
    11  H    0.033391
    12  H    0.059472
    13  H    0.011602
    14  H    0.598105
 Sum of Mulliken charges =   0.00000

 Dipole moment (field-independent basis, Debye):
    X=              0.9762    Y=              0.0934    Z=             -0.7960  Tot=              1.2630
 Quadrupole moment (field-independent basis, Debye-Ang):
   XX=            -31.7087   YY=            -29.1311   ZZ=            -28.1372
   XY=             -0.7249   XZ=              0.8647   YZ=              0.6091

 Normal termination of Gaussian 09 at Wed Aug 26 11:37:24 2020.
