 Gaussian 09, Revision D.01,
 Gaussian 09:  ES64L-G09RevD.01 24-Apr-2013

 --------------------
 #p B2PLYPD3/Def2QZVP
 --------------------

 ----------
 butane_opt
 ----------
 Symbolic Z-matrix:
 Charge =  0 Multiplicity = 1

                         Standard orientation:
 ---------------------------------------------------------------------
 Center     Atomic      Atomic             Coordinates (Angstroms)
 Number     Number       Type             X           Y           Z
 ---------------------------------------------------------------------
      1          6           0       -1.914707    0.170887    0.043307
      2          6           0       -0.508926   -0.593969    0.073254
      3          1           0       -2.619986   -0.615918   -0.811177
      4          1           0       -1.733654    0.139735   -0.537046
      5          1           0       -2.409291    1.327350    1.301413
      6          6           0        0.508265    0.453373   -0.207696
      7          1           0       -0.274693   -1.366552   -0.646435
      8          1           0       -0.590762   -0.864607    0.805278
      9          6           0        1.889993   -0.111542    0.105351
     10          1           0        0.529783    1.089713    0.529654
     11          1           0        0.399089    1.193459   -1.261053
     12          1           0        1.833393   -0.752916    1.108245
     13          1           0        2.829587    0.875062   -0.023736
     14          1           0        2.188784   -0.537816   -0.550437
 ---------------------------------------------------------------------

 SCF Done:  E(RB2PLYPD3) =  -157.154296817     A.U. after   13 cycles
 E2(B2PLYPD3) =    -0.2600458319D+00 E(B2PLYPD3) =    -0.15741434264920D+03

 The electronic state is 1-A.
 Alpha  occ. eigenvalues --  -10.63248 -10.61139 -10.60991 -10.58762  -0.97575
 Alpha  occ. eigenvalues --   -0.88597  -0.78248  -0.70840  -0.58066  -0.51486
 Alpha  occ. eigenvalues --   -0.48201  -0.43575  -0.41746  -0.39967  -0.38545
 Alpha  occ. eigenvalues --   -0.34769  -0.32268
 Alpha virt. eigenvalues --   -0.02410   0.04821   0.05132   0.07590   0.10063
 Alpha virt. eigenvalues --    0.10301   0.11820   0.12286   0.13899   0.15021
 Alpha virt. eigenvalues --    0.15874   0.16940   0.18220   0.18745   0.20515

 Mulliken charges:
               1
     1  C   -0.969401
     2  C   -0.296197
     3  H    0.004490
     4  H    0.808274
     5  H    0.101211
     6  C   -0.048707
     7  H    0.064353
     8  H    0.272563
     9  C   -0.269494
    10  H    0.080819
    11  H    0.022174
    12  H    0.065202
    13  H    0.001757
    14  H    0.162958
 Sum of Mulliken charges =   0.00000

 Dipole moment (field-independent basis, Debye):
    X=              0.5737    Y=              0.0072    Z=             -0.0044  Tot=              0.5737
 Quadrupole moment (field-independent basis, Debye-Ang):
   XX=            -33.6513   YY=            -28.8154   ZZ=            -26.9517
   XY=             -1.8864   XZ=             -1.0804   YZ=              1.3356

 Normal termination of Gaussian 09 at Wed Aug 26 15:39:02 2020.
