 Gaussian 09, Revision D.01,
 Gaussian 09:  ES64L-G09RevD.01 24-Apr-2013

 --------------------
 #p B2PLYPD3/Def2QZVP
 --------------------

 ----------
 butane_opt
 ----------
 Symbolic Z-matrix:
 Charge =  0 Multiplicity = 1

                         Standard orientation:
 ---------------------------------------------------------------------
 Center     Atomic      Atomic             Coordinates (Angstroms)
 Number     Number       Type             X           Y           Z
 ---------------------------------------------------------------------
      1          6           0        1.916210   -0.102801    0.058627
      2          6           0        0.645652    0.445695   -0.087023
      3          1           0        2.762969    0.680307   -0.180129
      4          1           0        2.015177   -0.536442   -0.625165
      5          1           0        2.166112   -0.720375    1.066634
      6          6           0       -0.550397   -0.541522   -0.022716
      7          1           0        0.603248    1.120639   -1.080225
      8          1           0        0.441676    1.102290    0.706322
      9          6           0       -2.007394    0.153059    0.023494
     10          1           0       -0.303815   -1.161545    0.967154
     11          1           0       -0.549126   -1.229938   -0.912738
     12          1           0       -2.303154    1.184472    1.073850
     13          1           0       -2.826483   -0.593415   -0.247992
     14          1           0       -2.031028    0.427423   -0.602000
 ---------------------------------------------------------------------

 SCF Done:  E(RB2PLYPD3) =  -157.674299420     A.U. after   11 cycles
 E2(B2PLYPD3) =    -0.2498273825D+00 E(B2PLYPD3) =    -0.15792412680212D+03

 The electronic state is 1-A.
 Alpha  occ. eigenvalues --  -10.63260 -10.60828 -10.60456 -10.57945  -0.93563
 Alpha  occ. eigenvalues --   -0.88209  -0.76281  -0.66747  -0.54473  -0.49746
 Alpha  occ. eigenvalues --   -0.48919  -0.48049  -0.42525  -0.40742  -0.39086
 Alpha  occ. eigenvalues --   -0.37256  -0.35924
 Alpha virt. eigenvalues --    0.04665   0.05954   0.07543   0.07759   0.10363
 Alpha virt. eigenvalues --    0.11200   0.12316   0.12744   0.14882   0.15513
 Alpha virt. eigenvalues --    0.15784   0.16200   0.18782   0.19213   0.21045

 Mulliken charges:
               1
     1  C   -0.299548
     2  C   -0.007701
     3  H    0.033546
     4  H    0.195349
     5  H    0.041073
     6  C   -0.006447
     7  H   -0.001398
     8  H    0.050712
     9  C   -0.656639
    10  H    0.024792
    11  H    0.027094
    12  H    0.034349
    13  H    0.067458
    14  H    0.497360
 Sum of Mulliken charges =   0.00000

 Dipole moment (field-independent basis, Debye):
    X=              0.1687    Y=             -0.0965    Z=             -0.6625  Tot=              0.6905
 Quadrupole moment (field-independent basis, Debye-Ang):
   XX=            -29.7690   YY=            -29.4395   ZZ=            -27.8990
   XY=             -0.0097   XZ=              0.8647   YZ=              0.4177

 Normal termination of Gaussian 09 at Wed Aug 26 12:58:49 2020.
