 Gaussian 09, Revision D.01,
 Gaussian 09:  ES64L-G09RevD.01 24-Apr-2013

 --------------------
 #p B2PLYPD3/Def2QZVP
 --------------------

 ----------
 butane_opt
 ----------
 Symbolic Z-matrix:
 Charge =  0 Multiplicity = 1

                         Standard orientation:
 ---------------------------------------------------------------------
 Center     Atomic      Atomic             Coordinates (Angstroms)
 Number     Number       Type             X           Y           Z
 ---------------------------------------------------------------------
      1          6           0        2.008369   -0.170174   -0.155401
      2          6           0        0.639487    0.569146    0.038692
      3          1           0        2.756205    0.328675   -0.383571
      4          1           0        1.991453   -0.725216   -0.866714
      5          1           0        2.314086   -0.799139    0.803297
      6          6           0       -0.584811   -0.473208    0.278600
      7          1           0        0.140027    0.887775   -0.748581
      8          1           0        0.567821    1.650850    0.932359
      9          6           0       -2.074069    0.064410   -0.166050
     10          1           0       -0.519403   -0.939693    1.369315
     11          1           0       -0.376257   -0.890959   -0.326367
     12          1           0       -2.137903    1.027801    0.669309
     13          1           0       -2.827955   -0.833338   -0.538861
     14          1           0       -1.841922    0.352198   -0.885235
 ---------------------------------------------------------------------

 SCF Done:  E(RB2PLYPD3) =  -157.710004934     A.U. after   11 cycles
 E2(B2PLYPD3) =    -0.2505337120D+00 E(B2PLYPD3) =    -0.15796053864559D+03

 The electronic state is 1-A.
 Alpha  occ. eigenvalues --  -10.63428 -10.60954 -10.59095 -10.58353  -0.92934
 Alpha  occ. eigenvalues --   -0.85845  -0.77543  -0.68811  -0.54811  -0.51213
 Alpha  occ. eigenvalues --   -0.50040  -0.46813  -0.43400  -0.42940  -0.37665
 Alpha  occ. eigenvalues --   -0.37447  -0.34271
 Alpha virt. eigenvalues --    0.04784   0.06443   0.07866   0.08944   0.11012
 Alpha virt. eigenvalues --    0.11788   0.11871   0.13105   0.13772   0.15718
 Alpha virt. eigenvalues --    0.16013   0.17067   0.18306   0.18759   0.19989

 Mulliken charges:
               1
     1  C   -0.146561
     2  C   -0.100560
     3  H    0.053012
     4  H    0.065239
     5  H    0.038512
     6  C   -0.415519
     7  H    0.084259
     8  H   -0.008984
     9  C   -0.374869
    10  H    0.046693
    11  H    0.387789
    12  H    0.060382
    13  H    0.052328
    14  H    0.258279
 Sum of Mulliken charges =   0.00000

 Dipole moment (field-independent basis, Debye):
    X=              0.4596    Y=             -0.4287    Z=             -0.9573  Tot=              1.1452
 Quadrupole moment (field-independent basis, Debye-Ang):
   XX=            -29.1987   YY=            -29.6926   ZZ=            -27.8110
   XY=             -0.0602   XZ=              0.3315   YZ=              0.7166

 Normal termination of Gaussian 09 at Wed Aug 26 22:06:17 2020.
