 Gaussian 09, Revision D.01,
 Gaussian 09:  ES64L-G09RevD.01 24-Apr-2013

 --------------------
 #p B2PLYPD3/Def2QZVP
 --------------------

 ----------
 butane_opt
 ----------
 Symbolic Z-matrix:
 Charge =  0 Multiplicity = 1

                         Standard orientation:
 ---------------------------------------------------------------------
 Center     Atomic      Atomic             Coordinates (Angstroms)
 Number     Number       Type             X           Y           Z
 ---------------------------------------------------------------------
      1          6           0        1.918383   -0.063690   -0.206175
      2          6           0        0.647798    0.380184    0.316684
      3          1           0        2.822684    0.708370   -0.669267
      4          1           0        1.610375   -0.297534   -1.053719
      5          1           0        2.485827   -0.818900    0.535155
      6          6           0       -0.585952   -0.581642    0.131830
      7          1           0        0.519429    0.951069   -0.356926
      8          1           0        0.721487    1.245215    1.556900
      9          6           0       -2.023781    0.184638   -0.084086
     10          1           0       -0.433447   -1.203815    0.869049
     11          1           0       -0.305160   -1.346841   -0.943576
     12          1           0       -2.231639    0.353635    0.527760
     13          1           0       -2.775761   -0.563955   -0.198129
     14          1           0       -2.152482    1.455823   -1.216771
 ---------------------------------------------------------------------

 SCF Done:  E(RB2PLYPD3) =  -157.513344367     A.U. after   11 cycles
 E2(B2PLYPD3) =    -0.2551357416D+00 E(B2PLYPD3) =    -0.15776848010886D+03

 The electronic state is 1-A.
 Alpha  occ. eigenvalues --  -10.64653 -10.62772 -10.61843 -10.61221  -0.94104
 Alpha  occ. eigenvalues --   -0.88985  -0.76908  -0.67425  -0.55065  -0.51196
 Alpha  occ. eigenvalues --   -0.48856  -0.46922  -0.42011  -0.39790  -0.37772
 Alpha  occ. eigenvalues --   -0.36031  -0.34127
 Alpha virt. eigenvalues --    0.01250   0.04923   0.05643   0.07274   0.09908
 Alpha virt. eigenvalues --    0.10523   0.11496   0.12491   0.13650   0.14923
 Alpha virt. eigenvalues --    0.16145   0.16318   0.17587   0.19216   0.20552

 Mulliken charges:
               1
     1  C   -0.180764
     2  C   -0.177878
     3  H    0.024875
     4  H    0.102388
     5  H    0.040206
     6  C   -0.033489
     7  H    0.184861
     8  H   -0.021599
     9  C   -0.603360
    10  H    0.092464
    11  H   -0.004296
    12  H    0.473205
    13  H    0.080728
    14  H    0.022661
 Sum of Mulliken charges =   0.00000

 Dipole moment (field-independent basis, Debye):
    X=             -0.4418    Y=             -0.4601    Z=             -0.1106  Tot=              0.6474
 Quadrupole moment (field-independent basis, Debye-Ang):
   XX=            -29.2196   YY=            -30.0975   ZZ=            -29.0828
   XY=              0.5522   XZ=             -1.6504   YZ=             -1.4503

 Normal termination of Gaussian 09 at Wed Aug 26 12:44:07 2020.
