 Gaussian 09, Revision D.01,
 Gaussian 09:  ES64L-G09RevD.01 24-Apr-2013

 --------------------
 #p B2PLYPD3/Def2QZVP
 --------------------

 ----------
 butane_opt
 ----------
 Symbolic Z-matrix:
 Charge =  0 Multiplicity = 1

                         Standard orientation:
 ---------------------------------------------------------------------
 Center     Atomic      Atomic             Coordinates (Angstroms)
 Number     Number       Type             X           Y           Z
 ---------------------------------------------------------------------
      1          6           0       -1.921461   -0.145435    0.034758
      2          6           0       -0.532121    0.555291   -0.059755
      3          1           0       -2.625681    0.613820    0.196643
      4          1           0       -2.050568   -0.732792    0.873664
      5          1           0       -2.333548   -0.752823   -0.820517
      6          6           0        0.548468   -0.444066    0.027697
      7          1           0       -0.358636    1.050923    0.724422
      8          1           0       -0.247048    1.300986   -1.022790
      9          6           0        1.896035    0.080033    0.008126
     10          1           0        0.351471   -1.237046   -0.942967
     11          1           0        0.587428   -1.111106    0.975412
     12          1           0        1.739418    0.475417   -0.748665
     13          1           0        2.704170   -0.746310   -0.272621
     14          1           0        2.287475    0.863996    0.972462
 ---------------------------------------------------------------------

 SCF Done:  E(RB2PLYPD3) =  -157.964646331     A.U. after   11 cycles
 E2(B2PLYPD3) =    -0.2492225410D+00 E(B2PLYPD3) =    -0.15821386887220D+03

 The electronic state is 1-A.
 Alpha  occ. eigenvalues --  -10.61913 -10.60997 -10.59649 -10.59541  -0.94029
 Alpha  occ. eigenvalues --   -0.85067  -0.74560  -0.65082  -0.55355  -0.50066
 Alpha  occ. eigenvalues --   -0.48755  -0.47147  -0.43337  -0.41553  -0.39340
 Alpha  occ. eigenvalues --   -0.36875  -0.34992
 Alpha virt. eigenvalues --    0.05650   0.06599   0.07589   0.07755   0.10572
 Alpha virt. eigenvalues --    0.11430   0.12930   0.13948   0.14795   0.15000
 Alpha virt. eigenvalues --    0.16008   0.16258   0.19225   0.20344   0.21518

 Mulliken charges:
               1
     1  C   -0.128412
     2  C   -0.085287
     3  H    0.039226
     4  H    0.054515
     5  H    0.037508
     6  C   -0.028147
     7  H    0.093221
     8  H    0.016191
     9  C   -0.244420
    10  H    0.004704
    11  H    0.017046
    12  H    0.147782
    13  H    0.046334
    14  H    0.029740
 Sum of Mulliken charges =   0.00000

 Dipole moment (field-independent basis, Debye):
    X=             -0.2515    Y=              0.1610    Z=              0.1528  Tot=              0.3355
 Quadrupole moment (field-independent basis, Debye-Ang):
   XX=            -29.5618   YY=            -29.4731   ZZ=            -28.3098
   XY=              0.0812   XZ=             -0.2605   YZ=              0.4045

 Normal termination of Gaussian 09 at Wed Aug 26 19:18:47 2020.
