 Gaussian 09, Revision D.01,
 Gaussian 09:  ES64L-G09RevD.01 24-Apr-2013

 --------------------
 #p B2PLYPD3/Def2QZVP
 --------------------

 ----------
 butane_opt
 ----------
 Symbolic Z-matrix:
 Charge =  0 Multiplicity = 1

                         Standard orientation:
 ---------------------------------------------------------------------
 Center     Atomic      Atomic             Coordinates (Angstroms)
 Number     Number       Type             X           Y           Z
 ---------------------------------------------------------------------
      1          6           0       -1.863149    0.064077   -0.169406
      2          6           0       -0.526270   -0.507975    0.084467
      3          1           0       -2.706976   -0.740409    0.059370
      4          1           0       -2.157119    0.855662   -1.053498
      5          1           0       -2.096451    0.612579    0.557116
      6          6           0        0.507417    0.576430    0.177200
      7          1           0       -0.301107   -1.010435   -0.513834
      8          1           0       -0.431524   -1.362588    1.113701
      9          6           0        1.900212   -0.133177   -0.126188
     10          1           0        0.098345    1.567527    1.343643
     11          1           0        0.446158    0.998878   -0.507079
     12          1           0        2.583318   -0.840755    0.894302
     13          1           0        2.767070    0.752057   -0.656051
     14          1           0        1.689028   -0.828646   -1.034110
 ---------------------------------------------------------------------

 SCF Done:  E(RB2PLYPD3) =  -157.724901394     A.U. after   11 cycles
 E2(B2PLYPD3) =    -0.2545858107D+00 E(B2PLYPD3) =    -0.15797948720508D+03

 The electronic state is 1-A.
 Alpha  occ. eigenvalues --  -10.67654 -10.62928 -10.60334 -10.60203  -0.95060
 Alpha  occ. eigenvalues --   -0.83780  -0.73606  -0.69615  -0.54581  -0.49451
 Alpha  occ. eigenvalues --   -0.48416  -0.45181  -0.42075  -0.39360  -0.38746
 Alpha  occ. eigenvalues --   -0.36338  -0.35583
 Alpha virt. eigenvalues --    0.03071   0.04635   0.06707   0.07112   0.09327
 Alpha virt. eigenvalues --    0.10674   0.11893   0.13295   0.14010   0.14744
 Alpha virt. eigenvalues --    0.15337   0.15918   0.18138   0.18845   0.20799

 Mulliken charges:
               1
     1  C   -0.153636
     2  C   -0.197728
     3  H    0.027488
     4  H    0.032035
     5  H    0.082393
     6  C   -0.262352
     7  H    0.215056
     8  H    0.010098
     9  C   -0.187590
    10  H   -0.001970
    11  H    0.292665
    12  H    0.045556
    13  H    0.027128
    14  H    0.070857
 Sum of Mulliken charges =   0.00000

 Dipole moment (field-independent basis, Debye):
    X=             -0.2913    Y=             -0.1007    Z=             -0.6551  Tot=              0.7240
 Quadrupole moment (field-independent basis, Debye-Ang):
   XX=            -30.8778   YY=            -29.5644   ZZ=            -29.3917
   XY=             -1.0919   XZ=             -1.1094   YZ=             -0.6788

 Normal termination of Gaussian 09 at Wed Aug 26 22:29:53 2020.
