 Gaussian 09, Revision D.01,
 Gaussian 09:  ES64L-G09RevD.01 24-Apr-2013

 --------------------
 #p B2PLYPD3/Def2QZVP
 --------------------

 ----------
 butane_opt
 ----------
 Symbolic Z-matrix:
 Charge =  0 Multiplicity = 1

                         Standard orientation:
 ---------------------------------------------------------------------
 Center     Atomic      Atomic             Coordinates (Angstroms)
 Number     Number       Type             X           Y           Z
 ---------------------------------------------------------------------
      1          6           0        1.951197    0.081705   -0.157070
      2          6           0        0.568536   -0.462905    0.349282
      3          1           0        2.876434   -0.939771   -0.646400
      4          1           0        2.436768    0.892265    0.678415
      5          1           0        1.587392    0.501085   -1.157853
      6          6           0       -0.586864    0.666531    0.012607
      7          1           0        0.651198   -0.880210    1.395126
      8          1           0        0.599425   -1.069593   -0.249915
      9          6           0       -1.947291   -0.243860   -0.106941
     10          1           0       -0.157902    0.875529   -0.807016
     11          1           0       -0.790882    1.523775    0.828953
     12          1           0       -2.105913   -1.090150   -0.934369
     13          1           0       -2.556512    0.346717   -0.373372
     14          1           0       -2.453475   -0.408470    0.679161
 ---------------------------------------------------------------------

 SCF Done:  E(RB2PLYPD3) =  -157.852144005     A.U. after   11 cycles
 E2(B2PLYPD3) =    -0.2518687956D+00 E(B2PLYPD3) =    -0.15810401280016D+03

 The electronic state is 1-A.
 Alpha  occ. eigenvalues --  -10.65537 -10.62820 -10.59085 -10.57676  -0.91382
 Alpha  occ. eigenvalues --   -0.84954  -0.73960  -0.67327  -0.55003  -0.49020
 Alpha  occ. eigenvalues --   -0.47526  -0.46747  -0.42113  -0.41290  -0.40426
 Alpha  occ. eigenvalues --   -0.36180  -0.34110
 Alpha virt. eigenvalues --    0.04527   0.06143   0.08052   0.08773   0.09719
 Alpha virt. eigenvalues --    0.11034   0.12464   0.13526   0.14575   0.15330
 Alpha virt. eigenvalues --    0.15573   0.17177   0.18308   0.18721   0.21405

 Mulliken charges:
               1
     1  C   -0.188137
     2  C   -0.204656
     3  H    0.009612
     4  H    0.052650
     5  H    0.050175
     6  C   -0.103272
     7  H    0.043759
     8  H    0.206169
     9  C   -0.186022
    10  H    0.109351
    11  H    0.044545
    12  H    0.031239
    13  H    0.093435
    14  H    0.041151
 Sum of Mulliken charges =   0.00000

 Dipole moment (field-independent basis, Debye):
    X=             -0.9187    Y=              0.2993    Z=             -0.0446  Tot=              0.9673
 Quadrupole moment (field-independent basis, Debye-Ang):
   XX=            -30.3360   YY=            -29.3176   ZZ=            -28.0834
   XY=             -0.5603   XZ=             -0.1971   YZ=              1.1268

 Normal termination of Gaussian 09 at Wed Aug 26 18:48:56 2020.
