 Gaussian 09, Revision D.01,
 Gaussian 09:  ES64L-G09RevD.01 24-Apr-2013

 --------------------
 #p B2PLYPD3/Def2QZVP
 --------------------

 ----------
 butane_opt
 ----------
 Symbolic Z-matrix:
 Charge =  0 Multiplicity = 1

                         Standard orientation:
 ---------------------------------------------------------------------
 Center     Atomic      Atomic             Coordinates (Angstroms)
 Number     Number       Type             X           Y           Z
 ---------------------------------------------------------------------
      1          6           0       -1.944592    0.072423    0.098450
      2          6           0       -0.568654   -0.427390   -0.176890
      3          1           0       -2.921197   -0.999876    0.026823
      4          1           0       -2.049853    0.680338   -0.611958
      5          1           0       -1.837433    0.858980    1.304466
      6          6           0        0.497042    0.581894   -0.135537
      7          1           0       -0.723718   -0.857741   -0.814125
      8          1           0       -0.153149   -1.234114    0.688937
      9          6           0        2.007468   -0.174743    0.095897
     10          1           0        0.249156    1.082023    0.636499
     11          1           0        0.624268    1.307199   -1.022799
     12          1           0        1.855948   -0.724479    0.971562
     13          1           0        2.783089    0.366008    0.459111
     14          1           0        2.225308   -0.791440   -0.930035
 ---------------------------------------------------------------------

 SCF Done:  E(RB2PLYPD3) =  -157.827388237     A.U. after   11 cycles
 E2(B2PLYPD3) =    -0.2513214828D+00 E(B2PLYPD3) =    -0.15807870971938D+03

 The electronic state is 1-A.
 Alpha  occ. eigenvalues --  -10.64831 -10.60967 -10.60789 -10.58477  -0.94088
 Alpha  occ. eigenvalues --   -0.83089  -0.74145  -0.70263  -0.55599  -0.50636
 Alpha  occ. eigenvalues --   -0.47959  -0.46425  -0.42249  -0.41301  -0.37660
 Alpha  occ. eigenvalues --   -0.37371  -0.35350
 Alpha virt. eigenvalues --    0.03411   0.06260   0.07907   0.08301   0.09946
 Alpha virt. eigenvalues --    0.11281   0.12105   0.13007   0.13887   0.14761
 Alpha virt. eigenvalues --    0.16049   0.16439   0.18488   0.19315   0.20400

 Mulliken charges:
               1
     1  C   -0.198691
     2  C   -0.249806
     3  H    0.033145
     4  H    0.120967
     5  H    0.001707
     6  C   -0.048327
     7  H    0.236280
     8  H    0.015361
     9  C   -0.165079
    10  H    0.090416
    11  H    0.016683
    12  H    0.048451
    13  H    0.050492
    14  H    0.048400
 Sum of Mulliken charges =   0.00000

 Dipole moment (field-independent basis, Debye):
    X=              0.3121    Y=              0.0847    Z=             -0.4054  Tot=              0.5186
 Quadrupole moment (field-independent basis, Debye-Ang):
   XX=            -30.7585   YY=            -29.5760   ZZ=            -28.2395
   XY=              0.7801   XZ=              1.9528   YZ=              0.3919

 Normal termination of Gaussian 09 at Wed Aug 26 10:37:42 2020.
