 Gaussian 09, Revision D.01,
 Gaussian 09:  ES64L-G09RevD.01 24-Apr-2013

 --------------------
 #p B2PLYPD3/Def2QZVP
 --------------------

 ----------
 butane_opt
 ----------
 Symbolic Z-matrix:
 Charge =  0 Multiplicity = 1

                         Standard orientation:
 ---------------------------------------------------------------------
 Center     Atomic      Atomic             Coordinates (Angstroms)
 Number     Number       Type             X           Y           Z
 ---------------------------------------------------------------------
      1          6           0       -1.964027    0.041657   -0.142282
      2          6           0       -0.629327   -0.388401    0.265737
      3          1           0       -2.740587   -0.795431   -0.321488
      4          1           0       -1.825548    0.349572   -1.185001
      5          1           0       -2.354901    0.808645    0.635565
      6          6           0        0.483266    0.597847   -0.019057
      7          1           0       -0.550594   -0.797650   -0.388971
      8          1           0       -0.581688   -1.084154    1.396294
      9          6           0        2.071257   -0.153291   -0.138680
     10          1           0        0.656690    1.423078    0.813869
     11          1           0        0.334883    0.809323   -0.768976
     12          1           0        2.090708   -0.608525    0.856208
     13          1           0        2.800468    0.548710    0.221968
     14          1           0        2.403556   -1.240434   -1.053772
 ---------------------------------------------------------------------

 SCF Done:  E(RB2PLYPD3) =  -157.746653387     A.U. after   11 cycles
 E2(B2PLYPD3) =    -0.2518597775D+00 E(B2PLYPD3) =    -0.15799851316438D+03

 The electronic state is 1-A.
 Alpha  occ. eigenvalues --  -10.63770 -10.61605 -10.60788 -10.58715  -0.95880
 Alpha  occ. eigenvalues --   -0.82941  -0.74118  -0.68975  -0.56854  -0.49378
 Alpha  occ. eigenvalues --   -0.47898  -0.46739  -0.41210  -0.40184  -0.39377
 Alpha  occ. eigenvalues --   -0.37349  -0.34665
 Alpha virt. eigenvalues --    0.04687   0.05524   0.07577   0.08246   0.10836
 Alpha virt. eigenvalues --    0.11041   0.11725   0.12742   0.13795   0.14230
 Alpha virt. eigenvalues --    0.15778   0.16586   0.19091   0.19366   0.20469

 Mulliken charges:
               1
     1  C   -0.129510
     2  C   -0.410578
     3  H    0.042484
     4  H    0.038446
     5  H    0.045689
     6  C   -0.280645
     7  H    0.402218
     8  H    0.024247
     9  C   -0.217261
    10  H    0.043441
    11  H    0.280840
    12  H    0.053897
    13  H    0.061124
    14  H    0.045608
 Sum of Mulliken charges =   0.00000

 Dipole moment (field-independent basis, Debye):
    X=             -0.2774    Y=              0.0122    Z=             -0.0673  Tot=              0.2857
 Quadrupole moment (field-independent basis, Debye-Ang):
   XX=            -30.4542   YY=            -29.4891   ZZ=            -27.9981
   XY=              0.8069   XZ=              1.5050   YZ=              1.2552

 Normal termination of Gaussian 09 at Wed Aug 26 20:29:42 2020.
