 Gaussian 09, Revision D.01,
 Gaussian 09:  ES64L-G09RevD.01 24-Apr-2013

 --------------------
 #p B2PLYPD3/Def2QZVP
 --------------------

 ----------
 butane_opt
 ----------
 Symbolic Z-matrix:
 Charge =  0 Multiplicity = 1

                         Standard orientation:
 ---------------------------------------------------------------------
 Center     Atomic      Atomic             Coordinates (Angstroms)
 Number     Number       Type             X           Y           Z
 ---------------------------------------------------------------------
      1          6           0       -1.917451    0.067430   -0.117676
      2          6           0       -0.645202   -0.507144    0.147101
      3          1           0       -2.643044   -0.754132   -0.367126
      4          1           0       -1.978967    0.215606   -0.825422
      5          1           0       -2.082944    1.229912    0.991097
      6          6           0        0.511467    0.662724    0.018790
      7          1           0       -0.663856   -0.920786   -0.630275
      8          1           0       -0.648664   -1.212454    1.177010
      9          6           0        2.010985   -0.226384   -0.060559
     10          1           0        0.569714    1.325330    0.786675
     11          1           0        0.325446    1.083259   -0.836778
     12          1           0        2.440943   -0.735606    0.723648
     13          1           0        2.734227    0.471340   -0.330515
     14          1           0        2.188353   -0.682224   -0.614255
 ---------------------------------------------------------------------

 SCF Done:  E(RB2PLYPD3) =  -157.542693964     A.U. after   12 cycles
 E2(B2PLYPD3) =    -0.2500899139D+00 E(B2PLYPD3) =    -0.15779278387827D+03

 The electronic state is 1-A.
 Alpha  occ. eigenvalues --  -10.61373 -10.60453 -10.59979 -10.55346  -0.95835
 Alpha  occ. eigenvalues --   -0.87396  -0.79232  -0.71478  -0.55681  -0.51447
 Alpha  occ. eigenvalues --   -0.48718  -0.47064  -0.45280  -0.44315  -0.39451
 Alpha  occ. eigenvalues --   -0.34558  -0.34238
 Alpha virt. eigenvalues --    0.03275   0.06403   0.07354   0.08462   0.10415
 Alpha virt. eigenvalues --    0.11237   0.12104   0.13174   0.14356   0.15794
 Alpha virt. eigenvalues --    0.16684   0.17140   0.18887   0.19622   0.21404

 Mulliken charges:
               1
     1  C   -0.493817
     2  C   -0.128678
     3  H    0.042718
     4  H    0.369332
     5  H   -0.003150
     6  C   -0.064541
     7  H    0.156683
     8  H    0.046366
     9  C   -0.423139
    10  H    0.063896
    11  H    0.077132
    12  H    0.045086
    13  H    0.023354
    14  H    0.288758
 Sum of Mulliken charges =   0.00000

 Dipole moment (field-independent basis, Debye):
    X=              0.2909    Y=             -0.3719    Z=             -0.9926  Tot=              1.0992
 Quadrupole moment (field-independent basis, Debye-Ang):
   XX=            -30.5788   YY=            -28.5013   ZZ=            -27.2055
   XY=              1.1049   XZ=              1.6311   YZ=              0.3709

 Normal termination of Gaussian 09 at Wed Aug 26 22:32:54 2020.
