 Gaussian 09, Revision D.01,
 Gaussian 09:  ES64L-G09RevD.01 24-Apr-2013

 --------------------
 #p B2PLYPD3/Def2QZVP
 --------------------

 ----------
 butane_opt
 ----------
 Symbolic Z-matrix:
 Charge =  0 Multiplicity = 1

                         Standard orientation:
 ---------------------------------------------------------------------
 Center     Atomic      Atomic             Coordinates (Angstroms)
 Number     Number       Type             X           Y           Z
 ---------------------------------------------------------------------
      1          6           0        1.888141    0.130533   -0.066982
      2          6           0        0.557261   -0.395783    0.062811
      3          1           0        2.710312   -0.766276    0.180715
      4          1           0        2.044207    0.365247    0.500182
      5          1           0        2.100623    1.057487   -1.087709
      6          6           0       -0.548313    0.489322    0.100453
      7          1           0        0.589938   -1.399127    1.126993
      8          1           0        0.271732   -1.086962   -0.838155
      9          6           0       -1.868994   -0.153715   -0.180653
     10          1           0       -0.371035    0.930152   -0.495886
     11          1           0       -0.814378    1.421558    1.150433
     12          1           0       -2.017109   -0.781752   -0.932730
     13          1           0       -2.708332    0.592386    0.215043
     14          1           0       -1.974524   -0.754858    0.687337
 ---------------------------------------------------------------------

 SCF Done:  E(RB2PLYPD3) =  -157.433267468     A.U. after   12 cycles
 E2(B2PLYPD3) =    -0.2528165423D+00 E(B2PLYPD3) =    -0.15768608401032D+03

 The electronic state is 1-A.
 Alpha  occ. eigenvalues --  -10.64521 -10.60672 -10.59857 -10.59346  -0.97268
 Alpha  occ. eigenvalues --   -0.89377  -0.77803  -0.68774  -0.55866  -0.52972
 Alpha  occ. eigenvalues --   -0.50199  -0.47054  -0.42227  -0.41017  -0.39089
 Alpha  occ. eigenvalues --   -0.36701  -0.33862
 Alpha virt. eigenvalues --    0.04051   0.05079   0.05985   0.07137   0.10481
 Alpha virt. eigenvalues --    0.11880   0.12467   0.12707   0.14214   0.14992
 Alpha virt. eigenvalues --    0.15458   0.16073   0.17350   0.19733   0.21353

 Mulliken charges:
               1
     1  C   -0.728659
     2  C    0.062806
     3  H    0.067053
     4  H    0.550958
     5  H    0.045701
     6  C   -0.341544
     7  H   -0.035975
     8  H    0.036259
     9  C   -0.143804
    10  H    0.343374
    11  H   -0.008802
    12  H    0.058168
    13  H    0.040439
    14  H    0.054027
 Sum of Mulliken charges =   0.00000

 Dipole moment (field-independent basis, Debye):
    X=              0.0439    Y=              0.0981    Z=             -0.2491  Tot=              0.2713
 Quadrupole moment (field-independent basis, Debye-Ang):
   XX=            -29.7214   YY=            -29.5527   ZZ=            -28.8918
   XY=              0.4861   XZ=              0.5694   YZ=              0.0476

 Normal termination of Gaussian 09 at Wed Aug 26 12:46:34 2020.
