 Gaussian 09, Revision D.01,
 Gaussian 09:  ES64L-G09RevD.01 24-Apr-2013

 --------------------
 #p B2PLYPD3/Def2QZVP
 --------------------

 ----------
 butane_opt
 ----------
 Symbolic Z-matrix:
 Charge =  0 Multiplicity = 1

                         Standard orientation:
 ---------------------------------------------------------------------
 Center     Atomic      Atomic             Coordinates (Angstroms)
 Number     Number       Type             X           Y           Z
 ---------------------------------------------------------------------
      1          6           0        1.791452    0.057414    0.195575
      2          6           0        0.629547   -0.450935   -0.354660
      3          1           0        2.547824   -0.954473    0.580079
      4          1           0        1.623786    0.291281    1.002181
      5          1           0        2.555166    1.058580   -0.698139
      6          6           0       -0.496496    0.558846   -0.052201
      7          1           0        0.472951   -0.893688    0.333676
      8          1           0        0.392994   -0.895213   -1.245252
      9          6           0       -1.898923   -0.159456    0.048817
     10          1           0       -0.499669    1.357767   -0.689785
     11          1           0       -0.266633    1.110812    0.984407
     12          1           0       -2.297905   -0.424562   -0.716435
     13          1           0       -2.711709    0.525150    0.369988
     14          1           0       -1.970282   -1.210870    1.054095
 ---------------------------------------------------------------------

 SCF Done:  E(RB2PLYPD3) =  -157.776543381     A.U. after   11 cycles
 E2(B2PLYPD3) =    -0.2515735990D+00 E(B2PLYPD3) =    -0.15802811698035D+03

 The electronic state is 1-A.
 Alpha  occ. eigenvalues --  -10.63228 -10.62163 -10.61986 -10.56823  -0.97592
 Alpha  occ. eigenvalues --   -0.85042  -0.74679  -0.69908  -0.57695  -0.51832
 Alpha  occ. eigenvalues --   -0.49661  -0.47383  -0.44789  -0.40260  -0.38166
 Alpha  occ. eigenvalues --   -0.36421  -0.33822
 Alpha virt. eigenvalues --    0.04148   0.05146   0.07909   0.07965   0.09010
 Alpha virt. eigenvalues --    0.10856   0.12019   0.12857   0.14098   0.15207
 Alpha virt. eigenvalues --    0.15912   0.16651   0.18722   0.19209   0.21003

 Mulliken charges:
               1
     1  C   -0.245419
     2  C   -0.268845
     3  H    0.009670
     4  H    0.192310
     5  H   -0.007842
     6  C   -0.010645
     7  H    0.271933
     8  H    0.058476
     9  C   -0.171972
    10  H    0.046279
    11  H    0.007793
    12  H    0.086667
    13  H    0.033086
    14  H   -0.001493
 Sum of Mulliken charges =   0.00000

 Dipole moment (field-independent basis, Debye):
    X=             -0.8948    Y=             -0.0506    Z=             -0.0675  Tot=              0.8988
 Quadrupole moment (field-independent basis, Debye-Ang):
   XX=            -32.2927   YY=            -29.6244   ZZ=            -27.9247
   XY=             -1.0013   XZ=              1.6343   YZ=             -0.1650

 Normal termination of Gaussian 09 at Wed Aug 26 21:42:04 2020.
