 Gaussian 09, Revision D.01,
 Gaussian 09:  ES64L-G09RevD.01 24-Apr-2013

 --------------------
 #p B2PLYPD3/Def2QZVP
 --------------------

 ----------
 butane_opt
 ----------
 Symbolic Z-matrix:
 Charge =  0 Multiplicity = 1

                         Standard orientation:
 ---------------------------------------------------------------------
 Center     Atomic      Atomic             Coordinates (Angstroms)
 Number     Number       Type             X           Y           Z
 ---------------------------------------------------------------------
      1          6           0        1.977438   -0.024494    0.174781
      2          6           0        0.575902    0.435990   -0.182439
      3          1           0        2.860260    0.711272   -0.299095
      4          1           0        2.191012   -0.601466   -0.544372
      5          1           0        2.110650   -0.817283    1.346760
      6          6           0       -0.529519   -0.617802   -0.034196
      7          1           0        0.383042    1.262293   -1.549616
      8          1           0        0.589687    1.005401    0.581345
      9          6           0       -1.963546    0.160995    0.068341
     10          1           0       -0.607237   -0.960048    0.713902
     11          1           0       -0.512087   -1.491716   -0.920743
     12          1           0       -2.480831    1.442687    1.324246
     13          1           0       -2.705178   -0.525682   -0.348521
     14          1           0       -2.190969    0.246406   -0.462826
 ---------------------------------------------------------------------

 SCF Done:  E(RB2PLYPD3) =  -157.097119677     A.U. after   13 cycles
 E2(B2PLYPD3) =    -0.2613227570D+00 E(B2PLYPD3) =    -0.15735844243365D+03

 The electronic state is 1-A.
 Alpha  occ. eigenvalues --  -10.63768 -10.62996 -10.62973 -10.61993  -0.96319
 Alpha  occ. eigenvalues --   -0.90187  -0.80362  -0.69181  -0.55181  -0.49006
 Alpha  occ. eigenvalues --   -0.46550  -0.44267  -0.40629  -0.37315  -0.36101
 Alpha  occ. eigenvalues --   -0.35469  -0.35216
 Alpha virt. eigenvalues --   -0.01882   0.02643   0.04370   0.06526   0.09558
 Alpha virt. eigenvalues --    0.10114   0.11507   0.12022   0.13562   0.14946
 Alpha virt. eigenvalues --    0.15431   0.16804   0.17600   0.18942   0.20258

 Mulliken charges:
               1
     1  C   -0.200949
     2  C   -0.094700
     3  H    0.044347
     4  H    0.085670
     5  H    0.044454
     6  C   -0.219807
     7  H   -0.011215
     8  H    0.138921
     9  C   -0.800226
    10  H    0.238849
    11  H    0.035555
    12  H    0.035769
    13  H    0.029367
    14  H    0.673966
 Sum of Mulliken charges =   0.00000

 Dipole moment (field-independent basis, Debye):
    X=              0.0782    Y=             -0.6965    Z=             -0.4567  Tot=              0.8366
 Quadrupole moment (field-independent basis, Debye-Ang):
   XX=            -30.0339   YY=            -29.9275   ZZ=            -28.4131
   XY=             -0.3576   XZ=              1.1113   YZ=              0.8147

 Normal termination of Gaussian 09 at Wed Aug 26 21:34:43 2020.
