 Gaussian 09, Revision D.01,
 Gaussian 09:  ES64L-G09RevD.01 24-Apr-2013

 --------------------
 #p B2PLYPD3/Def2QZVP
 --------------------

 ----------
 butane_opt
 ----------
 Symbolic Z-matrix:
 Charge =  0 Multiplicity = 1

                         Standard orientation:
 ---------------------------------------------------------------------
 Center     Atomic      Atomic             Coordinates (Angstroms)
 Number     Number       Type             X           Y           Z
 ---------------------------------------------------------------------
      1          6           0        1.879820    0.043519    0.082783
      2          6           0        0.583232   -0.379448    0.042649
      3          1           0        2.871266   -1.101295   -0.507738
      4          1           0        2.178392    1.174680    1.145267
      5          1           0        1.831869    0.352546   -0.581462
      6          6           0       -0.503274    0.555567   -0.130814
      7          1           0        0.191104   -0.813761    0.745625
      8          1           0        0.434614   -1.101844   -0.850174
      9          6           0       -1.960253   -0.173916    0.011946
     10          1           0       -0.275081    1.281285   -1.257284
     11          1           0       -0.416231    0.900224    0.610295
     12          1           0       -2.286317   -0.727420   -0.622491
     13          1           0       -2.551129    0.602586    0.123927
     14          1           0       -1.975641   -0.841333    1.154648
 ---------------------------------------------------------------------

 SCF Done:  E(RB2PLYPD3) =  -157.537778372     A.U. after   12 cycles
 E2(B2PLYPD3) =    -0.2545983697D+00 E(B2PLYPD3) =    -0.15779237674206D+03

 The electronic state is 1-A.
 Alpha  occ. eigenvalues --  -10.63569 -10.61176 -10.60654 -10.58212  -0.98827
 Alpha  occ. eigenvalues --   -0.87840  -0.78820  -0.69619  -0.57003  -0.51944
 Alpha  occ. eigenvalues --   -0.50590  -0.45258  -0.44302  -0.42062  -0.38150
 Alpha  occ. eigenvalues --   -0.36727  -0.33128
 Alpha virt. eigenvalues --    0.00332   0.04963   0.05837   0.06787   0.09850
 Alpha virt. eigenvalues --    0.10757   0.11949   0.13296   0.14004   0.14507
 Alpha virt. eigenvalues --    0.15189   0.15960   0.18699   0.19596   0.20526

 Mulliken charges:
               1
     1  C   -0.505312
     2  C   -0.018142
     3  H    0.001291
     4  H    0.015557
     5  H    0.423023
     6  C   -0.286705
     7  H    0.079062
     8  H    0.012547
     9  C   -0.154955
    10  H    0.010919
    11  H    0.261887
    12  H    0.084390
    13  H    0.073799
    14  H    0.002639
 Sum of Mulliken charges =   0.00000

 Dipole moment (field-independent basis, Debye):
    X=             -1.1401    Y=              0.1304    Z=             -0.3249  Tot=              1.1927
 Quadrupole moment (field-independent basis, Debye-Ang):
   XX=            -32.0832   YY=            -29.7183   ZZ=            -28.2998
   XY=              0.6575   XZ=             -0.8268   YZ=              0.9193

 Normal termination of Gaussian 09 at Wed Aug 26 20:31:57 2020.
