 Gaussian 09, Revision D.01,
 Gaussian 09:  ES64L-G09RevD.01 24-Apr-2013

 --------------------
 #p B2PLYPD3/Def2QZVP
 --------------------

 ----------
 butane_opt
 ----------
 Symbolic Z-matrix:
 Charge =  0 Multiplicity = 1

                         Standard orientation:
 ---------------------------------------------------------------------
 Center     Atomic      Atomic             Coordinates (Angstroms)
 Number     Number       Type             X           Y           Z
 ---------------------------------------------------------------------
      1          6           0        1.935937   -0.193502   -0.165918
      2          6           0        0.482675    0.546641    0.181060
      3          1           0        2.756049    0.429993   -0.671210
      4          1           0        1.580441   -0.525004   -0.762809
      5          1           0        2.708086   -0.926280    0.791062
      6          6           0       -0.570569   -0.417523    0.136701
      7          1           0        0.302925    0.822598   -0.368833
      8          1           0        0.436215    1.607050    1.128796
      9          6           0       -1.909744    0.106431   -0.206176
     10          1           0       -0.834794   -1.160281    1.236347
     11          1           0       -0.146634   -0.851611   -0.470172
     12          1           0       -1.853067    0.690878    0.601502
     13          1           0       -2.893742   -1.052599   -0.137374
     14          1           0       -1.685271    0.712978   -1.021309
 ---------------------------------------------------------------------

 SCF Done:  E(RB2PLYPD3) =  -157.334442580     A.U. after   12 cycles
 E2(B2PLYPD3) =    -0.2547150571D+00 E(B2PLYPD3) =    -0.15758915763678D+03

 The electronic state is 1-A.
 Alpha  occ. eigenvalues --  -10.62377 -10.62226 -10.61468 -10.60309  -1.00918
 Alpha  occ. eigenvalues --   -0.86740  -0.78884  -0.71669  -0.56708  -0.50989
 Alpha  occ. eigenvalues --   -0.50226  -0.46867  -0.43087  -0.39799  -0.38167
 Alpha  occ. eigenvalues --   -0.36333  -0.35804
 Alpha virt. eigenvalues --    0.03047   0.04879   0.06893   0.08235   0.09627
 Alpha virt. eigenvalues --    0.10108   0.12094   0.12585   0.14695   0.14825
 Alpha virt. eigenvalues --    0.15940   0.16384   0.17826   0.18953   0.20270

 Mulliken charges:
               1
     1  C   -0.440824
     2  C   -0.818798
     3  H    0.055962
     4  H    0.351686
     5  H    0.054671
     6  C   -0.084864
     7  H    0.707397
     8  H    0.014087
     9  C   -0.184152
    10  H   -0.009639
    11  H    0.155860
    12  H    0.096331
    13  H    0.048097
    14  H    0.054185
 Sum of Mulliken charges =   0.00000

 Dipole moment (field-independent basis, Debye):
    X=              0.3417    Y=              0.0018    Z=             -0.8971  Tot=              0.9600
 Quadrupole moment (field-independent basis, Debye-Ang):
   XX=            -30.0535   YY=            -29.8693   ZZ=            -28.8424
   XY=              0.3236   XZ=             -0.9831   YZ=             -0.4196

 Normal termination of Gaussian 09 at Wed Aug 26 23:15:17 2020.
