 Gaussian 09, Revision D.01,
 Gaussian 09:  ES64L-G09RevD.01 24-Apr-2013

 --------------------
 #p B2PLYPD3/Def2QZVP
 --------------------

 ----------
 butane_opt
 ----------
 Symbolic Z-matrix:
 Charge =  0 Multiplicity = 1

                         Standard orientation:
 ---------------------------------------------------------------------
 Center     Atomic      Atomic             Coordinates (Angstroms)
 Number     Number       Type             X           Y           Z
 ---------------------------------------------------------------------
      1          6           0        1.971993    0.005873   -0.090207
      2          6           0        0.603833   -0.459149    0.141899
      3          1           0        2.769090   -0.594884   -0.141304
      4          1           0        2.152242    0.736709    0.772263
      5          1           0        1.876978    0.767280   -1.112342
      6          6           0       -0.546431    0.597902    0.148685
      7          1           0        0.806516   -0.800060    0.764333
      8          1           0        0.503264   -1.415857   -0.869843
      9          6           0       -2.001611   -0.153385   -0.084182
     10          1           0       -0.429611    1.265629   -0.657320
     11          1           0       -0.643274    1.449415    1.101945
     12          1           0       -2.039389   -0.487183   -0.763171
     13          1           0       -2.620291    0.433622   -0.865461
     14          1           0       -2.542227   -1.302118    1.073728
 ---------------------------------------------------------------------

 SCF Done:  E(RB2PLYPD3) =  -157.549427609     A.U. after   12 cycles
 E2(B2PLYPD3) =    -0.2555064410D+00 E(B2PLYPD3) =    -0.15780493405040D+03

 The electronic state is 1-A.
 Alpha  occ. eigenvalues --  -10.65266 -10.62831 -10.61493 -10.60428  -0.94076
 Alpha  occ. eigenvalues --   -0.88416  -0.76273  -0.70639  -0.54370  -0.51165
 Alpha  occ. eigenvalues --   -0.49450  -0.44869  -0.41738  -0.38354  -0.37652
 Alpha  occ. eigenvalues --   -0.35424  -0.34709
 Alpha virt. eigenvalues --    0.00684   0.05117   0.06229   0.07257   0.09933
 Alpha virt. eigenvalues --    0.10716   0.11487   0.12396   0.12905   0.15322
 Alpha virt. eigenvalues --    0.16474   0.17322   0.17975   0.18583   0.19818

 Mulliken charges:
               1
     1  C   -0.134070
     2  C   -0.406672
     3  H    0.073742
     4  H    0.031911
     5  H    0.006379
     6  C   -0.001942
     7  H    0.393520
     8  H   -0.005644
     9  C   -0.478976
    10  H    0.052877
    11  H    0.033273
    12  H    0.387744
    13  H    0.023259
    14  H    0.024600
 Sum of Mulliken charges =   0.00000

 Dipole moment (field-independent basis, Debye):
    X=              0.6181    Y=             -0.0149    Z=             -0.4233  Tot=              0.7493
 Quadrupole moment (field-independent basis, Debye-Ang):
   XX=            -31.4281   YY=            -29.6357   ZZ=            -28.2051
   XY=             -0.8168   XZ=              2.8358   YZ=             -0.5737

 Normal termination of Gaussian 09 at Wed Aug 26 09:53:24 2020.
