 Gaussian 09, Revision D.01,
 Gaussian 09:  ES64L-G09RevD.01 24-Apr-2013

 --------------------
 #p B2PLYPD3/Def2QZVP
 --------------------

 ----------
 butane_opt
 ----------
 Symbolic Z-matrix:
 Charge =  0 Multiplicity = 1

                         Standard orientation:
 ---------------------------------------------------------------------
 Center     Atomic      Atomic             Coordinates (Angstroms)
 Number     Number       Type             X           Y           Z
 ---------------------------------------------------------------------
      1          6           0       -2.088677   -0.151186   -0.088593
      2          6           0       -0.522613    0.608085    0.026515
      3          1           0       -2.760546    0.317001   -0.073520
      4          1           0       -2.293115   -0.616858    0.777821
      5          1           0       -2.228676   -0.939903   -0.880091
      6          6           0        0.586348   -0.474884    0.214406
      7          1           0       -0.487557    1.380056    0.820785
      8          1           0       -0.252202    1.022244   -0.852565
      9          6           0        1.961805    0.085911   -0.216537
     10          1           0        0.250971   -0.697330   -0.341146
     11          1           0        0.959008   -1.351230    1.415685
     12          1           0        1.572232    0.284921   -0.850605
     13          1           0        3.054124   -1.032487   -0.631053
     14          1           0        2.564587    1.226026    0.999943
 ---------------------------------------------------------------------

 SCF Done:  E(RB2PLYPD3) =  -157.322226070     A.U. after   13 cycles
 E2(B2PLYPD3) =    -0.2590506574D+00 E(B2PLYPD3) =    -0.15758127672697D+03

 The electronic state is 1-A.
 Alpha  occ. eigenvalues --  -10.66347 -10.64077 -10.61961 -10.58776  -0.98451
 Alpha  occ. eigenvalues --   -0.86358  -0.79592  -0.71093  -0.55219  -0.50705
 Alpha  occ. eigenvalues --   -0.49071  -0.44976  -0.43949  -0.40618  -0.39473
 Alpha  occ. eigenvalues --   -0.34781  -0.32620
 Alpha virt. eigenvalues --   -0.00835   0.04898   0.05443   0.05982   0.08710
 Alpha virt. eigenvalues --    0.09925   0.11811   0.13520   0.13975   0.14584
 Alpha virt. eigenvalues --    0.15161   0.16587   0.18200   0.19099   0.19679

 Mulliken charges:
               1
     1  C   -0.255669
     2  C   -0.089671
     3  H    0.172074
     4  H    0.052595
     5  H    0.033086
     6  C   -0.670801
     7  H    0.053848
     8  H    0.077985
     9  C   -0.441657
    10  H    0.618604
    11  H    0.030970
    12  H    0.375962
    13  H    0.026350
    14  H    0.016324
 Sum of Mulliken charges =   0.00000

 Dipole moment (field-independent basis, Debye):
    X=             -1.3300    Y=              0.1681    Z=             -0.5191  Tot=              1.4376
 Quadrupole moment (field-independent basis, Debye-Ang):
   XX=            -30.5481   YY=            -29.9807   ZZ=            -28.7501
   XY=             -0.5792   XZ=             -0.0292   YZ=              0.8297

 Normal termination of Gaussian 09 at Wed Aug 26 13:41:11 2020.
