 Gaussian 09, Revision D.01,
 Gaussian 09:  ES64L-G09RevD.01 24-Apr-2013

 --------------------
 #p B2PLYPD3/Def2QZVP
 --------------------

 ----------
 butane_opt
 ----------
 Symbolic Z-matrix:
 Charge =  0 Multiplicity = 1

                         Standard orientation:
 ---------------------------------------------------------------------
 Center     Atomic      Atomic             Coordinates (Angstroms)
 Number     Number       Type             X           Y           Z
 ---------------------------------------------------------------------
      1          6           0        1.920753   -0.095964    0.035290
      2          6           0        0.560286    0.476389   -0.076725
      3          1           0        2.735632    0.733410    0.063088
      4          1           0        2.039294   -0.516628   -0.810295
      5          1           0        1.804871   -0.819289    1.036452
      6          6           0       -0.555980   -0.593490   -0.024763
      7          1           0        0.449679    1.148766   -0.986992
      8          1           0        0.459639    1.074646    0.812473
      9          6           0       -1.919744    0.145472    0.011826
     10          1           0       -0.295841   -1.200866    0.823237
     11          1           0       -0.431561   -1.104847   -0.778653
     12          1           0       -2.246069    1.090745    1.051530
     13          1           0       -2.609433   -0.495637   -0.207440
     14          1           0       -1.938098    0.495256   -0.677170
 ---------------------------------------------------------------------

 SCF Done:  E(RB2PLYPD3) =  -157.868858921     A.U. after   11 cycles
 E2(B2PLYPD3) =    -0.2476385113D+00 E(B2PLYPD3) =    -0.15811649743178D+03

 The electronic state is 1-A.
 Alpha  occ. eigenvalues --  -10.59954 -10.59663 -10.58763 -10.58196  -0.93234
 Alpha  occ. eigenvalues --   -0.86475  -0.76029  -0.67187  -0.55718  -0.50092
 Alpha  occ. eigenvalues --   -0.49862  -0.48373  -0.42530  -0.40154  -0.38833
 Alpha  occ. eigenvalues --   -0.38478  -0.36693
 Alpha virt. eigenvalues --    0.05338   0.06318   0.08220   0.08435   0.10716
 Alpha virt. eigenvalues --    0.11657   0.12363   0.13582   0.14826   0.15423
 Alpha virt. eigenvalues --    0.16271   0.16353   0.19018   0.19851   0.22083

 Mulliken charges:
               1
     1  C   -0.171425
     2  C   -0.038429
     3  H    0.039442
     4  H    0.068696
     5  H    0.038628
     6  C   -0.057184
     7  H    0.011603
     8  H    0.046529
     9  C   -0.394398
    10  H    0.027920
    11  H    0.077196
    12  H    0.031998
    13  H    0.044825
    14  H    0.274599
 Sum of Mulliken charges =   0.00000

 Dipole moment (field-independent basis, Debye):
    X=             -0.1090    Y=             -0.1524    Z=             -0.6605  Tot=              0.6866
 Quadrupole moment (field-independent basis, Debye-Ang):
   XX=            -30.1602   YY=            -28.9301   ZZ=            -27.5691
   XY=              0.6967   XZ=              0.5164   YZ=              0.3045

 Normal termination of Gaussian 09 at Wed Aug 26 23:10:43 2020.
