 Gaussian 09, Revision D.01,
 Gaussian 09:  ES64L-G09RevD.01 24-Apr-2013

 --------------------
 #p B2PLYPD3/Def2QZVP
 --------------------

 ----------
 butane_opt
 ----------
 Symbolic Z-matrix:
 Charge =  0 Multiplicity = 1

                         Standard orientation:
 ---------------------------------------------------------------------
 Center     Atomic      Atomic             Coordinates (Angstroms)
 Number     Number       Type             X           Y           Z
 ---------------------------------------------------------------------
      1          6           0        2.002477    0.123140   -0.095211
      2          6           0        0.560121   -0.504803    0.170753
      3          1           0        3.003292   -0.919087   -0.510480
      4          1           0        2.322960    0.953037    0.835731
      5          1           0        1.719214    0.713650   -0.980039
      6          6           0       -0.581114    0.543770    0.065707
      7          1           0        0.517775   -1.162150    0.973850
      8          1           0        0.518123   -1.040894   -0.534630
      9          6           0       -2.041320   -0.107228   -0.152288
     10          1           0       -0.554978    0.860445   -0.533727
     11          1           0       -0.386127    1.418508    1.030973
     12          1           0       -1.741981   -0.612392   -0.771964
     13          1           0       -2.618604    0.451895   -0.442838
     14          1           0       -2.420654   -0.992286    0.999353
 ---------------------------------------------------------------------

 SCF Done:  E(RB2PLYPD3) =  -157.540847206     A.U. after   11 cycles
 E2(B2PLYPD3) =    -0.2513772564D+00 E(B2PLYPD3) =    -0.15779222446224D+03

 The electronic state is 1-A.
 Alpha  occ. eigenvalues --  -10.66268 -10.60277 -10.59684 -10.58770  -0.94979
 Alpha  occ. eigenvalues --   -0.85768  -0.76493  -0.69972  -0.56277  -0.55084
 Alpha  occ. eigenvalues --   -0.48659  -0.45368  -0.40923  -0.40574  -0.38360
 Alpha  occ. eigenvalues --   -0.37224  -0.36654
 Alpha virt. eigenvalues --    0.03617   0.04870   0.07961   0.08797   0.09646
 Alpha virt. eigenvalues --    0.10789   0.11314   0.12495   0.14262   0.15522
 Alpha virt. eigenvalues --    0.15714   0.16497   0.18196   0.19305   0.19847

 Mulliken charges:
               1
     1  C   -0.187383
     2  C   -0.056570
     3  H    0.024333
     4  H    0.045199
     5  H    0.062826
     6  C   -0.623690
     7  H    0.046379
     8  H    0.113848
     9  C   -0.301096
    10  H    0.535828
    11  H    0.031333
    12  H    0.173779
    13  H    0.126407
    14  H    0.008808
 Sum of Mulliken charges =   0.00000

 Dipole moment (field-independent basis, Debye):
    X=             -0.3441    Y=              0.0391    Z=             -0.8901  Tot=              0.9551
 Quadrupole moment (field-independent basis, Debye-Ang):
   XX=            -31.9601   YY=            -28.8033   ZZ=            -28.2211
   XY=             -0.9806   XZ=              1.2697   YZ=             -0.1779

 Normal termination of Gaussian 09 at Wed Aug 26 10:16:16 2020.
