 Gaussian 09, Revision D.01,
 Gaussian 09:  ES64L-G09RevD.01 24-Apr-2013

 --------------------
 #p B2PLYPD3/Def2QZVP
 --------------------

 ----------
 butane_opt
 ----------
 Symbolic Z-matrix:
 Charge =  0 Multiplicity = 1

                         Standard orientation:
 ---------------------------------------------------------------------
 Center     Atomic      Atomic             Coordinates (Angstroms)
 Number     Number       Type             X           Y           Z
 ---------------------------------------------------------------------
      1          6           0       -1.918477    0.114852   -0.054378
      2          6           0       -0.562669   -0.496748    0.059389
      3          1           0       -2.736404   -0.688309   -0.128540
      4          1           0       -2.039543    0.762858   -0.966746
      5          1           0       -2.111901    0.662190    0.762226
      6          6           0        0.545700    0.533006    0.088842
      7          1           0       -0.419192   -1.079057   -0.753232
      8          1           0       -0.485451   -1.162831    0.955646
      9          6           0        1.925968   -0.127004   -0.075239
     10          1           0        0.505113    1.251048    0.996928
     11          1           0        0.474311    1.078630   -0.683693
     12          1           0        2.187510   -0.869784    0.830278
     13          1           0        2.654890    0.609137   -0.203825
     14          1           0        2.027534   -0.708511   -0.920722
 ---------------------------------------------------------------------

 SCF Done:  E(RB2PLYPD3) =  -158.086703938     A.U. after   11 cycles
 E2(B2PLYPD3) =    -0.2453264968D+00 E(B2PLYPD3) =    -0.15833203043442D+03

 The electronic state is 1-A.
 Alpha  occ. eigenvalues --  -10.59527 -10.59294 -10.59263 -10.59173  -0.92133
 Alpha  occ. eigenvalues --   -0.83757  -0.73202  -0.67928  -0.54952  -0.49852
 Alpha  occ. eigenvalues --   -0.48978  -0.47298  -0.43507  -0.41167  -0.39435
 Alpha  occ. eigenvalues --   -0.38400  -0.37329
 Alpha virt. eigenvalues --    0.05875   0.06899   0.08332   0.08867   0.11138
 Alpha virt. eigenvalues --    0.12034   0.12961   0.13850   0.14937   0.15282
 Alpha virt. eigenvalues --    0.15855   0.16590   0.19810   0.20450   0.22217

 Mulliken charges:
               1
     1  C   -0.140023
     2  C   -0.049162
     3  H    0.029861
     4  H    0.031008
     5  H    0.057683
     6  C   -0.070477
     7  H    0.052428
     8  H    0.025586
     9  C   -0.132983
    10  H    0.016850
    11  H    0.068203
    12  H    0.024658
    13  H    0.045032
    14  H    0.041337
 Sum of Mulliken charges =   0.00000

 Dipole moment (field-independent basis, Debye):
    X=              0.0163    Y=              0.1103    Z=             -0.2956  Tot=              0.3160
 Quadrupole moment (field-independent basis, Debye-Ang):
   XX=            -29.8952   YY=            -28.5473   ZZ=            -27.9691
   XY=              0.3602   XZ=             -0.6583   YZ=             -0.0442

 Normal termination of Gaussian 09 at Wed Aug 26 10:02:03 2020.
