 Gaussian 09, Revision D.01,
 Gaussian 09:  ES64L-G09RevD.01 24-Apr-2013

 --------------------
 #p B2PLYPD3/Def2QZVP
 --------------------

 ----------
 butane_opt
 ----------
 Symbolic Z-matrix:
 Charge =  0 Multiplicity = 1

                         Standard orientation:
 ---------------------------------------------------------------------
 Center     Atomic      Atomic             Coordinates (Angstroms)
 Number     Number       Type             X           Y           Z
 ---------------------------------------------------------------------
      1          6           0       -1.894842    0.103033   -0.062708
      2          6           0       -0.557819   -0.557248   -0.004901
      3          1           0       -2.646104   -0.604320   -0.066767
      4          1           0       -2.078165    0.771334   -0.899897
      5          1           0       -2.117966    0.753071    0.923406
      6          6           0        0.516652    0.504549    0.105450
      7          1           0       -0.300139   -1.061541   -0.893028
      8          1           0       -0.406140   -1.112649    0.836598
      9          6           0        1.935730   -0.090883   -0.023424
     10          1           0        0.287019    1.191374    1.115004
     11          1           0        0.482729    1.135584   -0.671440
     12          1           0        2.285092   -0.992204    0.973968
     13          1           0        2.783096    0.676888   -0.579361
     14          1           0        1.712255   -0.514245   -0.824983
 ---------------------------------------------------------------------

 SCF Done:  E(RB2PLYPD3) =  -158.001180842     A.U. after   11 cycles
 E2(B2PLYPD3) =    -0.2494255263D+00 E(B2PLYPD3) =    -0.15825060636878D+03

 The electronic state is 1-A.
 Alpha  occ. eigenvalues --  -10.62713 -10.61007 -10.60213 -10.59394  -0.93018
 Alpha  occ. eigenvalues --   -0.83971  -0.72833  -0.66926  -0.55482  -0.49437
 Alpha  occ. eigenvalues --   -0.48760  -0.46471  -0.42651  -0.40200  -0.38555
 Alpha  occ. eigenvalues --   -0.38103  -0.36465
 Alpha virt. eigenvalues --    0.04860   0.06337   0.08167   0.08306   0.10459
 Alpha virt. eigenvalues --    0.11359   0.12476   0.13175   0.14717   0.15016
 Alpha virt. eigenvalues --    0.15918   0.16787   0.18917   0.19596   0.21170

 Mulliken charges:
               1
     1  C   -0.135062
     2  C   -0.062580
     3  H    0.048818
     4  H    0.042500
     5  H    0.025199
     6  C   -0.040043
     7  H    0.041191
     8  H    0.061832
     9  C   -0.238004
    10  H    0.002874
    11  H    0.062997
    12  H    0.030862
    13  H    0.036455
    14  H    0.122961
 Sum of Mulliken charges =   0.00000

 Dipole moment (field-independent basis, Debye):
    X=             -0.4193    Y=             -0.2225    Z=             -0.6005  Tot=              0.7654
 Quadrupole moment (field-independent basis, Debye-Ang):
   XX=            -30.9373   YY=            -29.4992   ZZ=            -27.9620
   XY=              0.0795   XZ=             -0.8349   YZ=             -0.9655

 Normal termination of Gaussian 09 at Wed Aug 26 10:49:42 2020.
