 Gaussian 09, Revision D.01,
 Gaussian 09:  ES64L-G09RevD.01 24-Apr-2013

 --------------------
 #p B2PLYPD3/Def2QZVP
 --------------------

 ----------
 butane_opt
 ----------
 Symbolic Z-matrix:
 Charge =  0 Multiplicity = 1

                         Standard orientation:
 ---------------------------------------------------------------------
 Center     Atomic      Atomic             Coordinates (Angstroms)
 Number     Number       Type             X           Y           Z
 ---------------------------------------------------------------------
      1          6           0        2.028010   -0.219997   -0.119812
      2          6           0        0.562785    0.600611    0.114622
      3          1           0        2.807317    0.200667   -1.023126
      4          1           0        1.578544   -0.773735   -0.783833
      5          1           0        2.628998   -0.821657    1.145513
      6          6           0       -0.629009   -0.336389    0.258271
      7          1           0        0.321847    0.947619   -0.709743
      8          1           0        0.535436    1.745975    0.927723
      9          6           0       -1.936469    0.033762   -0.137639
     10          1           0       -0.680484   -0.605980    1.275867
     11          1           0       -0.683847   -1.414750   -0.529177
     12          1           0       -2.201207    0.454375    0.483475
     13          1           0       -2.620200   -0.769659   -0.162587
     14          1           0       -1.838310    0.569230   -1.316756
 ---------------------------------------------------------------------

 SCF Done:  E(RB2PLYPD3) =  -157.753506980     A.U. after   11 cycles
 E2(B2PLYPD3) =    -0.2549254429D+00 E(B2PLYPD3) =    -0.15800843242289D+03

 The electronic state is 1-A.
 Alpha  occ. eigenvalues --  -10.65683 -10.63751 -10.62184 -10.58110  -0.94290
 Alpha  occ. eigenvalues --   -0.85081  -0.74116  -0.66279  -0.57023  -0.50780
 Alpha  occ. eigenvalues --   -0.47157  -0.46456  -0.41820  -0.39516  -0.37527
 Alpha  occ. eigenvalues --   -0.36464  -0.33892
 Alpha virt. eigenvalues --    0.03547   0.05143   0.05938   0.07905   0.09818
 Alpha virt. eigenvalues --    0.09919   0.11117   0.12888   0.13733   0.14742
 Alpha virt. eigenvalues --    0.15894   0.16999   0.17196   0.18892   0.19399

 Mulliken charges:
               1
     1  C   -0.221496
     2  C   -0.127504
     3  H    0.041017
     4  H    0.125505
     5  H    0.049405
     6  C   -0.015673
     7  H    0.128089
     8  H    0.001178
     9  C   -0.301904
    10  H    0.041189
    11  H   -0.014175
    12  H    0.213678
    13  H    0.058770
    14  H    0.021920
 Sum of Mulliken charges =   0.00000

 Dipole moment (field-independent basis, Debye):
    X=             -0.7040    Y=             -0.1269    Z=             -0.1960  Tot=              0.7417
 Quadrupole moment (field-independent basis, Debye-Ang):
   XX=            -30.2575   YY=            -30.9576   ZZ=            -27.7832
   XY=              0.4374   XZ=             -1.3837   YZ=             -0.0754

 Normal termination of Gaussian 09 at Wed Aug 26 14:20:23 2020.
