 Gaussian 09, Revision D.01,
 Gaussian 09:  ES64L-G09RevD.01 24-Apr-2013

 --------------------
 #p B2PLYPD3/Def2QZVP
 --------------------

 ----------
 butane_opt
 ----------
 Symbolic Z-matrix:
 Charge =  0 Multiplicity = 1

                         Standard orientation:
 ---------------------------------------------------------------------
 Center     Atomic      Atomic             Coordinates (Angstroms)
 Number     Number       Type             X           Y           Z
 ---------------------------------------------------------------------
      1          6           0        1.918381   -0.178221   -0.167658
      2          6           0        0.491271    0.646646    0.264346
      3          1           0        2.674021    0.471653   -0.593934
      4          1           0        1.811198   -0.901761   -1.107673
      5          1           0        2.588499   -0.732216    0.789691
      6          6           0       -0.526505   -0.443400    0.079498
      7          1           0        0.289413    0.921893   -0.303160
      8          1           0        0.226010    1.621529    1.228227
      9          6           0       -1.855060    0.057808   -0.155647
     10          1           0       -0.630867   -1.515818    1.314777
     11          1           0       -0.258264   -0.822319   -0.622518
     12          1           0       -2.004525    0.287860    0.481865
     13          1           0       -2.839495   -0.955919   -0.013756
     14          1           0       -2.024507    1.128094   -1.296753
 ---------------------------------------------------------------------

 SCF Done:  E(RB2PLYPD3) =  -157.228042282     A.U. after   12 cycles
 E2(B2PLYPD3) =    -0.2576092766D+00 E(B2PLYPD3) =    -0.15748565155847D+03

 The electronic state is 1-A.
 Alpha  occ. eigenvalues --  -10.65108 -10.62810 -10.62683 -10.62214  -0.98565
 Alpha  occ. eigenvalues --   -0.87068  -0.75505  -0.73063  -0.53909  -0.50482
 Alpha  occ. eigenvalues --   -0.46800  -0.44112  -0.41984  -0.40856  -0.40269
 Alpha  occ. eigenvalues --   -0.37612  -0.32647
 Alpha virt. eigenvalues --    0.01536   0.02980   0.05174   0.06628   0.09643
 Alpha virt. eigenvalues --    0.10832   0.11459   0.12464   0.13653   0.14517
 Alpha virt. eigenvalues --    0.15449   0.15847   0.17703   0.18698   0.19344

 Mulliken charges:
               1
     1  C   -0.129225
     2  C   -0.773490
     3  H    0.048829
     4  H    0.047635
     5  H    0.048893
     6  C   -0.109005
     7  H    0.690508
     8  H    0.060865
     9  C   -0.616181
    10  H   -0.041377
    11  H    0.225223
    12  H    0.482777
    13  H    0.038210
    14  H    0.026338
 Sum of Mulliken charges =   0.00000

 Dipole moment (field-independent basis, Debye):
    X=              0.4243    Y=              0.5900    Z=             -0.4881  Tot=              0.8754
 Quadrupole moment (field-independent basis, Debye-Ang):
   XX=            -30.3987   YY=            -30.0328   ZZ=            -28.9878
   XY=             -0.5780   XZ=             -1.6224   YZ=              0.3928

 Normal termination of Gaussian 09 at Wed Aug 26 18:33:22 2020.
