 Gaussian 09, Revision D.01,
 Gaussian 09:  ES64L-G09RevD.01 24-Apr-2013

 --------------------
 #p B2PLYPD3/Def2QZVP
 --------------------

 ----------
 butane_opt
 ----------
 Symbolic Z-matrix:
 Charge =  0 Multiplicity = 1

                         Standard orientation:
 ---------------------------------------------------------------------
 Center     Atomic      Atomic             Coordinates (Angstroms)
 Number     Number       Type             X           Y           Z
 ---------------------------------------------------------------------
      1          6           0        1.931659   -0.129750   -0.113154
      2          6           0        0.522724    0.559507    0.163849
      3          1           0        2.646169    0.620521   -0.444487
      4          1           0        1.960192   -0.547514   -0.881980
      5          1           0        2.497756   -1.109712    0.952187
      6          6           0       -0.539476   -0.485298    0.059384
      7          1           0        0.249707    1.166388   -0.707955
      8          1           0        0.609759    1.318320    1.080608
      9          6           0       -1.940857    0.077706   -0.060399
     10          1           0       -0.517968   -1.073305    0.896663
     11          1           0       -0.458539   -1.198224   -0.931710
     12          1           0       -2.158831    0.559939    0.777742
     13          1           0       -2.737643   -0.681518   -0.045581
     14          1           0       -1.934899    0.812114   -0.993565
 ---------------------------------------------------------------------

 SCF Done:  E(RB2PLYPD3) =  -157.964844992     A.U. after   11 cycles
 E2(B2PLYPD3) =    -0.2497644270D+00 E(B2PLYPD3) =    -0.15821460941882D+03

 The electronic state is 1-A.
 Alpha  occ. eigenvalues --  -10.62760 -10.61765 -10.60945 -10.59660  -0.91854
 Alpha  occ. eigenvalues --   -0.83889  -0.74498  -0.66483  -0.54857  -0.49859
 Alpha  occ. eigenvalues --   -0.48513  -0.45836  -0.42929  -0.39777  -0.39061
 Alpha  occ. eigenvalues --   -0.36941  -0.36237
 Alpha virt. eigenvalues --    0.04462   0.05829   0.07501   0.08124   0.10228
 Alpha virt. eigenvalues --    0.10937   0.12541   0.12963   0.14452   0.15188
 Alpha virt. eigenvalues --    0.15718   0.16544   0.18996   0.19776   0.20650

 Mulliken charges:
               1
     1  C   -0.218401
     2  C   -0.043104
     3  H    0.038054
     4  H    0.127828
     5  H    0.004724
     6  C   -0.034651
     7  H    0.034796
     8  H    0.040962
     9  C   -0.134758
    10  H    0.048109
    11  H    0.015827
    12  H    0.053389
    13  H    0.040404
    14  H    0.026820
 Sum of Mulliken charges =   0.00000

 Dipole moment (field-independent basis, Debye):
    X=             -0.3525    Y=              0.2360    Z=             -0.2707  Tot=              0.5033
 Quadrupole moment (field-independent basis, Debye-Ang):
   XX=            -30.7981   YY=            -29.3788   ZZ=            -28.1510
   XY=              0.9247   XZ=             -1.7194   YZ=             -0.1496

 Normal termination of Gaussian 09 at Wed Aug 26 23:37:21 2020.
