 Gaussian 09, Revision D.01,
 Gaussian 09:  ES64L-G09RevD.01 24-Apr-2013

 --------------------
 #p B2PLYPD3/Def2QZVP
 --------------------

 ----------
 butane_opt
 ----------
 Symbolic Z-matrix:
 Charge =  0 Multiplicity = 1

                         Standard orientation:
 ---------------------------------------------------------------------
 Center     Atomic      Atomic             Coordinates (Angstroms)
 Number     Number       Type             X           Y           Z
 ---------------------------------------------------------------------
      1          6           0       -1.942676    0.135717    0.057885
      2          6           0       -0.577643   -0.502168   -0.072124
      3          1           0       -2.643447   -0.503528   -0.397629
      4          1           0       -1.789914    0.295966   -0.555834
      5          1           0       -2.372698    1.036428    1.216402
      6          6           0        0.594260    0.475421   -0.078709
      7          1           0       -0.466690   -1.174634   -0.957813
      8          1           0       -0.372243   -1.054361    0.811692
      9          6           0        1.938281   -0.107815    0.112130
     10          1           0        0.329555    0.884094    0.614476
     11          1           0        0.580019    1.294157   -1.105863
     12          1           0        1.996503   -0.936416    1.058832
     13          1           0        2.789153    0.724101   -0.085970
     14          1           0        1.876431   -0.572738   -0.713387
 ---------------------------------------------------------------------

 SCF Done:  E(RB2PLYPD3) =  -157.533352615     A.U. after   11 cycles
 E2(B2PLYPD3) =    -0.2522902709D+00 E(B2PLYPD3) =    -0.15778564288557D+03

 The electronic state is 1-A.
 Alpha  occ. eigenvalues --  -10.61234 -10.60870 -10.59324 -10.59135  -0.97171
 Alpha  occ. eigenvalues --   -0.89642  -0.76142  -0.67856  -0.55050  -0.49774
 Alpha  occ. eigenvalues --   -0.48224  -0.48058  -0.42227  -0.40613  -0.39024
 Alpha  occ. eigenvalues --   -0.37673  -0.34735
 Alpha virt. eigenvalues --    0.04226   0.05730   0.06905   0.07642   0.10616
 Alpha virt. eigenvalues --    0.11074   0.12454   0.12746   0.14367   0.15453
 Alpha virt. eigenvalues --    0.16180   0.16376   0.18610   0.19056   0.21019

 Mulliken charges:
               1
     1  C   -0.797232
     2  C    0.000180
     3  H    0.068708
     4  H    0.609601
     5  H    0.067124
     6  C   -0.188911
     7  H    0.019065
     8  H    0.036142
     9  C   -0.176682
    10  H    0.193136
    11  H   -0.012072
    12  H    0.037691
    13  H    0.050182
    14  H    0.093068
 Sum of Mulliken charges =   0.00000

 Dipole moment (field-independent basis, Debye):
    X=             -0.0901    Y=             -0.1088    Z=             -0.2692  Tot=              0.3041
 Quadrupole moment (field-independent basis, Debye-Ang):
   XX=            -30.2551   YY=            -29.6103   ZZ=            -27.4321
   XY=              0.1615   XZ=              0.0488   YZ=              0.6777

 Normal termination of Gaussian 09 at Wed Aug 26 22:13:21 2020.
