 Gaussian 09, Revision D.01,
 Gaussian 09:  ES64L-G09RevD.01 24-Apr-2013

 --------------------
 #p B2PLYPD3/Def2QZVP
 --------------------

 ----------
 butane_opt
 ----------
 Symbolic Z-matrix:
 Charge =  0 Multiplicity = 1

                         Standard orientation:
 ---------------------------------------------------------------------
 Center     Atomic      Atomic             Coordinates (Angstroms)
 Number     Number       Type             X           Y           Z
 ---------------------------------------------------------------------
      1          6           0        1.986480   -0.148838    0.116285
      2          6           0        0.559244    0.615698   -0.057694
      3          1           0        2.543957    0.354117   -0.828892
      4          1           0        2.077809   -0.092885   -0.464413
      5          1           0        2.592473   -1.338354    1.442630
      6          6           0       -0.571797   -0.463168   -0.205686
      7          1           0        0.528800    1.268580   -1.034464
      8          1           0        0.117117    1.202339    0.796227
      9          6           0       -1.921038    0.033282    0.119264
     10          1           0       -0.213542   -1.146766    0.699902
     11          1           0       -0.725598   -1.008744   -1.116239
     12          1           0       -2.251947    1.253199    1.415144
     13          1           0       -2.886002   -1.018063   -0.292726
     14          1           0       -2.100400    0.304733   -0.450183
 ---------------------------------------------------------------------

 SCF Done:  E(RB2PLYPD3) =  -156.741462414     A.U. after   15 cycles
 E2(B2PLYPD3) =    -0.2705047211D+00 E(B2PLYPD3) =    -0.15701196713555D+03

 The electronic state is 1-A.
 Alpha  occ. eigenvalues --  -10.65095 -10.64998 -10.64390 -10.62233  -1.02523
 Alpha  occ. eigenvalues --   -0.93310  -0.80125  -0.67814  -0.53892  -0.51137
 Alpha  occ. eigenvalues --   -0.45937  -0.43707  -0.40981  -0.37542  -0.35754
 Alpha  occ. eigenvalues --   -0.34486  -0.27937
 Alpha virt. eigenvalues --   -0.04553  -0.00909   0.02364   0.04692   0.08498
 Alpha virt. eigenvalues --    0.09721   0.11003   0.11840   0.13357   0.14740
 Alpha virt. eigenvalues --    0.16043   0.16483   0.17091   0.18183   0.18972

 Mulliken charges:
               1
     1  C   -1.001737
     2  C   -0.056593
     3  H    0.129433
     4  H    0.746828
     5  H    0.114278
     6  C    0.046063
     7  H    0.007680
     8  H    0.064310
     9  C   -0.712760
    10  H    0.039271
    11  H    0.046249
    12  H    0.008085
    13  H    0.002723
    14  H    0.566170
 Sum of Mulliken charges =   0.00000

 Dipole moment (field-independent basis, Debye):
    X=              0.6908    Y=             -0.2863    Z=             -1.6884  Tot=              1.8466
 Quadrupole moment (field-independent basis, Debye-Ang):
   XX=            -32.9075   YY=            -30.8711   ZZ=            -26.8601
   XY=             -2.6827   XZ=             -0.0336   YZ=             -1.4217

 Normal termination of Gaussian 09 at Wed Aug 26 16:33:56 2020.
