 Gaussian 09, Revision D.01,
 Gaussian 09:  ES64L-G09RevD.01 24-Apr-2013

 --------------------
 #p B2PLYPD3/Def2QZVP
 --------------------

 ----------
 butane_opt
 ----------
 Symbolic Z-matrix:
 Charge =  0 Multiplicity = 1

                         Standard orientation:
 ---------------------------------------------------------------------
 Center     Atomic      Atomic             Coordinates (Angstroms)
 Number     Number       Type             X           Y           Z
 ---------------------------------------------------------------------
      1          6           0       -1.948360   -0.129317    0.014090
      2          6           0       -0.556975    0.525119   -0.012665
      3          1           0       -2.725879    0.602121   -0.051107
      4          1           0       -2.098463   -0.756223    0.904409
      5          1           0       -2.097812   -0.730304   -0.841947
      6          6           0        0.570232   -0.487836   -0.001601
      7          1           0       -0.397328    1.111541    0.846148
      8          1           0       -0.462551    1.170695   -0.889126
      9          6           0        1.936653    0.108872   -0.001716
     10          1           0        0.436480   -1.095533   -0.841424
     11          1           0        0.457072   -1.177310    0.900126
     12          1           0        1.984077    0.626073   -0.810484
     13          1           0        2.734824   -0.683634   -0.153075
     14          1           0        2.160281    0.831545    0.947833
 ---------------------------------------------------------------------

 SCF Done:  E(RB2PLYPD3) =  -158.101732451     A.U. after   10 cycles
 E2(B2PLYPD3) =    -0.2456778223D+00 E(B2PLYPD3) =    -0.15834741027280D+03

 The electronic state is 1-A.
 Alpha  occ. eigenvalues --  -10.59799 -10.59747 -10.59677 -10.59208  -0.91779
 Alpha  occ. eigenvalues --   -0.83737  -0.73307  -0.66734  -0.54783  -0.49506
 Alpha  occ. eigenvalues --   -0.48746  -0.47799  -0.42930  -0.41534  -0.39454
 Alpha  occ. eigenvalues --   -0.38050  -0.37428
 Alpha virt. eigenvalues --    0.05875   0.06874   0.08324   0.08806   0.10886
 Alpha virt. eigenvalues --    0.12147   0.13042   0.13834   0.14879   0.15281
 Alpha virt. eigenvalues --    0.15894   0.16470   0.19691   0.20298   0.22182

 Mulliken charges:
               1
     1  C   -0.134323
     2  C   -0.054565
     3  H    0.041409
     4  H    0.043534
     5  H    0.039478
     6  C   -0.033575
     7  H    0.040293
     8  H    0.025373
     9  C   -0.157170
    10  H    0.038345
    11  H    0.016487
    12  H    0.067224
    13  H    0.039062
    14  H    0.028427
 Sum of Mulliken charges =   0.00000

 Dipole moment (field-independent basis, Debye):
    X=             -0.0855    Y=              0.0303    Z=             -0.2819  Tot=              0.2961
 Quadrupole moment (field-independent basis, Debye-Ang):
   XX=            -29.6209   YY=            -28.9559   ZZ=            -27.9288
   XY=             -0.2451   XZ=             -0.2104   YZ=              0.1096

 Normal termination of Gaussian 09 at Wed Aug 26 09:37:30 2020.
