 Gaussian 09, Revision D.01,
 Gaussian 09:  ES64L-G09RevD.01 24-Apr-2013

 --------------------
 #p B2PLYPD3/Def2QZVP
 --------------------

 ----------
 butane_opt
 ----------
 Symbolic Z-matrix:
 Charge =  0 Multiplicity = 1

                         Standard orientation:
 ---------------------------------------------------------------------
 Center     Atomic      Atomic             Coordinates (Angstroms)
 Number     Number       Type             X           Y           Z
 ---------------------------------------------------------------------
      1          6           0       -1.987505    0.056460   -0.153913
      2          6           0       -0.595761   -0.426298    0.177861
      3          1           0       -2.837077   -0.938223   -0.185880
      4          1           0       -2.029991    0.814155   -1.213493
      5          1           0       -2.005621    0.736247    0.720289
      6          6           0        0.570469    0.534490    0.125171
      7          1           0       -0.459836   -0.797870   -0.460020
      8          1           0       -0.568506   -1.323960    1.340461
      9          6           0        1.990942   -0.137605   -0.128810
     10          1           0        0.485975    1.686360    1.114058
     11          1           0        0.215147    0.945067   -0.537548
     12          1           0        2.763358   -0.640820    0.796015
     13          1           0        2.672524    0.358610   -0.638908
     14          1           0        1.895163   -1.001849   -1.056833
 ---------------------------------------------------------------------

 SCF Done:  E(RB2PLYPD3) =  -157.682548075     A.U. after   11 cycles
 E2(B2PLYPD3) =    -0.2550837743D+00 E(B2PLYPD3) =    -0.15793763184914D+03

 The electronic state is 1-A.
 Alpha  occ. eigenvalues --  -10.64987 -10.64608 -10.63888 -10.60837  -0.95832
 Alpha  occ. eigenvalues --   -0.83132  -0.74520  -0.69293  -0.53912  -0.51025
 Alpha  occ. eigenvalues --   -0.46598  -0.44088  -0.42455  -0.41073  -0.38560
 Alpha  occ. eigenvalues --   -0.35661  -0.34652
 Alpha virt. eigenvalues --    0.04019   0.05238   0.05858   0.06423   0.10374
 Alpha virt. eigenvalues --    0.10895   0.11645   0.12586   0.13358   0.14478
 Alpha virt. eigenvalues --    0.15320   0.16062   0.18235   0.19394   0.19665

 Mulliken charges:
               1
     1  C   -0.184576
     2  C   -0.459935
     3  H    0.070230
     4  H    0.028586
     5  H    0.081920
     6  C   -0.185516
     7  H    0.455983
     8  H   -0.004143
     9  C   -0.131465
    10  H   -0.022775
    11  H    0.226025
    12  H    0.048909
    13  H    0.067715
    14  H    0.009040
 Sum of Mulliken charges =   0.00000

 Dipole moment (field-independent basis, Debye):
    X=              0.2736    Y=             -0.0737    Z=             -1.0119  Tot=              1.0509
 Quadrupole moment (field-independent basis, Debye-Ang):
   XX=            -28.9448   YY=            -30.6959   ZZ=            -29.5444
   XY=              0.3960   XZ=             -0.1975   YZ=             -0.2334

 Normal termination of Gaussian 09 at Wed Aug 26 13:05:29 2020.
