 Gaussian 09, Revision D.01,
 Gaussian 09:  ES64L-G09RevD.01 24-Apr-2013

 --------------------
 #p B2PLYPD3/Def2QZVP
 --------------------

 ----------
 butane_opt
 ----------
 Symbolic Z-matrix:
 Charge =  0 Multiplicity = 1

                         Standard orientation:
 ---------------------------------------------------------------------
 Center     Atomic      Atomic             Coordinates (Angstroms)
 Number     Number       Type             X           Y           Z
 ---------------------------------------------------------------------
      1          6           0       -1.820124    0.075483   -0.165806
      2          6           0       -0.549214   -0.483322    0.097164
      3          1           0       -2.768457   -0.920145   -0.086709
      4          1           0       -1.858078    0.781040   -1.053152
      5          1           0       -2.160052    0.755109    0.805305
      6          6           0        0.489307    0.536772    0.252087
      7          1           0       -0.201819   -1.148155   -0.802551
      8          1           0       -0.673880   -1.220140    0.789532
      9          6           0        1.943152   -0.119843   -0.111132
     10          1           0        0.130481    1.324734    1.234793
     11          1           0        0.189030    1.270392   -0.698202
     12          1           0        2.514332   -1.131604    0.911308
     13          1           0        2.614127    0.688815   -0.676346
     14          1           0        1.835587   -0.454583   -0.857859
 ---------------------------------------------------------------------

 SCF Done:  E(RB2PLYPD3) =  -157.846998357     A.U. after   11 cycles
 E2(B2PLYPD3) =    -0.2555582526D+00 E(B2PLYPD3) =    -0.15810255660960D+03

 The electronic state is 1-A.
 Alpha  occ. eigenvalues --  -10.65584 -10.64076 -10.63703 -10.59920  -0.93589
 Alpha  occ. eigenvalues --   -0.84558  -0.72588  -0.66128  -0.53668  -0.49608
 Alpha  occ. eigenvalues --   -0.47790  -0.44242  -0.42476  -0.40535  -0.37092
 Alpha  occ. eigenvalues --   -0.36910  -0.34723
 Alpha virt. eigenvalues --    0.03555   0.04822   0.06781   0.06956   0.09700
 Alpha virt. eigenvalues --    0.10390   0.11250   0.12702   0.14000   0.15130
 Alpha virt. eigenvalues --    0.15549   0.16456   0.17401   0.19292   0.19766

 Mulliken charges:
               1
     1  C   -0.166382
     2  C    0.043717
     3  H    0.017690
     4  H    0.061618
     5  H    0.025832
     6  C   -0.057728
     7  H   -0.000198
     8  H    0.040176
     9  C   -0.346922
    10  H    0.032265
    11  H    0.013128
    12  H    0.039322
    13  H    0.037512
    14  H    0.259970
 Sum of Mulliken charges =   0.00000

 Dipole moment (field-independent basis, Debye):
    X=             -0.0405    Y=             -0.1504    Z=             -0.4626  Tot=              0.4881
 Quadrupole moment (field-independent basis, Debye-Ang):
   XX=            -32.6338   YY=            -29.5400   ZZ=            -28.8566
   XY=             -0.5974   XZ=             -1.7797   YZ=             -1.0320

 Normal termination of Gaussian 09 at Wed Aug 26 10:39:07 2020.
