 Gaussian 09, Revision D.01,
 Gaussian 09:  ES64L-G09RevD.01 24-Apr-2013

 --------------------
 #p B2PLYPD3/Def2QZVP
 --------------------

 ----------
 butane_opt
 ----------
 Symbolic Z-matrix:
 Charge =  0 Multiplicity = 1

                         Standard orientation:
 ---------------------------------------------------------------------
 Center     Atomic      Atomic             Coordinates (Angstroms)
 Number     Number       Type             X           Y           Z
 ---------------------------------------------------------------------
      1          6           0       -1.872984   -0.089467   -0.116700
      2          6           0       -0.585771    0.415951    0.111461
      3          1           0       -2.790476    0.824956   -0.160885
      4          1           0       -1.964559   -0.737320    0.722334
      5          1           0       -1.937129   -0.535127   -0.896144
      6          6           0        0.513996   -0.566806    0.190155
      7          1           0       -0.915451    0.911872    0.833562
      8          1           0       -0.397092    1.099729   -0.850254
      9          6           0        1.993184    0.175024   -0.116438
     10          1           0        0.384734   -1.133264   -0.638271
     11          1           0        0.293610   -1.046204    1.060537
     12          1           0        1.473710    0.464083   -0.814275
     13          1           0        2.926008   -0.595251   -0.677467
     14          1           0        2.636096    1.138314    1.009992
 ---------------------------------------------------------------------

 SCF Done:  E(RB2PLYPD3) =  -157.824598467     A.U. after   11 cycles
 E2(B2PLYPD3) =    -0.2531600620D+00 E(B2PLYPD3) =    -0.15807775852914D+03

 The electronic state is 1-A.
 Alpha  occ. eigenvalues --  -10.65695 -10.61093 -10.59015 -10.58520  -0.96175
 Alpha  occ. eigenvalues --   -0.85694  -0.73429  -0.69051  -0.58564  -0.51038
 Alpha  occ. eigenvalues --   -0.49718  -0.47140  -0.41404  -0.40183  -0.38174
 Alpha  occ. eigenvalues --   -0.36637  -0.34995
 Alpha virt. eigenvalues --    0.02765   0.05350   0.07777   0.08171   0.09618
 Alpha virt. eigenvalues --    0.10151   0.11897   0.12981   0.14449   0.15653
 Alpha virt. eigenvalues --    0.16317   0.16631   0.17857   0.18930   0.21125

 Mulliken charges:
               1
     1  C   -0.167890
     2  C   -0.036188
     3  H    0.022159
     4  H    0.041547
     5  H    0.071981
     6  C   -0.081910
     7  H    0.062303
     8  H   -0.013317
     9  C   -0.260714
    10  H    0.072987
    11  H    0.053448
    12  H    0.163701
    13  H    0.035912
    14  H    0.035979
 Sum of Mulliken charges =   0.00000

 Dipole moment (field-independent basis, Debye):
    X=             -0.6227    Y=             -0.4335    Z=             -0.2131  Tot=              0.7881
 Quadrupole moment (field-independent basis, Debye-Ang):
   XX=            -31.3570   YY=            -30.1110   ZZ=            -27.9482
   XY=             -0.7199   XZ=             -0.4416   YZ=              0.7914

 Normal termination of Gaussian 09 at Wed Aug 26 22:55:56 2020.
