 Gaussian 09, Revision D.01,
 Gaussian 09:  ES64L-G09RevD.01 24-Apr-2013

 --------------------
 #p B2PLYPD3/Def2QZVP
 --------------------

 ----------
 butane_opt
 ----------
 Symbolic Z-matrix:
 Charge =  0 Multiplicity = 1

                         Standard orientation:
 ---------------------------------------------------------------------
 Center     Atomic      Atomic             Coordinates (Angstroms)
 Number     Number       Type             X           Y           Z
 ---------------------------------------------------------------------
      1          6           0        1.937021   -0.146624    0.045308
      2          6           0        0.488336    0.562462   -0.023060
      3          1           0        2.693332    0.576698   -0.084269
      4          1           0        2.180680   -0.499438   -0.745864
      5          1           0        2.257782   -1.000440    0.988652
      6          6           0       -0.574714   -0.494470   -0.044233
      7          1           0        0.468882    1.440979   -1.008541
      8          1           0        0.383900    1.049985    0.794519
      9          6           0       -1.916655    0.100290    0.016756
     10          1           0       -0.484949   -1.180569    0.844003
     11          1           0       -0.347746   -1.110457   -0.992630
     12          1           0       -2.207054    0.968940    1.122686
     13          1           0       -2.811714   -0.695593   -0.345394
     14          1           0       -1.737037    0.319945   -0.541792
 ---------------------------------------------------------------------

 SCF Done:  E(RB2PLYPD3) =  -157.533568836     A.U. after   11 cycles
 E2(B2PLYPD3) =    -0.2514999951D+00 E(B2PLYPD3) =    -0.15778506883105D+03

 The electronic state is 1-A.
 Alpha  occ. eigenvalues --  -10.62371 -10.61705 -10.60129 -10.59952  -0.96524
 Alpha  occ. eigenvalues --   -0.86553  -0.76549  -0.66980  -0.55022  -0.49034
 Alpha  occ. eigenvalues --   -0.47695  -0.46901  -0.41894  -0.40878  -0.39492
 Alpha  occ. eigenvalues --   -0.36997  -0.35969
 Alpha virt. eigenvalues --    0.05147   0.05896   0.06654   0.07538   0.10325
 Alpha virt. eigenvalues --    0.11520   0.12257   0.12802   0.14245   0.15478
 Alpha virt. eigenvalues --    0.15802   0.16644   0.18258   0.19849   0.21763

 Mulliken charges:
               1
     1  C   -0.171936
     2  C   -0.069603
     3  H    0.031924
     4  H    0.078878
     5  H    0.036008
     6  C    0.009408
     7  H   -0.000403
     8  H    0.085986
     9  C   -0.850144
    10  H    0.036480
    11  H    0.030936
    12  H    0.047456
    13  H    0.068742
    14  H    0.666268
 Sum of Mulliken charges =   0.00000

 Dipole moment (field-independent basis, Debye):
    X=              0.3884    Y=              0.0297    Z=             -0.3276  Tot=              0.5090
 Quadrupole moment (field-independent basis, Debye-Ang):
   XX=            -30.1478   YY=            -29.2686   ZZ=            -27.8730
   XY=              0.1658   XZ=             -0.6812   YZ=              0.3252

 Normal termination of Gaussian 09 at Wed Aug 26 19:28:57 2020.
