 Gaussian 09, Revision D.01,
 Gaussian 09:  ES64L-G09RevD.01 24-Apr-2013

 --------------------
 #p B2PLYPD3/Def2QZVP
 --------------------

 ----------
 butane_opt
 ----------
 Symbolic Z-matrix:
 Charge =  0 Multiplicity = 1

                         Standard orientation:
 ---------------------------------------------------------------------
 Center     Atomic      Atomic             Coordinates (Angstroms)
 Number     Number       Type             X           Y           Z
 ---------------------------------------------------------------------
      1          6           0        1.964536   -0.132286   -0.183361
      2          6           0        0.579646    0.528942    0.233008
      3          1           0        2.829667    0.734654   -0.398411
      4          1           0        1.796810   -0.921870   -1.119394
      5          1           0        2.462694   -0.567989    0.611099
      6          6           0       -0.562867   -0.575268    0.098041
      7          1           0        0.284317    1.055144   -0.411629
      8          1           0        0.576470    1.382014    1.211552
      9          6           0       -1.990296    0.067822   -0.110299
     10          1           0       -0.362558   -1.320416    1.115044
     11          1           0       -0.304411   -0.785094   -0.506075
     12          1           0       -2.265062    0.441730    0.487160
     13          1           0       -2.702217   -0.480795   -0.058531
     14          1           0       -2.261824    1.127359   -1.155147
 ---------------------------------------------------------------------

 SCF Done:  E(RB2PLYPD3) =  -157.514612065     A.U. after   11 cycles
 E2(B2PLYPD3) =    -0.2502546614D+00 E(B2PLYPD3) =    -0.15776486672660D+03

 The electronic state is 1-A.
 Alpha  occ. eigenvalues --  -10.63199 -10.60920 -10.60314 -10.58606  -0.94335
 Alpha  occ. eigenvalues --   -0.86793  -0.78716  -0.70434  -0.53789  -0.50486
 Alpha  occ. eigenvalues --   -0.49262  -0.46308  -0.43057  -0.41570  -0.38716
 Alpha  occ. eigenvalues --   -0.37828  -0.35434
 Alpha virt. eigenvalues --    0.04410   0.05573   0.07275   0.08223   0.10855
 Alpha virt. eigenvalues --    0.11200   0.12185   0.13746   0.14604   0.15087
 Alpha virt. eigenvalues --    0.15696   0.16273   0.18305   0.19652   0.21638

 Mulliken charges:
               1
     1  C   -0.152694
     2  C   -0.135593
     3  H    0.026964
     4  H    0.045353
     5  H    0.061936
     6  C   -0.609987
     7  H    0.155215
     8  H    0.007488
     9  C   -0.351365
    10  H    0.054254
    11  H    0.556208
    12  H    0.280064
    13  H    0.061972
    14  H    0.000186
 Sum of Mulliken charges =   0.00000

 Dipole moment (field-independent basis, Debye):
    X=             -0.1571    Y=             -0.1565    Z=              0.3625  Tot=              0.4249
 Quadrupole moment (field-independent basis, Debye-Ang):
   XX=            -28.0242   YY=            -29.1298   ZZ=            -28.9217
   XY=             -0.1748   XZ=             -0.7364   YZ=             -0.0990

 Normal termination of Gaussian 09 at Wed Aug 26 13:59:28 2020.
