 Gaussian 09, Revision D.01,
 Gaussian 09:  ES64L-G09RevD.01 24-Apr-2013

 --------------------
 #p B2PLYPD3/Def2QZVP
 --------------------

 ----------
 butane_opt
 ----------
 Symbolic Z-matrix:
 Charge =  0 Multiplicity = 1

                         Standard orientation:
 ---------------------------------------------------------------------
 Center     Atomic      Atomic             Coordinates (Angstroms)
 Number     Number       Type             X           Y           Z
 ---------------------------------------------------------------------
      1          6           0       -1.989615   -0.177449    0.184926
      2          6           0       -0.587803    0.622007   -0.278302
      3          1           0       -2.825986    0.530989    1.080225
      4          1           0       -1.734801   -0.801490    1.017050
      5          1           0       -2.959990   -0.887014   -0.859830
      6          6           0        0.591061   -0.446722   -0.247811
      7          1           0       -0.120694    1.085906    0.652929
      8          1           0       -0.673659    1.433997   -1.207054
      9          6           0        2.033111    0.050885    0.171821
     10          1           0        0.626855   -0.987771   -1.236779
     11          1           0        0.236295   -1.249490    0.603464
     12          1           0        2.096693    0.653118   -0.387289
     13          1           0        2.949963   -0.829434    0.139872
     14          1           0        2.124795    0.758859    1.213602
 ---------------------------------------------------------------------

 SCF Done:  E(RB2PLYPD3) =  -157.826671301     A.U. after   11 cycles
 E2(B2PLYPD3) =    -0.2577468727D+00 E(B2PLYPD3) =    -0.15808441817340D+03

 The electronic state is 1-A.
 Alpha  occ. eigenvalues --  -10.68332 -10.65881 -10.64093 -10.61562  -0.90039
 Alpha  occ. eigenvalues --   -0.81739  -0.71557  -0.65211  -0.52633  -0.49842
 Alpha  occ. eigenvalues --   -0.45585  -0.42743  -0.41934  -0.39518  -0.38814
 Alpha  occ. eigenvalues --   -0.36128  -0.34097
 Alpha virt. eigenvalues --    0.02691   0.04995   0.07041   0.07611   0.08290
 Alpha virt. eigenvalues --    0.09880   0.11353   0.12578   0.13504   0.14735
 Alpha virt. eigenvalues --    0.15667   0.15944   0.17931   0.18681   0.19368

 Mulliken charges:
               1
     1  C   -0.192792
     2  C   -0.077292
     3  H    0.012084
     4  H    0.088421
     5  H    0.037635
     6  C   -0.019391
     7  H    0.055060
     8  H    0.052052
     9  C   -0.341927
    10  H    0.038293
    11  H    0.022549
    12  H    0.243460
    13  H    0.060345
    14  H    0.021503
 Sum of Mulliken charges =   0.00000

 Dipole moment (field-independent basis, Debye):
    X=              0.7710    Y=              0.0855    Z=             -0.0186  Tot=              0.7760
 Quadrupole moment (field-independent basis, Debye-Ang):
   XX=            -31.8622   YY=            -30.3022   ZZ=            -28.8345
   XY=              0.6765   XZ=             -0.3887   YZ=             -0.4446

 Normal termination of Gaussian 09 at Wed Aug 26 22:08:00 2020.
