 Gaussian 09, Revision D.01,
 Gaussian 09:  ES64L-G09RevD.01 24-Apr-2013

 --------------------
 #p B2PLYPD3/Def2QZVP
 --------------------

 ----------
 butane_opt
 ----------
 Symbolic Z-matrix:
 Charge =  0 Multiplicity = 1

                         Standard orientation:
 ---------------------------------------------------------------------
 Center     Atomic      Atomic             Coordinates (Angstroms)
 Number     Number       Type             X           Y           Z
 ---------------------------------------------------------------------
      1          6           0        2.043312   -0.131077    0.039177
      2          6           0        0.541935    0.532657    0.025902
      3          1           0        2.720728    0.596900   -0.361714
      4          1           0        1.854318   -0.444054   -0.709416
      5          1           0        2.372206   -1.064796    1.055682
      6          6           0       -0.613285   -0.504196   -0.121502
      7          1           0        0.414383    1.353582   -0.939478
      8          1           0        0.400394    1.123530    0.970586
      9          6           0       -1.961887    0.096364    0.074020
     10          1           0       -0.405982   -1.156477    0.694005
     11          1           0       -0.501107   -1.150646   -1.043470
     12          1           0       -2.152635    0.807280    1.007595
     13          1           0       -2.756427   -0.672571   -0.026464
     14          1           0       -2.006332    0.644762   -0.752915
 ---------------------------------------------------------------------

 SCF Done:  E(RB2PLYPD3) =  -157.941841121     A.U. after   11 cycles
 E2(B2PLYPD3) =    -0.2503693767D+00 E(B2PLYPD3) =    -0.15819221049771D+03

 The electronic state is 1-A.
 Alpha  occ. eigenvalues --  -10.63809 -10.60849 -10.60381 -10.59844  -0.91206
 Alpha  occ. eigenvalues --   -0.85071  -0.73600  -0.65489  -0.53349  -0.48931
 Alpha  occ. eigenvalues --   -0.48617  -0.46357  -0.43046  -0.40585  -0.38622
 Alpha  occ. eigenvalues --   -0.37010  -0.36014
 Alpha virt. eigenvalues --    0.05330   0.05947   0.07599   0.08086   0.10462
 Alpha virt. eigenvalues --    0.11563   0.12483   0.12956   0.14357   0.15383
 Alpha virt. eigenvalues --    0.16116   0.16257   0.18676   0.19536   0.20549

 Mulliken charges:
               1
     1  C   -0.359542
     2  C   -0.052805
     3  H    0.060069
     4  H    0.240037
     5  H    0.055640
     6  C   -0.031510
     7  H   -0.006287
     8  H    0.040983
     9  C   -0.157724
    10  H    0.037165
    11  H    0.025171
    12  H    0.041574
    13  H    0.043495
    14  H    0.063733
 Sum of Mulliken charges =   0.00000

 Dipole moment (field-independent basis, Debye):
    X=             -0.1889    Y=             -0.1896    Z=             -0.3051  Tot=              0.4058
 Quadrupole moment (field-independent basis, Debye-Ang):
   XX=            -30.1949   YY=            -29.3425   ZZ=            -28.0656
   XY=              0.0818   XZ=             -0.3879   YZ=             -0.2654

 Normal termination of Gaussian 09 at Wed Aug 26 20:17:03 2020.
