 Gaussian 09, Revision D.01,
 Gaussian 09:  ES64L-G09RevD.01 24-Apr-2013

 --------------------
 #p B2PLYPD3/Def2QZVP
 --------------------

 ----------
 butane_opt
 ----------
 Symbolic Z-matrix:
 Charge =  0 Multiplicity = 1

                         Standard orientation:
 ---------------------------------------------------------------------
 Center     Atomic      Atomic             Coordinates (Angstroms)
 Number     Number       Type             X           Y           Z
 ---------------------------------------------------------------------
      1          6           0        1.928586   -0.084064   -0.185038
      2          6           0        0.634929    0.456044    0.241723
      3          1           0        2.738778    0.813479   -0.576593
      4          1           0        1.750297   -0.421267   -0.977878
      5          1           0        2.443998   -0.855069    0.636607
      6          6           0       -0.491203   -0.629285    0.111615
      7          1           0        0.473610    0.961490   -0.386450
      8          1           0        0.311570    1.617899    1.498064
      9          6           0       -2.004302    0.124944   -0.126827
     10          1           0       -0.453207   -1.539719    0.966586
     11          1           0       -0.375054   -0.945309   -0.667014
     12          1           0       -2.392850    0.378011    0.643768
     13          1           0       -2.687554   -0.245376   -0.276751
     14          1           0       -2.217653    1.030023   -1.109177
 ---------------------------------------------------------------------

 SCF Done:  E(RB2PLYPD3) =  -157.588129779     A.U. after   12 cycles
 E2(B2PLYPD3) =    -0.2524114399D+00 E(B2PLYPD3) =    -0.15784054121883D+03

 The electronic state is 1-A.
 Alpha  occ. eigenvalues --  -10.62982 -10.62774 -10.62000 -10.58069  -0.94892
 Alpha  occ. eigenvalues --   -0.87933  -0.79364  -0.70735  -0.55142  -0.51078
 Alpha  occ. eigenvalues --   -0.48785  -0.46557  -0.44438  -0.41360  -0.38575
 Alpha  occ. eigenvalues --   -0.37917  -0.32863
 Alpha virt. eigenvalues --    0.02560   0.05581   0.05694   0.07905   0.10428
 Alpha virt. eigenvalues --    0.11008   0.11650   0.13324   0.14281   0.15598
 Alpha virt. eigenvalues --    0.15891   0.16925   0.18153   0.18675   0.20550

 Mulliken charges:
               1
     1  C   -0.225788
     2  C   -0.226968
     3  H    0.032715
     4  H    0.143143
     5  H    0.053679
     6  C   -0.212353
     7  H    0.270200
     8  H   -0.053890
     9  C   -0.335851
    10  H    0.039010
    11  H    0.217218
    12  H    0.069700
    13  H    0.223570
    14  H    0.005617
 Sum of Mulliken charges =   0.00000

 Dipole moment (field-independent basis, Debye):
    X=             -0.2850    Y=             -0.9595    Z=             -1.0633  Tot=              1.4603
 Quadrupole moment (field-independent basis, Debye-Ang):
   XX=            -27.8977   YY=            -30.0816   ZZ=            -29.0731
   XY=             -0.0879   XZ=             -1.3611   YZ=             -1.6410

 Normal termination of Gaussian 09 at Wed Aug 26 21:46:14 2020.
