 Gaussian 09, Revision D.01,
 Gaussian 09:  ES64L-G09RevD.01 24-Apr-2013

 --------------------
 #p B2PLYPD3/Def2QZVP
 --------------------

 ----------
 butane_opt
 ----------
 Symbolic Z-matrix:
 Charge =  0 Multiplicity = 1

                         Standard orientation:
 ---------------------------------------------------------------------
 Center     Atomic      Atomic             Coordinates (Angstroms)
 Number     Number       Type             X           Y           Z
 ---------------------------------------------------------------------
      1          6           0        2.025804   -0.166677   -0.125572
      2          6           0        0.531533    0.635609    0.023853
      3          1           0        2.666824    0.319436   -0.108985
      4          1           0        2.180330   -0.898169   -0.856192
      5          1           0        2.417818   -0.624784    0.826776
      6          6           0       -0.548924   -0.441338    0.255883
      7          1           0        0.133628    1.040212   -0.792983
      8          1           0        0.577308    1.403191    0.891336
      9          6           0       -1.982230   -0.010610   -0.107705
     10          1           0       -0.880497   -0.868987    1.075078
     11          1           0       -0.439952   -1.226248   -0.445410
     12          1           0       -2.375800    0.913892    0.702419
     13          1           0       -2.617443   -0.829132   -0.405381
     14          1           0       -1.819306    0.668690   -1.165410
 ---------------------------------------------------------------------

 SCF Done:  E(RB2PLYPD3) =  -157.922659323     A.U. after   11 cycles
 E2(B2PLYPD3) =    -0.2492422315D+00 E(B2PLYPD3) =    -0.15817190155451D+03

 The electronic state is 1-A.
 Alpha  occ. eigenvalues --  -10.63314 -10.62535 -10.58879 -10.57679  -0.91018
 Alpha  occ. eigenvalues --   -0.84738  -0.75603  -0.66883  -0.54428  -0.50325
 Alpha  occ. eigenvalues --   -0.49801  -0.47095  -0.42150  -0.40799  -0.39207
 Alpha  occ. eigenvalues --   -0.36591  -0.35961
 Alpha virt. eigenvalues --    0.05447   0.06449   0.08250   0.09473   0.10586
 Alpha virt. eigenvalues --    0.11839   0.11971   0.14046   0.14199   0.15581
 Alpha virt. eigenvalues --    0.15700   0.16989   0.19046   0.20454   0.21387

 Mulliken charges:
               1
     1  C   -0.290851
     2  C   -0.080180
     3  H    0.203496
     4  H    0.049547
     5  H    0.018658
     6  C   -0.028835
     7  H    0.087969
     8  H    0.034494
     9  C   -0.179418
    10  H    0.055287
    11  H    0.031037
    12  H    0.033989
    13  H    0.074356
    14  H   -0.009549
 Sum of Mulliken charges =   0.00000

 Dipole moment (field-independent basis, Debye):
    X=              0.3867    Y=             -0.2146    Z=              0.0198  Tot=              0.4427
 Quadrupole moment (field-independent basis, Debye-Ang):
   XX=            -28.8887   YY=            -28.6010   ZZ=            -28.8088
   XY=              1.0832   XZ=             -0.0789   YZ=              1.0132

 Normal termination of Gaussian 09 at Wed Aug 26 11:34:51 2020.
