 Gaussian 09, Revision D.01,
 Gaussian 09:  ES64L-G09RevD.01 24-Apr-2013

 --------------------
 #p B2PLYPD3/Def2QZVP
 --------------------

 ----------
 butane_opt
 ----------
 Symbolic Z-matrix:
 Charge =  0 Multiplicity = 1

                         Standard orientation:
 ---------------------------------------------------------------------
 Center     Atomic      Atomic             Coordinates (Angstroms)
 Number     Number       Type             X           Y           Z
 ---------------------------------------------------------------------
      1          6           0        1.902382   -0.077057   -0.015063
      2          6           0        0.530736    0.417586   -0.117404
      3          1           0        2.723610    0.807849    0.078294
      4          1           0        2.206263   -0.736259   -0.689344
      5          1           0        1.973586   -0.898665    1.056606
      6          6           0       -0.505989   -0.519685   -0.005664
      7          1           0        0.241940    1.276289   -1.026226
      8          1           0        0.540405    1.270716    0.829357
      9          6           0       -1.849904    0.131944    0.053507
     10          1           0       -0.474148   -1.266317    1.021224
     11          1           0       -0.605360   -1.033008   -0.708808
     12          1           0       -2.312041    1.151549    1.091613
     13          1           0       -2.746203   -0.672811   -0.572834
     14          1           0       -2.011402    0.383931   -0.572135
 ---------------------------------------------------------------------

 SCF Done:  E(RB2PLYPD3) =  -157.615525573     A.U. after   12 cycles
 E2(B2PLYPD3) =    -0.2551525094D+00 E(B2PLYPD3) =    -0.15787067808248D+03

 The electronic state is 1-A.
 Alpha  occ. eigenvalues --  -10.63978 -10.62841 -10.62094 -10.60407  -0.96046
 Alpha  occ. eigenvalues --   -0.86801  -0.76971  -0.67172  -0.55254  -0.52424
 Alpha  occ. eigenvalues --   -0.51126  -0.44734  -0.40356  -0.39560  -0.38712
 Alpha  occ. eigenvalues --   -0.35417  -0.34123
 Alpha virt. eigenvalues --    0.02959   0.04930   0.06137   0.06956   0.09314
 Alpha virt. eigenvalues --    0.10440   0.11609   0.12294   0.13698   0.14909
 Alpha virt. eigenvalues --    0.15784   0.16195   0.18624   0.19499   0.20663

 Mulliken charges:
               1
     1  C   -0.164142
     2  C    0.016031
     3  H    0.054596
     4  H    0.062194
     5  H    0.015786
     6  C   -0.084463
     7  H    0.009379
     8  H    0.015706
     9  C   -0.631313
    10  H    0.029761
    11  H    0.131094
    12  H    0.050269
    13  H   -0.011352
    14  H    0.506452
 Sum of Mulliken charges =   0.00000

 Dipole moment (field-independent basis, Debye):
    X=              0.3836    Y=              0.1338    Z=             -0.9112  Tot=              0.9977
 Quadrupole moment (field-independent basis, Debye-Ang):
   XX=            -31.7134   YY=            -29.2887   ZZ=            -29.0754
   XY=             -0.6307   XZ=              1.0100   YZ=              0.8023

 Normal termination of Gaussian 09 at Wed Aug 26 23:39:37 2020.
