 Gaussian 09, Revision D.01,
 Gaussian 09:  ES64L-G09RevD.01 24-Apr-2013

 --------------------
 #p B2PLYPD3/Def2QZVP
 --------------------

 ----------
 butane_opt
 ----------
 Symbolic Z-matrix:
 Charge =  0 Multiplicity = 1

                         Standard orientation:
 ---------------------------------------------------------------------
 Center     Atomic      Atomic             Coordinates (Angstroms)
 Number     Number       Type             X           Y           Z
 ---------------------------------------------------------------------
      1          6           0        1.936196    0.051726   -0.100786
      2          6           0        0.671463   -0.481511    0.176558
      3          1           0        2.687573   -0.564823   -0.309570
      4          1           0        2.079460    0.542839    0.681667
      5          1           0        1.858078    0.690770   -1.096275
      6          6           0       -0.514732    0.657880    0.106190
      7          1           0        0.838113   -1.016992    1.009824
      8          1           0        0.376715   -1.270920   -0.704137
      9          6           0       -2.063245   -0.190168   -0.115027
     10          1           0       -0.275081    1.014793   -0.766255
     11          1           0       -0.516294    1.599448    1.101649
     12          1           0       -2.003196   -0.714669   -0.777972
     13          1           0       -2.758205    0.428890   -0.567096
     14          1           0       -2.465252   -0.936902    1.026557
 ---------------------------------------------------------------------

 SCF Done:  E(RB2PLYPD3) =  -157.875443879     A.U. after   11 cycles
 E2(B2PLYPD3) =    -0.2500894221D+00 E(B2PLYPD3) =    -0.15812553330155D+03

 The electronic state is 1-A.
 Alpha  occ. eigenvalues --  -10.64777 -10.61168 -10.60773 -10.57048  -0.92592
 Alpha  occ. eigenvalues --   -0.84081  -0.75057  -0.67340  -0.55436  -0.51763
 Alpha  occ. eigenvalues --   -0.47746  -0.46741  -0.42130  -0.40765  -0.38659
 Alpha  occ. eigenvalues --   -0.36288  -0.35837
 Alpha virt. eigenvalues --    0.05095   0.06385   0.07082   0.08821   0.10328
 Alpha virt. eigenvalues --    0.11516   0.12064   0.12705   0.14235   0.15538
 Alpha virt. eigenvalues --    0.15980   0.17332   0.18385   0.18816   0.20363

 Mulliken charges:
               1
     1  C   -0.132599
     2  C   -0.022930
     3  H    0.044055
     4  H    0.076403
     5  H    0.006424
     6  C   -0.141977
     7  H    0.050953
     8  H   -0.003262
     9  C   -0.270228
    10  H    0.114028
    11  H    0.022068
    12  H    0.172706
    13  H    0.051574
    14  H    0.032785
 Sum of Mulliken charges =   0.00000

 Dipole moment (field-independent basis, Debye):
    X=              0.4140    Y=             -0.1746    Z=             -0.3653  Tot=              0.5791
 Quadrupole moment (field-independent basis, Debye-Ang):
   XX=            -29.5390   YY=            -29.5990   ZZ=            -27.6237
   XY=             -0.6429   XZ=              1.7107   YZ=             -0.0881

 Normal termination of Gaussian 09 at Wed Aug 26 10:05:24 2020.
