 Gaussian 09, Revision D.01,
 Gaussian 09:  ES64L-G09RevD.01 24-Apr-2013

 --------------------
 #p B2PLYPD3/Def2QZVP
 --------------------

 ----------
 butane_opt
 ----------
 Symbolic Z-matrix:
 Charge =  0 Multiplicity = 1

                         Standard orientation:
 ---------------------------------------------------------------------
 Center     Atomic      Atomic             Coordinates (Angstroms)
 Number     Number       Type             X           Y           Z
 ---------------------------------------------------------------------
      1          6           0       -1.978027   -0.097268    0.088079
      2          6           0       -0.654931    0.457264   -0.197445
      3          1           0       -2.933871    0.954511    0.038701
      4          1           0       -1.936557   -0.833426    1.260877
      5          1           0       -1.920954   -0.479657   -0.459584
      6          6           0        0.550521   -0.623770   -0.041205
      7          1           0       -0.586313    1.069960    0.542025
      8          1           0       -0.575504    1.077116   -1.344538
      9          6           0        2.009836    0.160104    0.077674
     10          1           0        0.484449   -1.251716   -0.795347
     11          1           0        0.259367   -1.214923    0.972344
     12          1           0        2.075580    0.388547   -0.447186
     13          1           0        2.847887   -0.645270   -0.609537
     14          1           0        2.721529    1.556886    1.279628
 ---------------------------------------------------------------------

 SCF Done:  E(RB2PLYPD3) =  -156.922177286     A.U. after   13 cycles
 E2(B2PLYPD3) =    -0.2620690878D+00 E(B2PLYPD3) =    -0.15718424637345D+03

 The electronic state is 1-A.
 Alpha  occ. eigenvalues --  -10.66492 -10.64475 -10.61822 -10.61643  -0.94997
 Alpha  occ. eigenvalues --   -0.90641  -0.78377  -0.69917  -0.53957  -0.50385
 Alpha  occ. eigenvalues --   -0.47793  -0.44018  -0.40912  -0.39582  -0.38368
 Alpha  occ. eigenvalues --   -0.35325  -0.34438
 Alpha virt. eigenvalues --   -0.04641   0.04366   0.05267   0.06285   0.09242
 Alpha virt. eigenvalues --    0.09776   0.10785   0.12333   0.13960   0.15142
 Alpha virt. eigenvalues --    0.15326   0.15775   0.17583   0.18423   0.19656

 Mulliken charges:
               1
     1  C   -0.692157
     2  C   -0.050946
     3  H    0.046618
     4  H    0.042491
     5  H    0.547089
     6  C   -0.023900
     7  H    0.101378
     8  H    0.006562
     9  C   -0.879225
    10  H    0.083909
    11  H    0.032980
    12  H    0.730414
    13  H    0.020584
    14  H    0.034202
 Sum of Mulliken charges =   0.00000

 Dipole moment (field-independent basis, Debye):
    X=             -0.3006    Y=             -0.0045    Z=             -0.8176  Tot=              0.8711
 Quadrupole moment (field-independent basis, Debye-Ang):
   XX=            -33.3437   YY=            -28.9268   ZZ=            -28.3476
   XY=              0.4104   XZ=             -1.4692   YZ=              0.9115

 Normal termination of Gaussian 09 at Wed Aug 26 11:29:13 2020.
