 Gaussian 09, Revision D.01,
 Gaussian 09:  ES64L-G09RevD.01 24-Apr-2013

 --------------------
 #p B2PLYPD3/Def2QZVP
 --------------------

 ----------
 butane_opt
 ----------
 Symbolic Z-matrix:
 Charge =  0 Multiplicity = 1

                         Standard orientation:
 ---------------------------------------------------------------------
 Center     Atomic      Atomic             Coordinates (Angstroms)
 Number     Number       Type             X           Y           Z
 ---------------------------------------------------------------------
      1          6           0       -1.958974    0.033436    0.097700
      2          6           0       -0.570526   -0.517543   -0.045808
      3          1           0       -2.596548   -0.445842   -0.447722
      4          1           0       -1.922891    0.544168   -0.702274
      5          1           0       -2.376056    1.129715    1.119108
      6          6           0        0.611658    0.526122   -0.180482
      7          1           0       -0.733544   -1.153474   -0.901064
      8          1           0       -0.479709   -1.340100    0.936549
      9          6           0        1.998898   -0.108631    0.077419
     10          1           0        0.176013    1.222834    0.728845
     11          1           0        0.425655    1.356932   -1.033684
     12          1           0        1.808526   -0.702066    0.900023
     13          1           0        2.696571    0.490676    0.443736
     14          1           0        2.515647   -0.703144   -0.736493
 ---------------------------------------------------------------------

 SCF Done:  E(RB2PLYPD3) =  -157.917486084     A.U. after   11 cycles
 E2(B2PLYPD3) =    -0.2530914374D+00 E(B2PLYPD3) =    -0.15817057752109D+03

 The electronic state is 1-A.
 Alpha  occ. eigenvalues --  -10.64449 -10.63557 -10.60545 -10.59403  -0.92062
 Alpha  occ. eigenvalues --   -0.85754  -0.74595  -0.65840  -0.52345  -0.51140
 Alpha  occ. eigenvalues --   -0.48266  -0.46604  -0.42018  -0.40768  -0.38397
 Alpha  occ. eigenvalues --   -0.35460  -0.35145
 Alpha virt. eigenvalues --    0.04205   0.06213   0.07305   0.07478   0.09516
 Alpha virt. eigenvalues --    0.11469   0.12072   0.13952   0.14180   0.14863
 Alpha virt. eigenvalues --    0.15771   0.16585   0.18542   0.19978   0.20347

 Mulliken charges:
               1
     1  C   -0.227908
     2  C   -0.002483
     3  H    0.070723
     4  H    0.103045
     5  H    0.018186
     6  C   -0.066119
     7  H    0.035427
     8  H    0.002447
     9  C   -0.128403
    10  H    0.018533
    11  H    0.026941
    12  H    0.061254
    13  H    0.047575
    14  H    0.040781
 Sum of Mulliken charges =   0.00000

 Dipole moment (field-independent basis, Debye):
    X=              0.2631    Y=              0.0451    Z=             -0.7270  Tot=              0.7745
 Quadrupole moment (field-independent basis, Debye-Ang):
   XX=            -29.2794   YY=            -29.7143   ZZ=            -28.7861
   XY=             -0.1529   XZ=              2.0378   YZ=              0.5229

 Normal termination of Gaussian 09 at Wed Aug 26 23:05:51 2020.
