 Gaussian 09, Revision D.01,
 Gaussian 09:  ES64L-G09RevD.01 24-Apr-2013

 --------------------
 #p B2PLYPD3/Def2QZVP
 --------------------

 ----------
 butane_opt
 ----------
 Symbolic Z-matrix:
 Charge =  0 Multiplicity = 1

                         Standard orientation:
 ---------------------------------------------------------------------
 Center     Atomic      Atomic             Coordinates (Angstroms)
 Number     Number       Type             X           Y           Z
 ---------------------------------------------------------------------
      1          6           0       -1.898015    0.103531    0.066770
      2          6           0       -0.657558   -0.445254   -0.094871
      3          1           0       -2.800001   -0.945494    0.556066
      4          1           0       -2.364336    1.122836   -1.120034
      5          1           0       -1.747152    0.433968    0.823916
      6          6           0        0.499017    0.575052   -0.065714
      7          1           0       -0.789808   -1.134664   -0.931365
      8          1           0       -0.465344   -1.101802    0.820923
      9          6           0        2.035293   -0.210274   -0.040481
     10          1           0        0.567353    1.438617    1.205906
     11          1           0        0.476597    0.981399   -0.799362
     12          1           0        2.216965   -0.749815    0.793507
     13          1           0        2.859210    0.586970    0.279962
     14          1           0        2.174089   -0.770348   -0.823747
 ---------------------------------------------------------------------

 SCF Done:  E(RB2PLYPD3) =  -157.722168752     A.U. after   12 cycles
 E2(B2PLYPD3) =    -0.2551337387D+00 E(B2PLYPD3) =    -0.15797730249112D+03

 The electronic state is 1-A.
 Alpha  occ. eigenvalues --  -10.64146 -10.63735 -10.61355 -10.60459  -0.95326
 Alpha  occ. eigenvalues --   -0.84769  -0.75935  -0.67787  -0.56238  -0.51630
 Alpha  occ. eigenvalues --   -0.48721  -0.44540  -0.43229  -0.40965  -0.37123
 Alpha  occ. eigenvalues --   -0.35942  -0.33723
 Alpha virt. eigenvalues --    0.02139   0.03693   0.05592   0.06875   0.09801
 Alpha virt. eigenvalues --    0.10414   0.11568   0.12471   0.13599   0.14635
 Alpha virt. eigenvalues --    0.15085   0.16172   0.17932   0.19281   0.20265

 Mulliken charges:
               1
     1  C   -0.284050
     2  C   -0.018996
     3  H    0.004669
     4  H    0.004419
     5  H    0.214161
     6  C   -0.218977
     7  H    0.045017
     8  H    0.042543
     9  C   -0.145438
    10  H   -0.005631
    11  H    0.208558
    12  H    0.044068
    13  H    0.033582
    14  H    0.076076
 Sum of Mulliken charges =   0.00000

 Dipole moment (field-independent basis, Debye):
    X=              0.8400    Y=             -0.4943    Z=              0.1500  Tot=              0.9861
 Quadrupole moment (field-independent basis, Debye-Ang):
   XX=            -32.6731   YY=            -29.9379   ZZ=            -28.0706
   XY=              0.1633   XZ=              0.1259   YZ=             -0.2545

 Normal termination of Gaussian 09 at Wed Aug 26 15:32:29 2020.
