 Gaussian 09, Revision D.01,
 Gaussian 09:  ES64L-G09RevD.01 24-Apr-2013

 --------------------
 #p B2PLYPD3/Def2QZVP
 --------------------

 ----------
 butane_opt
 ----------
 Symbolic Z-matrix:
 Charge =  0 Multiplicity = 1

                         Standard orientation:
 ---------------------------------------------------------------------
 Center     Atomic      Atomic             Coordinates (Angstroms)
 Number     Number       Type             X           Y           Z
 ---------------------------------------------------------------------
      1          6           0        1.963989    0.040230    0.093634
      2          6           0        0.639491   -0.470899   -0.056556
      3          1           0        2.750222   -0.650535   -0.428174
      4          1           0        2.426829    1.225078    1.410361
      5          1           0        1.759967    0.439034   -0.721944
      6          6           0       -0.609343    0.546780   -0.098842
      7          1           0        0.529260   -0.862639    0.683542
      8          1           0        0.635479   -1.207911   -0.930110
      9          6           0       -2.028042   -0.166474    0.095859
     10          1           0       -0.573735    1.398741   -1.161202
     11          1           0       -0.212238    0.854129    0.404957
     12          1           0       -1.982861   -0.531736   -0.560828
     13          1           0       -2.845680    0.575961    0.016621
     14          1           0       -2.283813   -0.937941    1.082214
 ---------------------------------------------------------------------

 SCF Done:  E(RB2PLYPD3) =  -157.421627888     A.U. after   12 cycles
 E2(B2PLYPD3) =    -0.2554322901D+00 E(B2PLYPD3) =    -0.15767706017764D+03

 The electronic state is 1-A.
 Alpha  occ. eigenvalues --  -10.63318 -10.60600 -10.59816 -10.59617  -0.97026
 Alpha  occ. eigenvalues --   -0.87984  -0.79905  -0.70520  -0.55397  -0.51005
 Alpha  occ. eigenvalues --   -0.50005  -0.46971  -0.44384  -0.40097  -0.38762
 Alpha  occ. eigenvalues --   -0.35590  -0.33203
 Alpha virt. eigenvalues --   -0.00513   0.05446   0.06407   0.07560   0.10733
 Alpha virt. eigenvalues --    0.10892   0.12364   0.12689   0.14288   0.15094
 Alpha virt. eigenvalues --    0.15785   0.16363   0.18319   0.18859   0.20415

 Mulliken charges:
               1
     1  C   -0.252096
     2  C   -0.186450
     3  H    0.065485
     4  H    0.007451
     5  H    0.132197
     6  C   -0.551025
     7  H    0.194783
     8  H    0.028809
     9  C   -0.432772
    10  H    0.010038
    11  H    0.510474
    12  H    0.360948
    13  H    0.066260
    14  H    0.045898
 Sum of Mulliken charges =   0.00000

 Dipole moment (field-independent basis, Debye):
    X=             -0.4730    Y=             -0.6212    Z=             -0.6035  Tot=              0.9868
 Quadrupole moment (field-independent basis, Debye-Ang):
   XX=            -30.1337   YY=            -29.5416   ZZ=            -28.2674
   XY=             -0.7459   XZ=             -1.3016   YZ=              0.4811

 Normal termination of Gaussian 09 at Wed Aug 26 19:37:22 2020.
