 Gaussian 09, Revision D.01,
 Gaussian 09:  ES64L-G09RevD.01 24-Apr-2013

 --------------------
 #p B2PLYPD3/Def2QZVP
 --------------------

 ----------
 butane_opt
 ----------
 Symbolic Z-matrix:
 Charge =  0 Multiplicity = 1

                         Standard orientation:
 ---------------------------------------------------------------------
 Center     Atomic      Atomic             Coordinates (Angstroms)
 Number     Number       Type             X           Y           Z
 ---------------------------------------------------------------------
      1          6           0       -1.949725    0.133935    0.062151
      2          6           0       -0.558658   -0.583201   -0.083085
      3          1           0       -2.708523   -0.580709    0.161910
      4          1           0       -2.302714    0.554612   -0.736303
      5          1           0       -2.242906    1.044769    1.091984
      6          6           0        0.623931    0.525129   -0.179780
      7          1           0       -0.579299   -1.173134   -0.832926
      8          1           0       -0.434691   -1.194410    0.819364
      9          6           0        1.974205   -0.113712    0.124636
     10          1           0        0.390323    1.133777    0.513182
     11          1           0        0.506023    1.199567   -1.119659
     12          1           0        1.887123   -0.522489    0.929220
     13          1           0        2.694578    0.693260    0.355819
     14          1           0        2.251568   -0.928147   -0.726118
 ---------------------------------------------------------------------

 SCF Done:  E(RB2PLYPD3) =  -157.991671734     A.U. after   11 cycles
 E2(B2PLYPD3) =    -0.2468832926D+00 E(B2PLYPD3) =    -0.15823855502677D+03

 The electronic state is 1-A.
 Alpha  occ. eigenvalues --  -10.60901 -10.60306 -10.59847 -10.59152  -0.90733
 Alpha  occ. eigenvalues --   -0.84092  -0.74002  -0.69406  -0.53989  -0.49325
 Alpha  occ. eigenvalues --   -0.48916  -0.46835  -0.43565  -0.40139  -0.39849
 Alpha  occ. eigenvalues --   -0.38651  -0.35919
 Alpha virt. eigenvalues --    0.05474   0.06339   0.08309   0.08912   0.10954
 Alpha virt. eigenvalues --    0.11622   0.12630   0.13746   0.14272   0.15249
 Alpha virt. eigenvalues --    0.16087   0.16560   0.19186   0.19773   0.21489

 Mulliken charges:
               1
     1  C   -0.144668
     2  C   -0.043500
     3  H    0.034994
     4  H    0.054043
     5  H    0.002644
     6  C   -0.074036
     7  H    0.061409
     8  H    0.029753
     9  C   -0.191688
    10  H    0.079787
    11  H    0.017889
    12  H    0.097832
    13  H    0.037114
    14  H    0.038429
 Sum of Mulliken charges =   0.00000

 Dipole moment (field-independent basis, Debye):
    X=             -0.1095    Y=             -0.2638    Z=             -0.0529  Tot=              0.2905
 Quadrupole moment (field-independent basis, Debye-Ang):
   XX=            -29.7952   YY=            -28.3902   ZZ=            -28.2519
   XY=              0.6159   XZ=              1.4410   YZ=              0.3847

 Normal termination of Gaussian 09 at Wed Aug 26 16:02:38 2020.
