 Gaussian 09, Revision D.01,
 Gaussian 09:  ES64L-G09RevD.01 24-Apr-2013

 --------------------
 #p B2PLYPD3/Def2QZVP
 --------------------

 ----------
 butane_opt
 ----------
 Symbolic Z-matrix:
 Charge =  0 Multiplicity = 1

                         Standard orientation:
 ---------------------------------------------------------------------
 Center     Atomic      Atomic             Coordinates (Angstroms)
 Number     Number       Type             X           Y           Z
 ---------------------------------------------------------------------
      1          6           0       -1.808585    0.013750    0.068085
      2          6           0       -0.623214   -0.412113   -0.261940
      3          1           0       -2.719921   -0.916238    0.507636
      4          1           0       -2.450945    0.834863   -0.700800
      5          1           0       -1.688908    0.649207    1.207462
      6          6           0        0.492354    0.630741   -0.047453
      7          1           0       -0.316004   -1.014671   -1.122714
      8          1           0       -0.565603   -1.166157    0.560384
      9          6           0        1.940411   -0.191391    0.099288
     10          1           0        0.231773    1.154545    0.939791
     11          1           0        0.488745    1.425312   -0.898288
     12          1           0        2.020105   -1.019220    1.010778
     13          1           0        2.700143    0.450093    0.207236
     14          1           0        2.294817   -0.643657   -0.859363
 ---------------------------------------------------------------------

 SCF Done:  E(RB2PLYPD3) =  -157.966977136     A.U. after   11 cycles
 E2(B2PLYPD3) =    -0.2537139383D+00 E(B2PLYPD3) =    -0.15822069107439D+03

 The electronic state is 1-A.
 Alpha  occ. eigenvalues --  -10.65507 -10.63764 -10.61840 -10.60052  -0.94225
 Alpha  occ. eigenvalues --   -0.82437  -0.71747  -0.64628  -0.54213  -0.50033
 Alpha  occ. eigenvalues --   -0.48386  -0.45846  -0.43153  -0.40485  -0.39866
 Alpha  occ. eigenvalues --   -0.34007  -0.33834
 Alpha virt. eigenvalues --    0.04621   0.06013   0.07372   0.07654   0.10055
 Alpha virt. eigenvalues --    0.10179   0.12246   0.13240   0.13788   0.14834
 Alpha virt. eigenvalues --    0.15606   0.16551   0.18980   0.19588   0.21077

 Mulliken charges:
               1
     1  C   -0.182807
     2  C    0.006909
     3  H    0.022790
     4  H    0.025205
     5  H    0.034593
     6  C   -0.067837
     7  H    0.049137
     8  H    0.045906
     9  C   -0.144507
    10  H    0.043127
    11  H    0.038027
    12  H    0.037867
    13  H    0.059638
    14  H    0.031951
 Sum of Mulliken charges =   0.00000

 Dipole moment (field-independent basis, Debye):
    X=              0.7053    Y=             -0.1019    Z=             -0.0294  Tot=              0.7132
 Quadrupole moment (field-independent basis, Debye-Ang):
   XX=            -31.3828   YY=            -29.5844   ZZ=            -28.8305
   XY=              0.2733   XZ=             -0.6333   YZ=             -0.4669

 Normal termination of Gaussian 09 at Wed Aug 26 10:28:10 2020.
