 Gaussian 09, Revision D.01,
 Gaussian 09:  ES64L-G09RevD.01 24-Apr-2013

 --------------------
 #p B2PLYPD3/Def2QZVP
 --------------------

 ----------
 butane_opt
 ----------
 Symbolic Z-matrix:
 Charge =  0 Multiplicity = 1

                         Standard orientation:
 ---------------------------------------------------------------------
 Center     Atomic      Atomic             Coordinates (Angstroms)
 Number     Number       Type             X           Y           Z
 ---------------------------------------------------------------------
      1          6           0        1.919948    0.043727   -0.222351
      2          6           0        0.547120   -0.398081    0.252478
      3          1           0        2.821928   -0.969689   -0.139994
      4          1           0        2.337045    0.661286    0.533712
      5          1           0        1.996774    0.670562   -1.138098
      6          6           0       -0.530906    0.671214    0.183457
      7          1           0        0.904705   -0.988583    1.327284
      8          1           0        0.280895   -1.310726   -0.549321
      9          6           0       -1.973824   -0.143834   -0.127409
     10          1           0       -0.205083    1.093268   -0.703751
     11          1           0       -0.601718    1.329265    1.022851
     12          1           0       -1.971702   -0.981998   -0.970498
     13          1           0       -2.673400    0.225963   -0.791923
     14          1           0       -2.663474   -0.767505    0.892691
 ---------------------------------------------------------------------

 SCF Done:  E(RB2PLYPD3) =  -157.967010549     A.U. after   11 cycles
 E2(B2PLYPD3) =    -0.2535108074D+00 E(B2PLYPD3) =    -0.15822052135680D+03

 The electronic state is 1-A.
 Alpha  occ. eigenvalues --  -10.64196 -10.63906 -10.63208 -10.62396  -0.90709
 Alpha  occ. eigenvalues --   -0.81204  -0.73675  -0.64972  -0.54489  -0.49052
 Alpha  occ. eigenvalues --   -0.46908  -0.45899  -0.41243  -0.39181  -0.37376
 Alpha  occ. eigenvalues --   -0.36722  -0.35172
 Alpha virt. eigenvalues --    0.04857   0.05404   0.07763   0.08075   0.10103
 Alpha virt. eigenvalues --    0.11019   0.11442   0.11954   0.14128   0.15527
 Alpha virt. eigenvalues --    0.15729   0.16662   0.17891   0.19146   0.20242

 Mulliken charges:
               1
     1  C   -0.144209
     2  C   -0.042629
     3  H    0.022958
     4  H    0.046929
     5  H    0.041501
     6  C   -0.073776
     7  H    0.022896
     8  H    0.037432
     9  C   -0.164615
    10  H    0.072933
    11  H    0.066433
    12  H    0.020936
    13  H    0.060362
    14  H    0.032849
 Sum of Mulliken charges =   0.00000

 Dipole moment (field-independent basis, Debye):
    X=              0.0354    Y=              0.5817    Z=             -0.2853  Tot=              0.6489
 Quadrupole moment (field-independent basis, Debye-Ang):
   XX=            -30.8830   YY=            -29.9532   ZZ=            -28.5214
   XY=              0.6609   XZ=              1.4475   YZ=              0.1610

 Normal termination of Gaussian 09 at Wed Aug 26 22:18:48 2020.
