 Gaussian 09, Revision D.01,
 Gaussian 09:  ES64L-G09RevD.01 24-Apr-2013

 --------------------
 #p B2PLYPD3/Def2QZVP
 --------------------

 ----------
 butane_opt
 ----------
 Symbolic Z-matrix:
 Charge =  0 Multiplicity = 1

                         Standard orientation:
 ---------------------------------------------------------------------
 Center     Atomic      Atomic             Coordinates (Angstroms)
 Number     Number       Type             X           Y           Z
 ---------------------------------------------------------------------
      1          6           0       -2.006136    0.113281   -0.100740
      2          6           0       -0.534322   -0.542803    0.127431
      3          1           0       -2.888121   -0.674845   -0.191261
      4          1           0       -1.987622    0.901666   -1.069911
      5          1           0       -2.356458    0.833204    0.770995
      6          6           0        0.611913    0.502371    0.080028
      7          1           0       -0.417903   -1.171089   -0.725864
      8          1           0       -0.440771   -1.159068    0.964268
      9          6           0        2.033269   -0.104761   -0.147190
     10          1           0        0.410665    1.395089    1.357196
     11          1           0        0.439524    0.824568   -0.581266
     12          1           0        2.277514   -0.955875    0.909276
     13          1           0        2.719095    0.711711   -0.445671
     14          1           0        1.615738   -0.513886   -0.744935
 ---------------------------------------------------------------------

 SCF Done:  E(RB2PLYPD3) =  -157.755642756     A.U. after   11 cycles
 E2(B2PLYPD3) =    -0.2523021946D+00 E(B2PLYPD3) =    -0.15800794495069D+03

 The electronic state is 1-A.
 Alpha  occ. eigenvalues --  -10.64645 -10.61993 -10.61678 -10.61297  -0.95057
 Alpha  occ. eigenvalues --   -0.83478  -0.73798  -0.69290  -0.54203  -0.52515
 Alpha  occ. eigenvalues --   -0.47424  -0.45998  -0.41802  -0.40050  -0.39436
 Alpha  occ. eigenvalues --   -0.38781  -0.33490
 Alpha virt. eigenvalues --    0.04250   0.05920   0.06569   0.08561   0.10280
 Alpha virt. eigenvalues --    0.11168   0.11866   0.12630   0.13548   0.14814
 Alpha virt. eigenvalues --    0.15465   0.16398   0.17762   0.19497   0.20311

 Mulliken charges:
               1
     1  C   -0.159544
     2  C   -0.022974
     3  H    0.053767
     4  H    0.025343
     5  H    0.045861
     6  C   -0.428994
     7  H    0.035346
     8  H    0.052314
     9  C   -0.310615
    10  H   -0.036203
    11  H    0.402265
    12  H    0.036285
    13  H    0.083135
    14  H    0.224015
 Sum of Mulliken charges =   0.00000

 Dipole moment (field-independent basis, Debye):
    X=             -0.1056    Y=             -0.4187    Z=             -0.7209  Tot=              0.8403
 Quadrupole moment (field-independent basis, Debye-Ang):
   XX=            -30.0819   YY=            -29.8750   ZZ=            -29.0129
   XY=              0.9021   XZ=             -0.8169   YZ=             -1.3304

 Normal termination of Gaussian 09 at Wed Aug 26 14:54:28 2020.
