 Gaussian 09, Revision D.01,
 Gaussian 09:  ES64L-G09RevD.01 24-Apr-2013

 --------------------
 #p B2PLYPD3/Def2QZVP
 --------------------

 ----------
 butane_opt
 ----------
 Symbolic Z-matrix:
 Charge =  0 Multiplicity = 1

                         Standard orientation:
 ---------------------------------------------------------------------
 Center     Atomic      Atomic             Coordinates (Angstroms)
 Number     Number       Type             X           Y           Z
 ---------------------------------------------------------------------
      1          6           0        1.935677   -0.074685    0.144204
      2          6           0        0.577568    0.433864   -0.218241
      3          1           0        2.922927    0.761170    0.012362
      4          1           0        2.089214   -0.434308   -0.547661
      5          1           0        1.844007   -0.757250    1.310316
      6          6           0       -0.498945   -0.571158    0.007508
      7          1           0        0.838734    1.100147   -1.312623
      8          1           0        0.502554    0.888722    0.471656
      9          6           0       -2.022006    0.174767    0.039260
     10          1           0       -0.184601   -0.969770    0.759999
     11          1           0       -0.450407   -1.359668   -0.822251
     12          1           0       -2.730386    1.498718    1.185122
     13          1           0       -2.899473   -0.822054   -0.450798
     14          1           0       -1.886332    0.317563   -0.442509
 ---------------------------------------------------------------------

 SCF Done:  E(RB2PLYPD3) =  -156.803222673     A.U. after   13 cycles
 E2(B2PLYPD3) =    -0.2597373926D+00 E(B2PLYPD3) =    -0.15706296006599D+03

 The electronic state is 1-A.
 Alpha  occ. eigenvalues --  -10.68388 -10.62020 -10.61239 -10.59543  -0.96556
 Alpha  occ. eigenvalues --   -0.90069  -0.79525  -0.70874  -0.55710  -0.48324
 Alpha  occ. eigenvalues --   -0.47672  -0.46438  -0.43435  -0.40521  -0.37461
 Alpha  occ. eigenvalues --   -0.35882  -0.34941
 Alpha virt. eigenvalues --   -0.02936   0.04773   0.05846   0.06750   0.09682
 Alpha virt. eigenvalues --    0.09908   0.11651   0.12654   0.13762   0.14448
 Alpha virt. eigenvalues --    0.15760   0.16117   0.17753   0.18388   0.20078

 Mulliken charges:
               1
     1  C   -0.384991
     2  C   -0.274188
     3  H    0.032402
     4  H    0.264937
     5  H    0.039252
     6  C   -0.040396
     7  H    0.019713
     8  H    0.276876
     9  C   -1.036082
    10  H    0.117324
    11  H    0.027356
    12  H    0.047111
    13  H    0.059430
    14  H    0.851256
 Sum of Mulliken charges =   0.00000

 Dipole moment (field-independent basis, Debye):
    X=              0.5537    Y=             -0.1792    Z=             -0.4559  Tot=              0.7393
 Quadrupole moment (field-independent basis, Debye-Ang):
   XX=            -31.6567   YY=            -29.1673   ZZ=            -28.1371
   XY=             -0.0455   XZ=             -0.4448   YZ=              0.7546

 Normal termination of Gaussian 09 at Wed Aug 26 10:07:47 2020.
