 Gaussian 09, Revision D.01,
 Gaussian 09:  ES64L-G09RevD.01 24-Apr-2013

 --------------------
 #p B2PLYPD3/Def2QZVP
 --------------------

 ----------
 butane_opt
 ----------
 Symbolic Z-matrix:
 Charge =  0 Multiplicity = 1

                         Standard orientation:
 ---------------------------------------------------------------------
 Center     Atomic      Atomic             Coordinates (Angstroms)
 Number     Number       Type             X           Y           Z
 ---------------------------------------------------------------------
      1          6           0        1.971649    0.120127   -0.216855
      2          6           0        0.616642   -0.478053    0.330329
      3          1           0        2.958084   -0.870459   -0.757857
      4          1           0        2.529962    0.915628    0.578109
      5          1           0        1.475909    0.510828   -0.962484
      6          6           0       -0.562041    0.575729    0.076644
      7          1           0        0.796266   -1.198073    1.508956
      8          1           0        0.278593   -0.773388   -0.197571
      9          6           0       -2.000714   -0.157655   -0.212937
     10          1           0       -0.382698    0.898894   -0.621029
     11          1           0       -0.770668    1.502855    0.825343
     12          1           0       -2.153961   -1.212292   -1.159026
     13          1           0       -2.771907    0.490792    0.076359
     14          1           0       -2.112788   -0.625672    0.846113
 ---------------------------------------------------------------------

 SCF Done:  E(RB2PLYPD3) =  -157.538525845     A.U. after   11 cycles
 E2(B2PLYPD3) =    -0.2555739583D+00 E(B2PLYPD3) =    -0.15779409980337D+03

 The electronic state is 1-A.
 Alpha  occ. eigenvalues --  -10.64760 -10.64341 -10.61461 -10.61069  -0.96101
 Alpha  occ. eigenvalues --   -0.83139  -0.74013  -0.72070  -0.54073  -0.48335
 Alpha  occ. eigenvalues --   -0.47769  -0.45198  -0.42692  -0.39367  -0.38405
 Alpha  occ. eigenvalues --   -0.36983  -0.34915
 Alpha virt. eigenvalues --    0.04187   0.04749   0.06955   0.07444   0.09567
 Alpha virt. eigenvalues --    0.11205   0.11296   0.12641   0.13274   0.15018
 Alpha virt. eigenvalues --    0.15521   0.16425   0.17979   0.18408   0.19647

 Mulliken charges:
               1
     1  C   -0.171821
     2  C   -0.628339
     3  H    0.015537
     4  H    0.059720
     5  H    0.100179
     6  C   -0.313427
     7  H    0.038435
     8  H    0.605528
     9  C   -0.214768
    10  H    0.293532
    11  H    0.031308
    12  H    0.062591
    13  H    0.072646
    14  H    0.048881
 Sum of Mulliken charges =   0.00000

 Dipole moment (field-independent basis, Debye):
    X=             -0.5403    Y=              0.4250    Z=             -0.0892  Tot=              0.6932
 Quadrupole moment (field-independent basis, Debye-Ang):
   XX=            -30.8814   YY=            -29.3893   ZZ=            -29.0182
   XY=             -0.0701   XZ=             -0.0137   YZ=              1.0274

 Normal termination of Gaussian 09 at Wed Aug 26 21:08:24 2020.
