 Gaussian 09, Revision D.01,
 Gaussian 09:  ES64L-G09RevD.01 24-Apr-2013

 --------------------
 #p B2PLYPD3/Def2QZVP
 --------------------

 ----------
 butane_opt
 ----------
 Symbolic Z-matrix:
 Charge =  0 Multiplicity = 1

                         Standard orientation:
 ---------------------------------------------------------------------
 Center     Atomic      Atomic             Coordinates (Angstroms)
 Number     Number       Type             X           Y           Z
 ---------------------------------------------------------------------
      1          6           0        1.967762    0.054892   -0.183098
      2          6           0        0.653375   -0.470892    0.085837
      3          1           0        2.784971   -0.778285   -0.106232
      4          1           0        2.137216    0.873704    0.783785
      5          1           0        1.737902    0.855073   -1.218185
      6          6           0       -0.504898    0.614898    0.198712
      7          1           0        1.015352   -1.396901    1.204019
      8          1           0        0.321908   -0.886979   -0.630216
      9          6           0       -2.052699   -0.202283   -0.123970
     10          1           0       -0.452818    0.937236   -0.569553
     11          1           0       -0.510653    1.533619    1.253283
     12          1           0       -1.813598   -0.671339   -0.849355
     13          1           0       -2.929547    0.441913   -0.680345
     14          1           0       -2.671971   -0.887732    0.947921
 ---------------------------------------------------------------------

 SCF Done:  E(RB2PLYPD3) =  -157.741418957     A.U. after   11 cycles
 E2(B2PLYPD3) =    -0.2563710629D+00 E(B2PLYPD3) =    -0.15799779001967D+03

 The electronic state is 1-A.
 Alpha  occ. eigenvalues --  -10.65279 -10.64063 -10.64045 -10.63043  -0.93351
 Alpha  occ. eigenvalues --   -0.83151  -0.74333  -0.67346  -0.52966  -0.49967
 Alpha  occ. eigenvalues --   -0.46990  -0.46842  -0.41357  -0.40031  -0.37387
 Alpha  occ. eigenvalues --   -0.36216  -0.33992
 Alpha virt. eigenvalues --    0.03833   0.05023   0.06094   0.07303   0.09843
 Alpha virt. eigenvalues --    0.10363   0.10688   0.11507   0.13054   0.14444
 Alpha virt. eigenvalues --    0.15865   0.16154   0.17402   0.18512   0.19459

 Mulliken charges:
               1
     1  C   -0.162763
     2  C   -0.103817
     3  H    0.082903
     4  H    0.047022
     5  H    0.012511
     6  C   -0.291721
     7  H   -0.023599
     8  H    0.149782
     9  C   -0.254349
    10  H    0.277155
    11  H    0.039135
    12  H    0.147137
    13  H    0.035083
    14  H    0.045521
 Sum of Mulliken charges =   0.00000

 Dipole moment (field-independent basis, Debye):
    X=              0.0865    Y=             -0.0317    Z=             -0.8168  Tot=              0.8220
 Quadrupole moment (field-independent basis, Debye-Ang):
   XX=            -30.8423   YY=            -30.5876   ZZ=            -29.0796
   XY=             -1.1159   XZ=              1.3801   YZ=              0.4037

 Normal termination of Gaussian 09 at Wed Aug 26 21:42:30 2020.
