 Gaussian 09, Revision D.01,
 Gaussian 09:  ES64L-G09RevD.01 24-Apr-2013

 --------------------
 #p B2PLYPD3/Def2QZVP
 --------------------

 ----------
 butane_opt
 ----------
 Symbolic Z-matrix:
 Charge =  0 Multiplicity = 1

                         Standard orientation:
 ---------------------------------------------------------------------
 Center     Atomic      Atomic             Coordinates (Angstroms)
 Number     Number       Type             X           Y           Z
 ---------------------------------------------------------------------
      1          6           0       -2.045855    0.158498    0.057857
      2          6           0       -0.508127   -0.582125   -0.155259
      3          1           0       -2.673268   -0.512806    0.708223
      4          1           0       -2.529445    1.173502   -1.001185
      5          1           0       -1.605534    0.397670    0.765932
      6          6           0        0.606503    0.448756   -0.025262
      7          1           0       -0.424596   -1.303925   -0.998676
      8          1           0       -0.311684   -1.218900    0.656004
      9          6           0        1.871965   -0.083063   -0.026418
     10          1           0        0.478417    1.428724    1.072306
     11          1           0        0.812433    1.074919   -0.896829
     12          1           0        1.878452   -0.888804    1.089818
     13          1           0        2.760866    0.689466    0.289756
     14          1           0        2.067448   -0.492239   -0.790852
 ---------------------------------------------------------------------

 SCF Done:  E(RB2PLYPD3) =  -157.789753704     A.U. after   12 cycles
 E2(B2PLYPD3) =    -0.2560274101D+00 E(B2PLYPD3) =    -0.15804578111370D+03

 The electronic state is 1-A.
 Alpha  occ. eigenvalues --  -10.63756 -10.63116 -10.62646 -10.61567  -0.94462
 Alpha  occ. eigenvalues --   -0.85934  -0.74261  -0.66146  -0.55308  -0.51322
 Alpha  occ. eigenvalues --   -0.48871  -0.46236  -0.41728  -0.40014  -0.36405
 Alpha  occ. eigenvalues --   -0.35752  -0.33947
 Alpha virt. eigenvalues --    0.03493   0.04020   0.06632   0.07563   0.09685
 Alpha virt. eigenvalues --    0.10306   0.10795   0.12591   0.13806   0.15303
 Alpha virt. eigenvalues --    0.16180   0.16699   0.17626   0.19017   0.19710

 Mulliken charges:
               1
     1  C   -0.341337
     2  C   -0.073193
     3  H    0.054135
     4  H    0.069736
     5  H    0.211898
     6  C    0.010591
     7  H    0.034935
     8  H    0.059343
     9  C   -0.186188
    10  H   -0.012775
    11  H    0.030462
    12  H   -0.027116
    13  H    0.051214
    14  H    0.118295
 Sum of Mulliken charges =   0.00000

 Dipole moment (field-independent basis, Debye):
    X=              0.4142    Y=             -0.0445    Z=             -0.3464  Tot=              0.5418
 Quadrupole moment (field-independent basis, Debye-Ang):
   XX=            -31.1994   YY=            -30.0576   ZZ=            -28.4619
   XY=              0.9157   XZ=             -1.6705   YZ=             -0.6067

 Normal termination of Gaussian 09 at Wed Aug 26 23:23:30 2020.
