 Gaussian 09, Revision D.01,
 Gaussian 09:  ES64L-G09RevD.01 24-Apr-2013

 --------------------
 #p B2PLYPD3/Def2QZVP
 --------------------

 ----------
 butane_opt
 ----------
 Symbolic Z-matrix:
 Charge =  0 Multiplicity = 1

                         Standard orientation:
 ---------------------------------------------------------------------
 Center     Atomic      Atomic             Coordinates (Angstroms)
 Number     Number       Type             X           Y           Z
 ---------------------------------------------------------------------
      1          6           0        2.032080   -0.182830    0.097886
      2          6           0        0.525218    0.531989   -0.007097
      3          1           0        2.713996    0.538841   -0.600870
      4          1           0        1.797230   -0.251807   -0.520061
      5          1           0        2.618840   -1.091810    1.157259
      6          6           0       -0.585810   -0.458775   -0.118645
      7          1           0        0.657311    1.406338   -0.962355
      8          1           0        0.430042    1.074664    0.854021
      9          6           0       -1.988894    0.091376    0.077127
     10          1           0       -0.353868   -0.884754    0.380249
     11          1           0       -0.593087   -1.122037   -1.142282
     12          1           0       -2.334013    0.874023    1.014142
     13          1           0       -2.832355   -0.825016   -0.006139
     14          1           0       -1.999658    0.391000   -0.469595
 ---------------------------------------------------------------------

 SCF Done:  E(RB2PLYPD3) =  -156.975127352     A.U. after   12 cycles
 E2(B2PLYPD3) =    -0.2547855924D+00 E(B2PLYPD3) =    -0.15722991294484D+03

 The electronic state is 1-A.
 Alpha  occ. eigenvalues --  -10.63862 -10.60970 -10.59830 -10.58675  -0.96826
 Alpha  occ. eigenvalues --   -0.90611  -0.82095  -0.69757  -0.54873  -0.49604
 Alpha  occ. eigenvalues --   -0.48438  -0.46807  -0.44376  -0.41738  -0.38439
 Alpha  occ. eigenvalues --   -0.37254  -0.32949
 Alpha virt. eigenvalues --    0.03664   0.05049   0.06358   0.07823   0.10140
 Alpha virt. eigenvalues --    0.10858   0.11846   0.12895   0.14939   0.15657
 Alpha virt. eigenvalues --    0.15777   0.16779   0.17999   0.19215   0.20276

 Mulliken charges:
               1
     1  C   -0.848484
     2  C   -0.016440
     3  H    0.047007
     4  H    0.648271
     5  H    0.096896
     6  C   -0.521508
     7  H    0.000141
     8  H    0.070949
     9  C   -0.730684
    10  H    0.497862
    11  H    0.037813
    12  H    0.060635
    13  H    0.063981
    14  H    0.593561
 Sum of Mulliken charges =   0.00000

 Dipole moment (field-independent basis, Debye):
    X=             -0.3613    Y=             -0.2144    Z=             -0.1655  Tot=              0.4515
 Quadrupole moment (field-independent basis, Debye-Ang):
   XX=            -30.4007   YY=            -28.8874   ZZ=            -27.3609
   XY=             -0.8157   XZ=              0.0920   YZ=             -0.8826

 Normal termination of Gaussian 09 at Wed Aug 26 23:07:06 2020.
