 Gaussian 09, Revision D.01,
 Gaussian 09:  ES64L-G09RevD.01 24-Apr-2013

 --------------------
 #p B2PLYPD3/Def2QZVP
 --------------------

 ----------
 butane_opt
 ----------
 Symbolic Z-matrix:
 Charge =  0 Multiplicity = 1

                         Standard orientation:
 ---------------------------------------------------------------------
 Center     Atomic      Atomic             Coordinates (Angstroms)
 Number     Number       Type             X           Y           Z
 ---------------------------------------------------------------------
      1          6           0       -1.900727   -0.164308   -0.200442
      2          6           0       -0.533599    0.603391    0.197831
      3          1           0       -2.534274    0.443060   -0.726237
      4          1           0       -2.420004   -1.063459    1.154213
      5          1           0       -1.892000   -0.423359   -0.785892
      6          6           0        0.513941   -0.483478    0.144342
      7          1           0       -0.455995    1.515889    1.212945
      8          1           0       -0.102571    1.078321   -0.767428
      9          6           0        1.877401    0.077017   -0.101679
     10          1           0        0.377163   -1.180898   -0.745724
     11          1           0        0.464993   -0.968958    0.976213
     12          1           0        1.955504    0.701386   -1.006337
     13          1           0        2.798502   -0.859321   -0.194796
     14          1           0        2.066591    0.561606    0.642730
 ---------------------------------------------------------------------

 SCF Done:  E(RB2PLYPD3) =  -157.518594507     A.U. after   12 cycles
 E2(B2PLYPD3) =    -0.2538850281D+00 E(B2PLYPD3) =    -0.15777247953462D+03

 The electronic state is 1-A.
 Alpha  occ. eigenvalues --  -10.65189 -10.61722 -10.59759 -10.59387  -0.94435
 Alpha  occ. eigenvalues --   -0.89394  -0.76658  -0.67174  -0.56043  -0.50864
 Alpha  occ. eigenvalues --   -0.48055  -0.44799  -0.42838  -0.41118  -0.38250
 Alpha  occ. eigenvalues --   -0.35967  -0.34746
 Alpha virt. eigenvalues --    0.01750   0.05374   0.06837   0.07379   0.09804
 Alpha virt. eigenvalues --    0.10418   0.12119   0.12469   0.14562   0.15227
 Alpha virt. eigenvalues --    0.16448   0.17045   0.18262   0.19189   0.19761

 Mulliken charges:
               1
     1  C   -0.643222
     2  C   -0.069777
     3  H    0.054200
     4  H    0.014628
     5  H    0.530761
     6  C   -0.017698
     7  H    0.042829
     8  H    0.029146
     9  C   -0.174150
    10  H    0.027881
    11  H    0.058110
    12  H    0.042139
    13  H    0.009793
    14  H    0.095360
 Sum of Mulliken charges =   0.00000

 Dipole moment (field-independent basis, Debye):
    X=              0.2175    Y=              0.2498    Z=             -0.4752  Tot=              0.5793
 Quadrupole moment (field-independent basis, Debye-Ang):
   XX=            -31.9914   YY=            -29.9168   ZZ=            -27.0862
   XY=              0.1592   XZ=              1.5801   YZ=              0.0106

 Normal termination of Gaussian 09 at Wed Aug 26 22:44:11 2020.
