 Gaussian 09, Revision D.01,
 Gaussian 09:  ES64L-G09RevD.01 24-Apr-2013

 --------------------
 #p B2PLYPD3/Def2QZVP
 --------------------

 ----------
 butane_opt
 ----------
 Symbolic Z-matrix:
 Charge =  0 Multiplicity = 1

                         Standard orientation:
 ---------------------------------------------------------------------
 Center     Atomic      Atomic             Coordinates (Angstroms)
 Number     Number       Type             X           Y           Z
 ---------------------------------------------------------------------
      1          6           0        1.834346    0.083093   -0.119991
      2          6           0        0.568495   -0.480393    0.110785
      3          1           0        2.729677   -0.941428   -0.391570
      4          1           0        2.052894    0.875973    0.735888
      5          1           0        2.063570    0.695240   -0.958426
      6          6           0       -0.478761    0.553763    0.167834
      7          1           0        0.786973   -1.257059    1.215590
      8          1           0        0.191301   -0.887107   -0.667120
      9          6           0       -1.895853   -0.137185   -0.118147
     10          1           0       -0.375211    1.165167   -0.629273
     11          1           0       -0.607057    1.448168    1.204370
     12          1           0       -1.751265   -0.611973   -0.898508
     13          1           0       -2.689455    0.460085   -0.716994
     14          1           0       -2.570794   -1.062735    0.863156
 ---------------------------------------------------------------------

 SCF Done:  E(RB2PLYPD3) =  -157.868387502     A.U. after   11 cycles
 E2(B2PLYPD3) =    -0.2544110242D+00 E(B2PLYPD3) =    -0.15812279852626D+03

 The electronic state is 1-A.
 Alpha  occ. eigenvalues --  -10.64099 -10.63113 -10.63025 -10.61819  -0.95180
 Alpha  occ. eigenvalues --   -0.84035  -0.73252  -0.67199  -0.55452  -0.51384
 Alpha  occ. eigenvalues --   -0.49048  -0.44057  -0.41123  -0.39787  -0.37715
 Alpha  occ. eigenvalues --   -0.36430  -0.35235
 Alpha virt. eigenvalues --    0.04088   0.04603   0.06932   0.07254   0.09320
 Alpha virt. eigenvalues --    0.10579   0.11159   0.12515   0.12760   0.15518
 Alpha virt. eigenvalues --    0.16210   0.16952   0.18425   0.19195   0.19943

 Mulliken charges:
               1
     1  C   -0.165922
     2  C   -0.058403
     3  H    0.013791
     4  H    0.058876
     5  H    0.037344
     6  C   -0.070167
     7  H    0.032436
     8  H    0.103993
     9  C   -0.223789
    10  H    0.093155
    11  H    0.007346
    12  H    0.111888
    13  H    0.035480
    14  H    0.023973
 Sum of Mulliken charges =   0.00000

 Dipole moment (field-independent basis, Debye):
    X=              0.0134    Y=              0.2604    Z=             -1.0985  Tot=              1.1290
 Quadrupole moment (field-independent basis, Debye-Ang):
   XX=            -32.3627   YY=            -29.8845   ZZ=            -28.6858
   XY=              0.5083   XZ=              0.9451   YZ=             -0.3846

 Normal termination of Gaussian 09 at Wed Aug 26 09:38:41 2020.
