 Gaussian 09, Revision D.01,
 Gaussian 09:  ES64L-G09RevD.01 24-Apr-2013

 --------------------
 #p B2PLYPD3/Def2QZVP
 --------------------

 ----------
 butane_opt
 ----------
 Symbolic Z-matrix:
 Charge =  0 Multiplicity = 1

                         Standard orientation:
 ---------------------------------------------------------------------
 Center     Atomic      Atomic             Coordinates (Angstroms)
 Number     Number       Type             X           Y           Z
 ---------------------------------------------------------------------
      1          6           0        1.997508   -0.058162    0.137549
      2          6           0        0.558148    0.488541   -0.259123
      3          1           0        2.771632    0.715064    0.181678
      4          1           0        1.967899   -0.685978   -0.559736
      5          1           0        2.055912   -0.851968    1.310690
      6          6           0       -0.596951   -0.644792   -0.012365
      7          1           0        0.743200    1.414185   -1.384356
      8          1           0        0.278223    1.017752    0.578630
      9          6           0       -1.948779    0.144569    0.114439
     10          1           0       -0.272580   -0.883535    0.716724
     11          1           0       -0.558293   -1.491105   -0.980028
     12          1           0       -2.580268    1.375756    1.293247
     13          1           0       -2.544317   -0.540284   -0.436110
     14          1           0       -1.920961    0.349185   -0.603738
 ---------------------------------------------------------------------

 SCF Done:  E(RB2PLYPD3) =  -157.542313051     A.U. after   12 cycles
 E2(B2PLYPD3) =    -0.2593285174D+00 E(B2PLYPD3) =    -0.15780164156818D+03

 The electronic state is 1-A.
 Alpha  occ. eigenvalues --  -10.63956 -10.62781 -10.61718 -10.61453  -0.94443
 Alpha  occ. eigenvalues --   -0.86643  -0.77627  -0.66459  -0.53599  -0.50251
 Alpha  occ. eigenvalues --   -0.46824  -0.45048  -0.42523  -0.37751  -0.36726
 Alpha  occ. eigenvalues --   -0.35878  -0.34776
 Alpha virt. eigenvalues --   -0.02053   0.04839   0.05448   0.06744   0.10077
 Alpha virt. eigenvalues --    0.10891   0.11752   0.12497   0.13785   0.14905
 Alpha virt. eigenvalues --    0.15866   0.16007   0.17969   0.18053   0.19246

 Mulliken charges:
               1
     1  C   -0.207161
     2  C   -0.135962
     3  H    0.074964
     4  H    0.119972
     5  H   -0.007022
     6  C   -0.228865
     7  H    0.009230
     8  H    0.088994
     9  C   -0.549841
    10  H    0.254343
    11  H    0.026730
    12  H    0.067727
    13  H    0.047335
    14  H    0.439556
 Sum of Mulliken charges =   0.00000

 Dipole moment (field-independent basis, Debye):
    X=             -0.0830    Y=              0.0471    Z=             -0.4393  Tot=              0.4495
 Quadrupole moment (field-independent basis, Debye-Ang):
   XX=            -30.8756   YY=            -29.3672   ZZ=            -28.5592
   XY=              0.0410   XZ=              0.6112   YZ=              1.4711

 Normal termination of Gaussian 09 at Wed Aug 26 10:05:36 2020.
