 Gaussian 09, Revision D.01,
 Gaussian 09:  ES64L-G09RevD.01 24-Apr-2013

 --------------------
 #p B2PLYPD3/Def2QZVP
 --------------------

 ----------
 butane_opt
 ----------
 Symbolic Z-matrix:
 Charge =  0 Multiplicity = 1

                         Standard orientation:
 ---------------------------------------------------------------------
 Center     Atomic      Atomic             Coordinates (Angstroms)
 Number     Number       Type             X           Y           Z
 ---------------------------------------------------------------------
      1          6           0        1.936854    0.096575   -0.129287
      2          6           0        0.677878   -0.475503    0.092761
      3          1           0        2.789422   -0.636225   -0.153156
      4          1           0        2.302099    0.620305    0.797432
      5          1           0        1.671081    0.652836   -0.998519
      6          6           0       -0.509764    0.598345    0.198056
      7          1           0        0.618609   -1.106082    1.027320
      8          1           0        0.397086   -1.293247   -0.872283
      9          6           0       -2.029570   -0.191889   -0.059895
     10          1           0       -0.243540    1.207361   -0.718020
     11          1           0       -0.499826    1.251130    1.172896
     12          1           0       -1.681154   -0.663393   -0.933345
     13          1           0       -2.909674    0.787261   -0.860589
     14          1           0       -2.896494   -0.985113    0.928453
 ---------------------------------------------------------------------

 SCF Done:  E(RB2PLYPD3) =  -157.906711818     A.U. after   11 cycles
 E2(B2PLYPD3) =    -0.2573582748D+00 E(B2PLYPD3) =    -0.15816407009320D+03

 The electronic state is 1-A.
 Alpha  occ. eigenvalues --  -10.68504 -10.65205 -10.63214 -10.60407  -0.92009
 Alpha  occ. eigenvalues --   -0.81083  -0.69807  -0.64565  -0.56259  -0.48672
 Alpha  occ. eigenvalues --   -0.47461  -0.45192  -0.40732  -0.38855  -0.37794
 Alpha  occ. eigenvalues --   -0.36246  -0.33896
 Alpha virt. eigenvalues --    0.02287   0.05200   0.06554   0.07276   0.08707
 Alpha virt. eigenvalues --    0.09345   0.11395   0.12776   0.14002   0.15275
 Alpha virt. eigenvalues --    0.15713   0.16156   0.17867   0.18353   0.20008

 Mulliken charges:
               1
     1  C   -0.127049
     2  C   -0.036068
     3  H    0.045902
     4  H    0.037794
     5  H    0.059513
     6  C   -0.046436
     7  H    0.031393
     8  H    0.001266
     9  C   -0.234893
    10  H    0.052729
    11  H    0.045512
    12  H    0.100057
    13  H   -0.005056
    14  H    0.075336
 Sum of Mulliken charges =   0.00000

 Dipole moment (field-independent basis, Debye):
    X=              0.9021    Y=             -0.2100    Z=              0.1779  Tot=              0.9431
 Quadrupole moment (field-independent basis, Debye-Ang):
   XX=            -31.7912   YY=            -30.7143   ZZ=            -28.6553
   XY=              0.6805   XZ=             -0.0391   YZ=             -0.4270

 Normal termination of Gaussian 09 at Wed Aug 26 22:35:45 2020.
