 Gaussian 09, Revision D.01,
 Gaussian 09:  ES64L-G09RevD.01 24-Apr-2013

 --------------------
 #p B2PLYPD3/Def2QZVP
 --------------------

 ----------
 butane_opt
 ----------
 Symbolic Z-matrix:
 Charge =  0 Multiplicity = 1

                         Standard orientation:
 ---------------------------------------------------------------------
 Center     Atomic      Atomic             Coordinates (Angstroms)
 Number     Number       Type             X           Y           Z
 ---------------------------------------------------------------------
      1          6           0        1.956939   -0.202215   -0.162780
      2          6           0        0.459052    0.603217    0.108501
      3          1           0        2.714722    0.424824   -0.479437
      4          1           0        1.794180   -1.034624   -0.985001
      5          1           0        2.302135   -0.760582    0.885875
      6          6           0       -0.580014   -0.339205    0.338777
      7          1           0        0.234393    0.985517   -0.885734
      8          1           0        0.735368    1.329399    0.908135
      9          6           0       -1.894771    0.056801   -0.161128
     10          1           0       -0.520356   -0.752482    1.328327
     11          1           0       -0.245841   -1.110849   -0.364211
     12          1           0       -2.182900    0.790096    0.460789
     13          1           0       -2.940407   -1.131933   -0.471437
     14          1           0       -1.538535    0.549047   -1.137528
 ---------------------------------------------------------------------

 SCF Done:  E(RB2PLYPD3) =  -157.977664471     A.U. after   11 cycles
 E2(B2PLYPD3) =    -0.2526818650D+00 E(B2PLYPD3) =    -0.15823034633549D+03

 The electronic state is 1-A.
 Alpha  occ. eigenvalues --  -10.63717 -10.62863 -10.62108 -10.59453  -0.94073
 Alpha  occ. eigenvalues --   -0.81335  -0.72808  -0.66198  -0.57358  -0.49073
 Alpha  occ. eigenvalues --   -0.47637  -0.45940  -0.42817  -0.41159  -0.39513
 Alpha  occ. eigenvalues --   -0.35828  -0.34492
 Alpha virt. eigenvalues --    0.03095   0.05780   0.07890   0.08147   0.09494
 Alpha virt. eigenvalues --    0.11387   0.12308   0.12853   0.13595   0.15314
 Alpha virt. eigenvalues --    0.15526   0.16134   0.18554   0.19751   0.20706

 Mulliken charges:
               1
     1  C   -0.162143
     2  C   -0.068369
     3  H    0.070233
     4  H    0.033605
     5  H    0.031735
     6  C   -0.045289
     7  H    0.046161
     8  H    0.040747
     9  C   -0.172748
    10  H    0.039719
    11  H    0.046564
    12  H    0.083695
    13  H    0.011735
    14  H    0.044355
 Sum of Mulliken charges =   0.00000

 Dipole moment (field-independent basis, Debye):
    X=              0.5247    Y=              0.4161    Z=              0.1003  Tot=              0.6771
 Quadrupole moment (field-independent basis, Debye-Ang):
   XX=            -31.9834   YY=            -29.7731   ZZ=            -28.4634
   XY=              0.1711   XZ=             -0.5121   YZ=              0.3932

 Normal termination of Gaussian 09 at Wed Aug 26 10:49:32 2020.
