 Gaussian 09, Revision D.01,
 Gaussian 09:  ES64L-G09RevD.01 24-Apr-2013

 --------------------
 #p B2PLYPD3/Def2QZVP
 --------------------

 ----------
 butane_opt
 ----------
 Symbolic Z-matrix:
 Charge =  0 Multiplicity = 1

                         Standard orientation:
 ---------------------------------------------------------------------
 Center     Atomic      Atomic             Coordinates (Angstroms)
 Number     Number       Type             X           Y           Z
 ---------------------------------------------------------------------
      1          6           0        1.930025    0.098842    0.102671
      2          6           0        0.603520   -0.530817   -0.028401
      3          1           0        2.804961   -0.961787    0.019500
      4          1           0        2.124076    1.047243    1.184815
      5          1           0        2.028357    0.560021   -0.725660
      6          6           0       -0.494127    0.576220   -0.299379
      7          1           0        0.186008   -1.114978    0.891791
      8          1           0        0.438572   -1.168300   -0.967941
      9          6           0       -1.967815   -0.142121    0.110356
     10          1           0       -0.440786    1.146639   -1.185153
     11          1           0       -0.337187    1.302812    0.575104
     12          1           0       -2.589243   -0.910902   -0.714011
     13          1           0       -2.643088    0.585258    0.726905
     14          1           0       -2.001290   -0.498758    0.883172
 ---------------------------------------------------------------------

 SCF Done:  E(RB2PLYPD3) =  -157.884171425     A.U. after   11 cycles
 E2(B2PLYPD3) =    -0.2533965482D+00 E(B2PLYPD3) =    -0.15813756797327D+03

 The electronic state is 1-A.
 Alpha  occ. eigenvalues --  -10.64599 -10.62858 -10.62619 -10.60864  -0.90858
 Alpha  occ. eigenvalues --   -0.83696  -0.74498  -0.66362  -0.53152  -0.48526
 Alpha  occ. eigenvalues --   -0.47895  -0.45010  -0.42675  -0.39312  -0.38914
 Alpha  occ. eigenvalues --   -0.37535  -0.33548
 Alpha virt. eigenvalues --    0.04094   0.05569   0.07108   0.08243   0.09899
 Alpha virt. eigenvalues --    0.10528   0.12216   0.12630   0.14278   0.14741
 Alpha virt. eigenvalues --    0.15763   0.16230   0.18512   0.19355   0.19517

 Mulliken charges:
               1
     1  C   -0.202119
     2  C   -0.029226
     3  H    0.024701
     4  H    0.029873
     5  H    0.107238
     6  C   -0.057962
     7  H    0.042080
     8  H    0.041691
     9  C   -0.280324
    10  H    0.061339
    11  H    0.024012
    12  H    0.044917
    13  H    0.016189
    14  H    0.177589
 Sum of Mulliken charges =   0.00000

 Dipole moment (field-independent basis, Debye):
    X=             -0.0812    Y=              0.0325    Z=             -0.0390  Tot=              0.0958
 Quadrupole moment (field-independent basis, Debye-Ang):
   XX=            -32.6428   YY=            -29.5701   ZZ=            -27.8589
   XY=              1.0935   XZ=             -1.8804   YZ=              0.3624

 Normal termination of Gaussian 09 at Wed Aug 26 21:37:07 2020.
