 Gaussian 09, Revision D.01,
 Gaussian 09:  ES64L-G09RevD.01 24-Apr-2013

 --------------------
 #p B2PLYPD3/Def2QZVP
 --------------------

 ----------
 butane_opt
 ----------
 Symbolic Z-matrix:
 Charge =  0 Multiplicity = 1

                         Standard orientation:
 ---------------------------------------------------------------------
 Center     Atomic      Atomic             Coordinates (Angstroms)
 Number     Number       Type             X           Y           Z
 ---------------------------------------------------------------------
      1          6           0        2.037582   -0.179017   -0.128848
      2          6           0        0.482678    0.629599    0.120254
      3          1           0        2.744130    0.396907   -0.270999
      4          1           0        2.174500   -1.108462   -0.972931
      5          1           0        2.353832   -0.443294    0.627871
      6          6           0       -0.610521   -0.430878    0.370820
      7          1           0        0.475434    1.125364   -0.940712
      8          1           0        0.532407    1.127897    0.838491
      9          6           0       -2.019280    0.011234   -0.253437
     10          1           0       -0.732366   -1.072827    1.457338
     11          1           0       -0.250506   -0.895074   -0.297671
     12          1           0       -2.445916    1.270208    0.607466
     13          1           0       -2.857653   -0.963314   -0.723960
     14          1           0       -1.336615    0.376975   -0.977625
 ---------------------------------------------------------------------

 SCF Done:  E(RB2PLYPD3) =  -157.730263059     A.U. after   11 cycles
 E2(B2PLYPD3) =    -0.2555419144D+00 E(B2PLYPD3) =    -0.15798580497340D+03

 The electronic state is 1-A.
 Alpha  occ. eigenvalues --  -10.66511 -10.62272 -10.61270 -10.58538  -0.92907
 Alpha  occ. eigenvalues --   -0.84636  -0.75860  -0.67308  -0.56277  -0.49017
 Alpha  occ. eigenvalues --   -0.47401  -0.45456  -0.43830  -0.40491  -0.37605
 Alpha  occ. eigenvalues --   -0.35911  -0.34093
 Alpha virt. eigenvalues --    0.02565   0.05729   0.07413   0.08532   0.09490
 Alpha virt. eigenvalues --    0.10034   0.11830   0.13162   0.13832   0.15035
 Alpha virt. eigenvalues --    0.15600   0.16493   0.18318   0.18905   0.19984

 Mulliken charges:
               1
     1  C   -0.211953
     2  C   -0.156401
     3  H    0.057685
     4  H    0.027483
     5  H    0.106509
     6  C   -0.189387
     7  H    0.056436
     8  H    0.129775
     9  C   -0.192248
    10  H    0.030771
    11  H    0.196622
    12  H    0.000780
    13  H    0.063537
    14  H    0.080391
 Sum of Mulliken charges =   0.00000

 Dipole moment (field-independent basis, Debye):
    X=              1.1290    Y=             -0.1942    Z=             -0.1162  Tot=              1.1515
 Quadrupole moment (field-independent basis, Debye-Ang):
   XX=            -30.7209   YY=            -29.4144   ZZ=            -28.6619
   XY=              1.9742   XZ=              0.4607   YZ=              0.9937

 Normal termination of Gaussian 09 at Wed Aug 26 19:53:12 2020.
