 Gaussian 09, Revision D.01,
 Gaussian 09:  ES64L-G09RevD.01 24-Apr-2013

 --------------------
 #p B2PLYPD3/Def2QZVP
 --------------------

 ----------
 butane_opt
 ----------
 Symbolic Z-matrix:
 Charge =  0 Multiplicity = 1

                         Standard orientation:
 ---------------------------------------------------------------------
 Center     Atomic      Atomic             Coordinates (Angstroms)
 Number     Number       Type             X           Y           Z
 ---------------------------------------------------------------------
      1          6           0       -1.961938   -0.142754    0.104093
      2          6           0       -0.653212    0.486667   -0.134682
      3          1           0       -2.981608    0.849787    0.119569
      4          1           0       -1.766098   -0.540973    1.002610
      5          1           0       -2.393736   -0.857346   -0.719935
      6          6           0        0.540627   -0.610811    0.047256
      7          1           0       -0.369448    1.039740    0.486206
      8          1           0       -0.682854    1.220699   -1.239698
      9          6           0        2.053230    0.170740   -0.037093
     10          1           0        0.508888   -1.067016   -0.677457
     11          1           0        0.637561   -1.082838    0.923549
     12          1           0        2.127549    0.171833   -0.587437
     13          1           0        2.727032   -0.590140   -0.363162
     14          1           0        2.320470    1.433201    1.178308
 ---------------------------------------------------------------------

 SCF Done:  E(RB2PLYPD3) =  -157.111515974     A.U. after   12 cycles
 E2(B2PLYPD3) =    -0.2557660588D+00 E(B2PLYPD3) =    -0.15736728203262D+03

 The electronic state is 1-A.
 Alpha  occ. eigenvalues --  -10.63354 -10.62964 -10.60935 -10.59706  -0.95692
 Alpha  occ. eigenvalues --   -0.89924  -0.78642  -0.69660  -0.56808  -0.50988
 Alpha  occ. eigenvalues --   -0.47508  -0.45598  -0.42798  -0.40661  -0.37826
 Alpha  occ. eigenvalues --   -0.35284  -0.33832
 Alpha virt. eigenvalues --   -0.00262   0.04925   0.06499   0.07864   0.09775
 Alpha virt. eigenvalues --    0.10292   0.11324   0.12686   0.14545   0.15080
 Alpha virt. eigenvalues --    0.15861   0.16122   0.17938   0.19000   0.20711

 Mulliken charges:
               1
     1  C   -0.157510
     2  C   -0.123456
     3  H   -0.002316
     4  H    0.085678
     5  H    0.054456
     6  C   -0.149941
     7  H    0.149104
     8  H   -0.002584
     9  C   -0.867250
    10  H    0.155713
    11  H    0.066876
    12  H    0.710664
    13  H    0.028637
    14  H    0.051929
 Sum of Mulliken charges =   0.00000

 Dipole moment (field-independent basis, Debye):
    X=              0.2516    Y=             -0.6004    Z=             -0.2344  Tot=              0.6919
 Quadrupole moment (field-independent basis, Debye-Ang):
   XX=            -31.6925   YY=            -28.9661   ZZ=            -27.6152
   XY=             -0.1492   XZ=             -0.6579   YZ=              1.3320

 Normal termination of Gaussian 09 at Wed Aug 26 13:33:51 2020.
