 Gaussian 09, Revision D.01,
 Gaussian 09:  ES64L-G09RevD.01 24-Apr-2013

 --------------------
 #p B2PLYPD3/Def2QZVP
 --------------------

 ----------
 butane_opt
 ----------
 Symbolic Z-matrix:
 Charge =  0 Multiplicity = 1

                         Standard orientation:
 ---------------------------------------------------------------------
 Center     Atomic      Atomic             Coordinates (Angstroms)
 Number     Number       Type             X           Y           Z
 ---------------------------------------------------------------------
      1          6           0       -1.830363   -0.125920    0.031852
      2          6           0       -0.638035    0.427664   -0.063925
      3          1           0       -2.793635    0.832102    0.189803
      4          1           0       -1.772826   -0.848732    0.903441
      5          1           0       -2.099089   -0.483082   -0.690184
      6          6           0        0.462328   -0.537154   -0.189829
      7          1           0       -0.588261    1.217766    1.138978
      8          1           0       -0.524347    0.946488   -0.719393
      9          6           0        1.990984    0.198813    0.046219
     10          1           0        0.622388   -1.230263   -1.246294
     11          1           0        0.266046   -1.056694    0.618777
     12          1           0        2.545244    1.248371   -1.039370
     13          1           0        2.856015   -0.862156    1.029369
     14          1           0        1.578982    0.455783    0.868966
 ---------------------------------------------------------------------

 SCF Done:  E(RB2PLYPD3) =  -157.628355654     A.U. after   13 cycles
 E2(B2PLYPD3) =    -0.2601489250D+00 E(B2PLYPD3) =    -0.15788850457869D+03

 The electronic state is 1-A.
 Alpha  occ. eigenvalues --  -10.68151 -10.63597 -10.60155 -10.59793  -0.97846
 Alpha  occ. eigenvalues --   -0.84611  -0.73494  -0.69213  -0.59894  -0.50096
 Alpha  occ. eigenvalues --   -0.48416  -0.47762  -0.41069  -0.40548  -0.35589
 Alpha  occ. eigenvalues --   -0.34358  -0.33514
 Alpha virt. eigenvalues --   -0.01377   0.03391   0.05432   0.06247   0.08479
 Alpha virt. eigenvalues --    0.09762   0.11238   0.12627   0.13333   0.14979
 Alpha virt. eigenvalues --    0.15462   0.16147   0.17499   0.18532   0.19355

 Mulliken charges:
               1
     1  C   -0.194083
     2  C   -0.123531
     3  H    0.011018
     4  H    0.050781
     5  H    0.136406
     6  C   -0.100306
     7  H   -0.016558
     8  H    0.152117
     9  C   -0.250702
    10  H    0.033654
    11  H    0.099553
    12  H    0.076982
    13  H   -0.021076
    14  H    0.145745
 Sum of Mulliken charges =   0.00000

 Dipole moment (field-independent basis, Debye):
    X=             -0.9063    Y=              0.1083    Z=             -0.5453  Tot=              1.0633
 Quadrupole moment (field-independent basis, Debye-Ang):
   XX=            -34.4789   YY=            -30.1736   ZZ=            -28.1598
   XY=              1.3062   XZ=             -0.2623   YZ=             -1.5313

 Normal termination of Gaussian 09 at Wed Aug 26 16:05:00 2020.
