 Gaussian 09, Revision D.01,
 Gaussian 09:  ES64L-G09RevD.01 24-Apr-2013

 --------------------
 #p B2PLYPD3/Def2QZVP
 --------------------

 ----------
 butane_opt
 ----------
 Symbolic Z-matrix:
 Charge =  0 Multiplicity = 1

                         Standard orientation:
 ---------------------------------------------------------------------
 Center     Atomic      Atomic             Coordinates (Angstroms)
 Number     Number       Type             X           Y           Z
 ---------------------------------------------------------------------
      1          6           0        2.044116   -0.112424    0.056763
      2          6           0        0.583227    0.558896   -0.121549
      3          1           0        2.787567    0.518462   -0.218900
      4          1           0        2.202052   -0.713011   -0.701628
      5          1           0        2.285688   -0.960674    1.187684
      6          6           0       -0.583105   -0.499695    0.009601
      7          1           0        0.149412    1.360673   -1.134153
      8          1           0        0.462753    1.050071    0.691749
      9          6           0       -1.988701    0.040152    0.090661
     10          1           0       -0.452802   -0.907991    0.784397
     11          1           0       -0.628162   -0.974039   -0.808684
     12          1           0       -2.490793    1.201752    1.223819
     13          1           0       -2.845960   -0.824477   -0.766423
     14          1           0       -1.802974    0.327658   -0.470717
 ---------------------------------------------------------------------

 SCF Done:  E(RB2PLYPD3) =  -157.433076670     A.U. after   12 cycles
 E2(B2PLYPD3) =    -0.2563175283D+00 E(B2PLYPD3) =    -0.15768939419808D+03

 The electronic state is 1-A.
 Alpha  occ. eigenvalues --  -10.63434 -10.63194 -10.62785 -10.58042  -0.96471
 Alpha  occ. eigenvalues --   -0.86165  -0.76959  -0.69869  -0.57690  -0.49052
 Alpha  occ. eigenvalues --   -0.47337  -0.44392  -0.42598  -0.39562  -0.38839
 Alpha  occ. eigenvalues --   -0.37796  -0.33988
 Alpha virt. eigenvalues --   -0.00026   0.04165   0.05447   0.07187   0.09729
 Alpha virt. eigenvalues --    0.10455   0.11459   0.12470   0.13638   0.15069
 Alpha virt. eigenvalues --    0.15423   0.16519   0.17480   0.18701   0.20153

 Mulliken charges:
               1
     1  C   -0.147024
     2  C   -0.117856
     3  H    0.058303
     4  H    0.052826
     5  H    0.037803
     6  C   -0.056025
     7  H    0.009085
     8  H    0.100635
     9  C   -0.800622
    10  H    0.104584
    11  H    0.074738
    12  H    0.030877
    13  H    0.020116
    14  H    0.632561
 Sum of Mulliken charges =   0.00000

 Dipole moment (field-independent basis, Debye):
    X=              1.0413    Y=             -0.0495    Z=             -0.5933  Tot=              1.1995
 Quadrupole moment (field-independent basis, Debye-Ang):
   XX=            -31.9024   YY=            -29.6167   ZZ=            -28.0294
   XY=             -0.8793   XZ=              0.6157   YZ=              0.6486

 Normal termination of Gaussian 09 at Wed Aug 26 19:48:15 2020.
