 Gaussian 09, Revision D.01,
 Gaussian 09:  ES64L-G09RevD.01 24-Apr-2013

 --------------------
 #p B2PLYPD3/Def2QZVP
 --------------------

 ----------
 butane_opt
 ----------
 Symbolic Z-matrix:
 Charge =  0 Multiplicity = 1

                         Standard orientation:
 ---------------------------------------------------------------------
 Center     Atomic      Atomic             Coordinates (Angstroms)
 Number     Number       Type             X           Y           Z
 ---------------------------------------------------------------------
      1          6           0       -1.831241    0.078318   -0.234648
      2          6           0       -0.574408   -0.413607    0.352127
      3          1           0       -2.766937   -1.098846   -0.737645
      4          1           0       -1.419935    0.174700   -0.932140
      5          1           0       -2.464440    0.953007    0.733643
      6          6           0        0.542054    0.620812    0.096143
      7          1           0       -0.181256   -0.983852   -0.188798
      8          1           0       -0.715660   -0.967245    1.523627
      9          6           0        1.888828   -0.197918   -0.156506
     10          1           0        0.356400    1.336063    0.884004
     11          1           0        0.239280    1.356546   -1.249078
     12          1           0        2.365938   -0.486655    0.689090
     13          1           0        2.527038    0.387258   -0.028368
     14          1           0        1.908174   -1.196604   -1.037032
 ---------------------------------------------------------------------

 SCF Done:  E(RB2PLYPD3) =  -157.621981482     A.U. after   12 cycles
 E2(B2PLYPD3) =    -0.2585931225D+00 E(B2PLYPD3) =    -0.15788057460457D+03

 The electronic state is 1-A.
 Alpha  occ. eigenvalues --  -10.66594 -10.63968 -10.61102 -10.60412  -0.95505
 Alpha  occ. eigenvalues --   -0.87854  -0.76108  -0.66957  -0.56915  -0.49891
 Alpha  occ. eigenvalues --   -0.47047  -0.44774  -0.42642  -0.40113  -0.38037
 Alpha  occ. eigenvalues --   -0.34857  -0.32518
 Alpha virt. eigenvalues --    0.02955   0.03632   0.05483   0.06414   0.08383
 Alpha virt. eigenvalues --    0.09799   0.11478   0.13220   0.13883   0.14865
 Alpha virt. eigenvalues --    0.15132   0.15736   0.18368   0.18763   0.19889

 Mulliken charges:
               1
     1  C   -0.330631
     2  C   -0.144917
     3  H   -0.030791
     4  H    0.265368
     5  H    0.063581
     6  C   -0.072809
     7  H    0.157396
     8  H    0.020441
     9  C   -0.214648
    10  H    0.074852
    11  H   -0.021945
    12  H    0.042555
    13  H    0.123399
    14  H    0.068148
 Sum of Mulliken charges =   0.00000

 Dipole moment (field-independent basis, Debye):
    X=              1.5202    Y=              0.0092    Z=              0.6840  Tot=              1.6670
 Quadrupole moment (field-independent basis, Debye-Ang):
   XX=            -31.2259   YY=            -30.3858   ZZ=            -29.1168
   XY=             -1.2668   XZ=             -0.3408   YZ=              1.9644

 Normal termination of Gaussian 09 at Wed Aug 26 12:46:06 2020.
