 Gaussian 09, Revision D.01,
 Gaussian 09:  ES64L-G09RevD.01 24-Apr-2013

 --------------------
 #p B2PLYPD3/Def2QZVP
 --------------------

 ----------
 butane_opt
 ----------
 Symbolic Z-matrix:
 Charge =  0 Multiplicity = 1

                         Standard orientation:
 ---------------------------------------------------------------------
 Center     Atomic      Atomic             Coordinates (Angstroms)
 Number     Number       Type             X           Y           Z
 ---------------------------------------------------------------------
      1          6           0        2.006333   -0.117106    0.156997
      2          6           0        0.567896    0.533510   -0.164511
      3          1           0        2.707214    0.600872    0.438970
      4          1           0        2.335451   -0.959964   -0.798164
      5          1           0        1.633630   -0.525443    0.747384
      6          6           0       -0.546485   -0.589225   -0.130386
      7          1           0        0.669051    1.406403   -1.191797
      8          1           0        0.570168    1.055333    0.609991
      9          6           0       -2.019320    0.121012    0.080124
     10          1           0       -0.360543   -1.334381    0.850447
     11          1           0       -0.533621   -0.815039   -0.758097
     12          1           0       -2.286505    0.916108    1.198882
     13          1           0       -2.577585   -0.439973   -0.280019
     14          1           0       -2.207807    0.406933   -0.470942
 ---------------------------------------------------------------------

 SCF Done:  E(RB2PLYPD3) =  -157.179885139     A.U. after   11 cycles
 E2(B2PLYPD3) =    -0.2506048053D+00 E(B2PLYPD3) =    -0.15743048994426D+03

 The electronic state is 1-A.
 Alpha  occ. eigenvalues --  -10.61674 -10.60566 -10.58535 -10.57307  -0.96468
 Alpha  occ. eigenvalues --   -0.90415  -0.82331  -0.69695  -0.56078  -0.52820
 Alpha  occ. eigenvalues --   -0.48511  -0.46569  -0.43430  -0.41121  -0.38667
 Alpha  occ. eigenvalues --   -0.37540  -0.34852
 Alpha virt. eigenvalues --    0.05210   0.06297   0.07206   0.08666   0.10621
 Alpha virt. eigenvalues --    0.10921   0.12042   0.13438   0.14660   0.15600
 Alpha virt. eigenvalues --    0.16014   0.17327   0.18256   0.19055   0.21309

 Mulliken charges:
               1
     1  C   -0.360433
     2  C   -0.095295
     3  H    0.068124
     4  H    0.016799
     5  H    0.264186
     6  C   -0.592617
     7  H   -0.005109
     8  H    0.116405
     9  C   -0.644354
    10  H    0.058635
    11  H    0.541386
    12  H    0.063186
    13  H    0.056856
    14  H    0.512230
 Sum of Mulliken charges =   0.00000

 Dipole moment (field-independent basis, Debye):
    X=             -0.4840    Y=              0.0509    Z=             -0.0050  Tot=              0.4867
 Quadrupole moment (field-independent basis, Debye-Ang):
   XX=            -29.1999   YY=            -28.7747   ZZ=            -27.2486
   XY=              0.8707   XZ=              2.0081   YZ=              1.1096

 Normal termination of Gaussian 09 at Wed Aug 26 14:23:03 2020.
