 Gaussian 09, Revision D.01,
 Gaussian 09:  ES64L-G09RevD.01 24-Apr-2013

 --------------------
 #p B2PLYPD3/Def2QZVP
 --------------------

 ----------
 butane_opt
 ----------
 Symbolic Z-matrix:
 Charge =  0 Multiplicity = 1

                         Standard orientation:
 ---------------------------------------------------------------------
 Center     Atomic      Atomic             Coordinates (Angstroms)
 Number     Number       Type             X           Y           Z
 ---------------------------------------------------------------------
      1          6           0        1.829596    0.103844    0.063453
      2          6           0        0.607432   -0.429971   -0.022634
      3          1           0        2.675609   -1.053848   -0.686891
      4          1           0        2.199301    1.048363    1.086274
      5          1           0        1.798487    0.329835   -0.567346
      6          6           0       -0.540196    0.537828   -0.039611
      7          1           0        0.502700   -1.293216    1.046837
      8          1           0        0.425252   -0.982106   -0.807528
      9          6           0       -1.906278   -0.139468    0.023975
     10          1           0       -0.405493    1.311173   -1.035800
     11          1           0       -0.246308    1.320152    0.718248
     12          1           0       -2.008727   -0.563788   -0.607013
     13          1           0       -2.491117    0.286075   -0.365562
     14          1           0       -2.393026   -0.836040    1.067680
 ---------------------------------------------------------------------

 SCF Done:  E(RB2PLYPD3) =  -157.339376533     A.U. after   12 cycles
 E2(B2PLYPD3) =    -0.2556092042D+00 E(B2PLYPD3) =    -0.15759498573703D+03

 The electronic state is 1-A.
 Alpha  occ. eigenvalues --  -10.63909 -10.62500 -10.61318 -10.56882  -0.98974
 Alpha  occ. eigenvalues --   -0.93660  -0.79268  -0.67437  -0.57369  -0.51433
 Alpha  occ. eigenvalues --   -0.49693  -0.46405  -0.43665  -0.41984  -0.39879
 Alpha  occ. eigenvalues --   -0.34549  -0.31965
 Alpha virt. eigenvalues --    0.00870   0.05777   0.05842   0.06284   0.09361
 Alpha virt. eigenvalues --    0.10571   0.11780   0.12501   0.13870   0.15258
 Alpha virt. eigenvalues --    0.15876   0.17478   0.18040   0.19199   0.19443

 Mulliken charges:
               1
     1  C   -0.710021
     2  C    0.022485
     3  H   -0.035132
     4  H    0.075704
     5  H    0.584648
     6  C    0.001438
     7  H   -0.018438
     8  H    0.075684
     9  C   -0.480510
    10  H   -0.012244
    11  H    0.029717
    12  H    0.263541
    13  H    0.148085
    14  H    0.055042
 Sum of Mulliken charges =   0.00000

 Dipole moment (field-independent basis, Debye):
    X=             -1.0127    Y=              0.6805    Z=             -0.8322  Tot=              1.4769
 Quadrupole moment (field-independent basis, Debye-Ang):
   XX=            -31.6074   YY=            -29.6898   ZZ=            -27.9811
   XY=              2.3392   XZ=              1.2880   YZ=              0.9350

 Normal termination of Gaussian 09 at Wed Aug 26 11:44:35 2020.
