 Gaussian 09, Revision D.01,
 Gaussian 09:  ES64L-G09RevD.01 24-Apr-2013

 --------------------
 #p B2PLYPD3/Def2QZVP
 --------------------

 ----------
 butane_opt
 ----------
 Symbolic Z-matrix:
 Charge =  0 Multiplicity = 1

                         Standard orientation:
 ---------------------------------------------------------------------
 Center     Atomic      Atomic             Coordinates (Angstroms)
 Number     Number       Type             X           Y           Z
 ---------------------------------------------------------------------
      1          6           0       -1.905179   -0.125888   -0.178619
      2          6           0       -0.554401    0.523538    0.174702
      3          1           0       -2.514298    0.365977   -0.531493
      4          1           0       -2.658239   -0.541349    0.773892
      5          1           0       -1.475763   -0.899205   -1.159343
      6          6           0        0.613588   -0.489736    0.120227
      7          1           0       -0.546125    1.578324    1.421731
      8          1           0       -0.390092    0.902300   -0.544187
      9          6           0        1.875820    0.086102   -0.123528
     10          1           0        0.351475   -0.882624   -0.564090
     11          1           0        0.391104   -1.280602    1.194520
     12          1           0        2.198253    1.036597   -1.312797
     13          1           0        2.642583   -0.633166    0.346109
     14          1           0        1.822136    0.389650    0.418970
 ---------------------------------------------------------------------

 SCF Done:  E(RB2PLYPD3) =  -157.252271861     A.U. after   12 cycles
 E2(B2PLYPD3) =    -0.2555837876D+00 E(B2PLYPD3) =    -0.15750785564816D+03

 The electronic state is 1-A.
 Alpha  occ. eigenvalues --  -10.62784 -10.62684 -10.60596 -10.60035  -0.98847
 Alpha  occ. eigenvalues --   -0.89468  -0.78465  -0.70559  -0.54994  -0.52063
 Alpha  occ. eigenvalues --   -0.48360  -0.45690  -0.43089  -0.40699  -0.39780
 Alpha  occ. eigenvalues --   -0.35505  -0.34118
 Alpha virt. eigenvalues --    0.02778   0.03506   0.05034   0.06775   0.10188
 Alpha virt. eigenvalues --    0.11090   0.11478   0.12945   0.14168   0.14535
 Alpha virt. eigenvalues --    0.15097   0.15712   0.17525   0.19328   0.21226

 Mulliken charges:
               1
     1  C   -0.196612
     2  C   -0.293873
     3  H    0.136098
     4  H    0.033385
     5  H    0.016119
     6  C   -0.165383
     7  H   -0.031641
     8  H    0.288046
     9  C   -0.850414
    10  H    0.226875
    11  H    0.028413
    12  H    0.050358
    13  H    0.090217
    14  H    0.668410
 Sum of Mulliken charges =   0.00000

 Dipole moment (field-independent basis, Debye):
    X=             -0.1644    Y=              0.0121    Z=             -0.5228  Tot=              0.5482
 Quadrupole moment (field-independent basis, Debye-Ang):
   XX=            -29.0035   YY=            -30.8023   ZZ=            -28.3739
   XY=             -0.4045   XZ=              0.7810   YZ=             -1.2704

 Normal termination of Gaussian 09 at Wed Aug 26 10:02:43 2020.
