 Gaussian 09, Revision D.01,
 Gaussian 09:  ES64L-G09RevD.01 24-Apr-2013

 --------------------
 #p B2PLYPD3/Def2QZVP
 --------------------

 ----------
 butane_opt
 ----------
 Symbolic Z-matrix:
 Charge =  0 Multiplicity = 1

                         Standard orientation:
 ---------------------------------------------------------------------
 Center     Atomic      Atomic             Coordinates (Angstroms)
 Number     Number       Type             X           Y           Z
 ---------------------------------------------------------------------
      1          6           0        2.008064   -0.188056    0.075073
      2          6           0        0.532640    0.626243   -0.084833
      3          1           0        2.860023    0.501917   -0.510608
      4          1           0        1.924369   -0.274176   -0.503502
      5          1           0        2.474988   -1.457971    1.349154
      6          6           0       -0.619172   -0.506630   -0.127947
      7          1           0        0.535120    1.510302   -0.998120
      8          1           0        0.502551    1.223718    0.733836
      9          6           0       -1.981003    0.042914    0.160717
     10          1           0       -0.330952   -0.775220    0.475249
     11          1           0       -0.897850   -1.485360   -1.258733
     12          1           0       -1.977068    0.962074    1.405844
     13          1           0       -2.666667   -0.624201   -0.242076
     14          1           0       -2.067695    0.572088   -0.589093
 ---------------------------------------------------------------------

 SCF Done:  E(RB2PLYPD3) =  -157.004037511     A.U. after   13 cycles
 E2(B2PLYPD3) =    -0.2624789180D+00 E(B2PLYPD3) =    -0.15726651642942D+03

 The electronic state is 1-A.
 Alpha  occ. eigenvalues --  -10.64822 -10.63997 -10.62034 -10.61453  -0.95066
 Alpha  occ. eigenvalues --   -0.89952  -0.79067  -0.70692  -0.51597  -0.48745
 Alpha  occ. eigenvalues --   -0.48088  -0.44202  -0.41328  -0.39596  -0.36812
 Alpha  occ. eigenvalues --   -0.35425  -0.34828
 Alpha virt. eigenvalues --   -0.02590   0.02967   0.03997   0.06131   0.09039
 Alpha virt. eigenvalues --    0.10150   0.11699   0.12381   0.13069   0.15130
 Alpha virt. eigenvalues --    0.15688   0.16000   0.16794   0.18158   0.19475

 Mulliken charges:
               1
     1  C   -0.973131
     2  C   -0.031273
     3  H    0.051148
     4  H    0.799273
     5  H    0.059188
     6  C   -0.566110
     7  H    0.011589
     8  H    0.077518
     9  C   -0.160028
    10  H    0.517340
    11  H    0.014476
    12  H    0.029441
    13  H    0.054880
    14  H    0.115690
 Sum of Mulliken charges =   0.00000

 Dipole moment (field-independent basis, Debye):
    X=             -0.3639    Y=              0.0789    Z=             -0.5608  Tot=              0.6732
 Quadrupole moment (field-independent basis, Debye-Ang):
   XX=            -31.5070   YY=            -29.1418   ZZ=            -28.2987
   XY=             -0.0131   XZ=              0.8986   YZ=             -0.5321

 Normal termination of Gaussian 09 at Wed Aug 26 12:40:09 2020.
