 Gaussian 09, Revision D.01,
 Gaussian 09:  ES64L-G09RevD.01 24-Apr-2013

 --------------------
 #p B2PLYPD3/Def2QZVP
 --------------------

 ----------
 butane_opt
 ----------
 Symbolic Z-matrix:
 Charge =  0 Multiplicity = 1

                         Standard orientation:
 ---------------------------------------------------------------------
 Center     Atomic      Atomic             Coordinates (Angstroms)
 Number     Number       Type             X           Y           Z
 ---------------------------------------------------------------------
      1          6           0       -1.963839   -0.135652   -0.050661
      2          6           0       -0.568471    0.507035    0.148422
      3          1           0       -2.656432    0.547717   -0.329826
      4          1           0       -2.231051   -0.982322    0.843272
      5          1           0       -1.914850   -0.537807   -0.853322
      6          6           0        0.559632   -0.454214   -0.013108
      7          1           0       -0.536334    1.074690    0.964822
      8          1           0       -0.424916    1.196544   -0.744626
      9          6           0        1.935434    0.101122   -0.046467
     10          1           0        0.476712   -1.104950   -0.873797
     11          1           0        0.606235   -1.102529    0.757683
     12          1           0        2.053485    0.867287   -0.907253
     13          1           0        2.841667   -0.778421    0.059341
     14          1           0        2.008950    0.710046    0.854592
 ---------------------------------------------------------------------

 SCF Done:  E(RB2PLYPD3) =  -158.030354551     A.U. after   11 cycles
 E2(B2PLYPD3) =    -0.2468081526D+00 E(B2PLYPD3) =    -0.15827716270391D+03

 The electronic state is 1-A.
 Alpha  occ. eigenvalues --  -10.61810 -10.59923 -10.58639 -10.58516  -0.92581
 Alpha  occ. eigenvalues --   -0.84716  -0.73693  -0.67502  -0.55135  -0.50327
 Alpha  occ. eigenvalues --   -0.48979  -0.46759  -0.43083  -0.41381  -0.38683
 Alpha  occ. eigenvalues --   -0.38330  -0.36937
 Alpha virt. eigenvalues --    0.05606   0.06658   0.08171   0.08888   0.10817
 Alpha virt. eigenvalues --    0.11701   0.12651   0.13535   0.14589   0.14925
 Alpha virt. eigenvalues --    0.15870   0.16568   0.19679   0.20315   0.21188

 Mulliken charges:
               1
     1  C   -0.191762
     2  C   -0.039433
     3  H    0.041811
     4  H    0.033863
     5  H    0.093336
     6  C   -0.007476
     7  H    0.054274
     8  H    0.004361
     9  C   -0.156815
    10  H    0.022963
    11  H    0.030833
    12  H    0.034814
    13  H    0.036759
    14  H    0.042473
 Sum of Mulliken charges =   0.00000

 Dipole moment (field-independent basis, Debye):
    X=             -0.1746    Y=              0.0184    Z=             -0.0694  Tot=              0.1888
 Quadrupole moment (field-independent basis, Debye-Ang):
   XX=            -30.4131   YY=            -28.7423   ZZ=            -28.0316
   XY=             -0.7370   XZ=              1.0219   YZ=             -0.2947

 Normal termination of Gaussian 09 at Wed Aug 26 11:48:14 2020.
