 Gaussian 09, Revision D.01,
 Gaussian 09:  ES64L-G09RevD.01 24-Apr-2013

 --------------------
 #p B2PLYPD3/Def2QZVP
 --------------------

 ----------
 butane_opt
 ----------
 Symbolic Z-matrix:
 Charge =  0 Multiplicity = 1

                         Standard orientation:
 ---------------------------------------------------------------------
 Center     Atomic      Atomic             Coordinates (Angstroms)
 Number     Number       Type             X           Y           Z
 ---------------------------------------------------------------------
      1          6           0       -2.012409   -0.123267    0.028601
      2          6           0       -0.540322    0.533148   -0.074004
      3          1           0       -2.707094    0.509345   -0.046793
      4          1           0       -2.075325   -0.876948    0.984334
      5          1           0       -2.187193   -0.679377   -0.735473
      6          6           0        0.573572   -0.498069    0.035397
      7          1           0       -0.521417    1.113469    0.709342
      8          1           0       -0.327814    1.349186   -1.128333
      9          6           0        1.974778    0.117290    0.032350
     10          1           0        0.606189   -1.306591   -0.817209
     11          1           0        0.440355   -0.982274    0.814909
     12          1           0        1.809063    0.368288   -0.561240
     13          1           0        2.854510   -0.676339   -0.445345
     14          1           0        2.135016    1.006630    1.091743
 ---------------------------------------------------------------------

 SCF Done:  E(RB2PLYPD3) =  -157.647752618     A.U. after   11 cycles
 E2(B2PLYPD3) =    -0.2494881275D+00 E(B2PLYPD3) =    -0.15789724074527D+03

 The electronic state is 1-A.
 Alpha  occ. eigenvalues --  -10.62676 -10.60116 -10.59898 -10.59049  -0.94073
 Alpha  occ. eigenvalues --   -0.86199  -0.76919  -0.68800  -0.54058  -0.50098
 Alpha  occ. eigenvalues --   -0.48292  -0.46863  -0.42640  -0.42329  -0.38695
 Alpha  occ. eigenvalues --   -0.37396  -0.36709
 Alpha virt. eigenvalues --    0.04915   0.06343   0.07597   0.07640   0.10371
 Alpha virt. eigenvalues --    0.11897   0.12268   0.13380   0.14294   0.15180
 Alpha virt. eigenvalues --    0.15855   0.16433   0.18625   0.19847   0.21275

 Mulliken charges:
               1
     1  C   -0.132736
     2  C   -0.084752
     3  H    0.058604
     4  H    0.028616
     5  H    0.053232
     6  C   -0.014684
     7  H    0.076977
     8  H   -0.009469
     9  C   -0.765529
    10  H    0.006440
    11  H    0.082379
    12  H    0.596290
    13  H    0.055867
    14  H    0.048767
 Sum of Mulliken charges =   0.00000

 Dipole moment (field-independent basis, Debye):
    X=             -0.5842    Y=             -0.1142    Z=             -0.0516  Tot=              0.5975
 Quadrupole moment (field-independent basis, Debye-Ang):
   XX=            -30.0506   YY=            -28.9172   ZZ=            -28.0200
   XY=             -0.4248   XZ=             -0.5441   YZ=              0.6932

 Normal termination of Gaussian 09 at Wed Aug 26 13:40:57 2020.
