 Gaussian 09, Revision D.01,
 Gaussian 09:  ES64L-G09RevD.01 24-Apr-2013

 --------------------
 #p B2PLYPD3/Def2QZVP
 --------------------

 ----------
 butane_opt
 ----------
 Symbolic Z-matrix:
 Charge =  0 Multiplicity = 1

                         Standard orientation:
 ---------------------------------------------------------------------
 Center     Atomic      Atomic             Coordinates (Angstroms)
 Number     Number       Type             X           Y           Z
 ---------------------------------------------------------------------
      1          6           0        1.931989   -0.173945   -0.162211
      2          6           0        0.505582    0.587034    0.162678
      3          1           0        2.590776    0.205140   -0.740554
      4          1           0        1.565253   -0.857766   -0.885421
      5          1           0        2.454255   -0.827185    0.916168
      6          6           0       -0.571863   -0.442821    0.113480
      7          1           0        0.250850    1.106671   -0.553711
      8          1           0        0.588979    1.678873    1.209499
      9          6           0       -1.860111    0.095642   -0.124032
     10          1           0       -0.652962   -1.234498    1.349465
     11          1           0       -0.473637   -0.831507   -0.554657
     12          1           0       -1.684372    0.542425    0.491600
     13          1           0       -2.749415   -0.884393   -0.081181
     14          1           0       -1.923317    0.706779   -1.090701
 ---------------------------------------------------------------------

 SCF Done:  E(RB2PLYPD3) =  -157.619318777     A.U. after   12 cycles
 E2(B2PLYPD3) =    -0.2533749370D+00 E(B2PLYPD3) =    -0.15787269371351D+03

 The electronic state is 1-A.
 Alpha  occ. eigenvalues --  -10.64071 -10.62267 -10.60467 -10.58543  -0.98642
 Alpha  occ. eigenvalues --   -0.85562  -0.75769  -0.71354  -0.57150  -0.51283
 Alpha  occ. eigenvalues --   -0.48971  -0.45545  -0.43056  -0.40969  -0.37683
 Alpha  occ. eigenvalues --   -0.36693  -0.34586
 Alpha virt. eigenvalues --    0.03567   0.06013   0.06451   0.06752   0.10566
 Alpha virt. eigenvalues --    0.11017   0.11497   0.12845   0.14924   0.15117
 Alpha virt. eigenvalues --    0.15825   0.16687   0.17737   0.19365   0.20285

 Mulliken charges:
               1
     1  C   -0.173929
     2  C   -0.104566
     3  H    0.069533
     4  H    0.045871
     5  H    0.042308
     6  C   -0.347771
     7  H    0.130817
     8  H   -0.004579
     9  C   -0.428382
    10  H   -0.005462
    11  H    0.359376
    12  H    0.318363
    13  H    0.055828
    14  H    0.042593
 Sum of Mulliken charges =   0.00000

 Dipole moment (field-independent basis, Debye):
    X=              0.1820    Y=             -0.0429    Z=             -1.1245  Tot=              1.1399
 Quadrupole moment (field-independent basis, Debye-Ang):
   XX=            -30.6801   YY=            -29.9079   ZZ=            -28.2984
   XY=              0.5293   XZ=             -0.3328   YZ=             -0.3733

 Normal termination of Gaussian 09 at Wed Aug 26 19:13:03 2020.
