 Gaussian 09, Revision D.01,
 Gaussian 09:  ES64L-G09RevD.01 24-Apr-2013

 --------------------
 #p B2PLYPD3/Def2QZVP
 --------------------

 ----------
 butane_opt
 ----------
 Symbolic Z-matrix:
 Charge =  0 Multiplicity = 1

                         Standard orientation:
 ---------------------------------------------------------------------
 Center     Atomic      Atomic             Coordinates (Angstroms)
 Number     Number       Type             X           Y           Z
 ---------------------------------------------------------------------
      1          6           0        1.923979   -0.176880   -0.076764
      2          6           0        0.503170    0.544269    0.131849
      3          1           0        2.828150    0.691960   -0.353509
      4          1           0        1.864079   -0.770496   -1.004769
      5          1           0        2.373563   -0.741242    0.795471
      6          6           0       -0.558609   -0.489602    0.073796
      7          1           0        0.490965    1.061915   -0.545676
      8          1           0        0.290983    1.373136    1.132946
      9          6           0       -1.884809    0.071131   -0.127342
     10          1           0       -0.569505   -1.151730    0.949748
     11          1           0       -0.414234   -0.966886   -0.677383
     12          1           0       -2.048004    0.567023    0.659995
     13          1           0       -2.717449   -0.656761    0.143509
     14          1           0       -2.000931    0.899570   -1.109567
 ---------------------------------------------------------------------

 SCF Done:  E(RB2PLYPD3) =  -157.934866462     A.U. after   11 cycles
 E2(B2PLYPD3) =    -0.2484412451D+00 E(B2PLYPD3) =    -0.15818330770701D+03

 The electronic state is 1-A.
 Alpha  occ. eigenvalues --  -10.63129 -10.60422 -10.59749 -10.57611  -0.94093
 Alpha  occ. eigenvalues --   -0.83648  -0.72914  -0.69775  -0.56040  -0.49976
 Alpha  occ. eigenvalues --   -0.48349  -0.47090  -0.41204  -0.40671  -0.39406
 Alpha  occ. eigenvalues --   -0.38255  -0.36598
 Alpha virt. eigenvalues --    0.05403   0.06295   0.08132   0.08223   0.10733
 Alpha virt. eigenvalues --    0.11485   0.12445   0.13938   0.14154   0.15028
 Alpha virt. eigenvalues --    0.15981   0.16357   0.19009   0.19687   0.21289

 Mulliken charges:
               1
     1  C   -0.159988
     2  C   -0.155412
     3  H    0.011638
     4  H    0.062264
     5  H    0.057115
     6  C   -0.064836
     7  H    0.155324
     8  H    0.002620
     9  C   -0.167928
    10  H    0.026878
    11  H    0.104177
    12  H    0.069456
    13  H    0.031251
    14  H    0.027443
 Sum of Mulliken charges =   0.00000

 Dipole moment (field-independent basis, Debye):
    X=             -0.1335    Y=             -0.2176    Z=             -0.0488  Tot=              0.2599
 Quadrupole moment (field-independent basis, Debye-Ang):
   XX=            -30.5464   YY=            -29.0295   ZZ=            -28.1875
   XY=             -0.1987   XZ=             -1.2013   YZ=             -0.7161

 Normal termination of Gaussian 09 at Wed Aug 26 12:27:12 2020.
