 Gaussian 09, Revision D.01,
 Gaussian 09:  ES64L-G09RevD.01 24-Apr-2013

 --------------------
 #p B2PLYPD3/Def2QZVP
 --------------------

 ----------
 butane_opt
 ----------
 Symbolic Z-matrix:
 Charge =  0 Multiplicity = 1

                         Standard orientation:
 ---------------------------------------------------------------------
 Center     Atomic      Atomic             Coordinates (Angstroms)
 Number     Number       Type             X           Y           Z
 ---------------------------------------------------------------------
      1          6           0       -1.993421   -0.166014   -0.096006
      2          6           0       -0.557269    0.525687    0.074012
      3          1           0       -2.722242    0.613331   -0.306103
      4          1           0       -2.378256   -0.847803    0.856380
      5          1           0       -2.022029   -0.593069   -0.775143
      6          6           0        0.573635   -0.461852    0.060803
      7          1           0       -0.601912    1.444114    1.050455
      8          1           0       -0.193948    1.027091   -0.659964
      9          6           0        1.947607    0.081250   -0.049800
     10          1           0        0.528372   -1.208682   -0.826578
     11          1           0        0.657441   -1.150707    1.010567
     12          1           0        2.101998    0.829260   -1.050843
     13          1           0        2.733455   -0.664163    0.003662
     14          1           0        2.073814    0.676198    0.763512
 ---------------------------------------------------------------------

 SCF Done:  E(RB2PLYPD3) =  -157.942465926     A.U. after   11 cycles
 E2(B2PLYPD3) =    -0.2483840592D+00 E(B2PLYPD3) =    -0.15819084998510D+03

 The electronic state is 1-A.
 Alpha  occ. eigenvalues --  -10.62257 -10.61921 -10.60364 -10.58991  -0.92153
 Alpha  occ. eigenvalues --   -0.84844  -0.75682  -0.65587  -0.53885  -0.51035
 Alpha  occ. eigenvalues --   -0.48959  -0.47087  -0.42946  -0.40825  -0.39397
 Alpha  occ. eigenvalues --   -0.37798  -0.35346
 Alpha virt. eigenvalues --    0.05547   0.06489   0.07376   0.08520   0.10737
 Alpha virt. eigenvalues --    0.11701   0.12882   0.13486   0.14593   0.15052
 Alpha virt. eigenvalues --    0.15479   0.16368   0.18849   0.20361   0.21552

 Mulliken charges:
               1
     1  C   -0.314466
     2  C   -0.070404
     3  H    0.040704
     4  H    0.048215
     5  H    0.214495
     6  C   -0.011770
     7  H   -0.001629
     8  H    0.083236
     9  C   -0.142601
    10  H    0.018867
    11  H    0.009642
    12  H    0.004518
    13  H    0.055360
    14  H    0.065833
 Sum of Mulliken charges =   0.00000

 Dipole moment (field-independent basis, Debye):
    X=             -0.0016    Y=             -0.1638    Z=             -0.2853  Tot=              0.3290
 Quadrupole moment (field-independent basis, Debye-Ang):
   XX=            -29.0713   YY=            -29.2130   ZZ=            -28.6296
   XY=             -0.4433   XZ=              0.8440   YZ=             -0.1148

 Normal termination of Gaussian 09 at Wed Aug 26 22:14:43 2020.
