 Gaussian 09, Revision D.01,
 Gaussian 09:  ES64L-G09RevD.01 24-Apr-2013

 --------------------
 #p B2PLYPD3/Def2QZVP
 --------------------

 ----------
 butane_opt
 ----------
 Symbolic Z-matrix:
 Charge =  0 Multiplicity = 1

                         Standard orientation:
 ---------------------------------------------------------------------
 Center     Atomic      Atomic             Coordinates (Angstroms)
 Number     Number       Type             X           Y           Z
 ---------------------------------------------------------------------
      1          6           0        2.077600   -0.166152   -0.123236
      2          6           0        0.534609    0.651247    0.127642
      3          1           0        2.704456    0.523946   -0.629529
      4          1           0        1.853263   -0.699741   -0.876128
      5          1           0        2.575514   -1.168346    1.077523
      6          6           0       -0.640854   -0.421574    0.102592
      7          1           0        0.512622    0.843502   -0.539571
      8          1           0        0.314278    1.675471    1.223045
      9          6           0       -2.006228    0.036484   -0.169152
     10          1           0       -0.428215   -1.073906    1.104076
     11          1           0       -0.266858   -1.085223   -0.712772
     12          1           0       -2.215878    0.527960    0.693145
     13          1           0       -2.916216   -0.880949    0.113956
     14          1           0       -1.923726    0.737254   -1.080824
 ---------------------------------------------------------------------

 SCF Done:  E(RB2PLYPD3) =  -157.629642754     A.U. after   12 cycles
 E2(B2PLYPD3) =    -0.2563588948D+00 E(B2PLYPD3) =    -0.15788600164911D+03

 The electronic state is 1-A.
 Alpha  occ. eigenvalues --  -10.64735 -10.62975 -10.62465 -10.62398  -0.92974
 Alpha  occ. eigenvalues --   -0.84635  -0.75790  -0.67292  -0.53718  -0.49168
 Alpha  occ. eigenvalues --   -0.48549  -0.45803  -0.41901  -0.39004  -0.37840
 Alpha  occ. eigenvalues --   -0.35868  -0.34673
 Alpha virt. eigenvalues --    0.02457   0.04310   0.06066   0.08232   0.09207
 Alpha virt. eigenvalues --    0.10193   0.10888   0.12355   0.13812   0.14669
 Alpha virt. eigenvalues --    0.15463   0.15787   0.17218   0.18468   0.20177

 Mulliken charges:
               1
     1  C   -0.200349
     2  C   -0.660667
     3  H    0.065142
     4  H    0.109753
     5  H    0.026077
     6  C   -0.005904
     7  H    0.582397
     8  H    0.024502
     9  C   -0.159751
    10  H    0.028425
    11  H    0.031171
    12  H    0.066522
    13  H    0.037986
    14  H    0.054696
 Sum of Mulliken charges =   0.00000

 Dipole moment (field-independent basis, Debye):
    X=             -0.2759    Y=              0.1635    Z=             -0.7398  Tot=              0.8063
 Quadrupole moment (field-independent basis, Debye-Ang):
   XX=            -31.2840   YY=            -30.2652   ZZ=            -28.2094
   XY=             -0.0436   XZ=             -2.5400   YZ=             -0.9062

 Normal termination of Gaussian 09 at Wed Aug 26 10:13:40 2020.
