 Gaussian 09, Revision D.01,
 Gaussian 09:  ES64L-G09RevD.01 24-Apr-2013

 --------------------
 #p B2PLYPD3/Def2QZVP
 --------------------

 ----------
 butane_opt
 ----------
 Symbolic Z-matrix:
 Charge =  0 Multiplicity = 1

                         Standard orientation:
 ---------------------------------------------------------------------
 Center     Atomic      Atomic             Coordinates (Angstroms)
 Number     Number       Type             X           Y           Z
 ---------------------------------------------------------------------
      1          6           0        1.911383   -0.109709   -0.139482
      2          6           0        0.634454    0.406946    0.048472
      3          1           0        2.727589    0.914444   -0.253236
      4          1           0        1.980666   -0.986120   -0.946803
      5          1           0        1.743967   -0.597203    0.793499
      6          6           0       -0.504631   -0.503419    0.319804
      7          1           0        0.355579    0.784635   -0.841760
      8          1           0        0.539431    1.516911    1.033172
      9          6           0       -1.892489    0.135762   -0.222813
     10          1           0       -0.726022   -1.191930    1.472284
     11          1           0       -0.334692   -0.904027   -0.333035
     12          1           0       -2.709863    1.240868    0.792570
     13          1           0       -2.714158   -0.730843   -0.841516
     14          1           0       -1.754805    0.375787   -0.911065
 ---------------------------------------------------------------------

 SCF Done:  E(RB2PLYPD3) =  -157.527889873     A.U. after   12 cycles
 E2(B2PLYPD3) =    -0.2584365264D+00 E(B2PLYPD3) =    -0.15778632639899D+03

 The electronic state is 1-A.
 Alpha  occ. eigenvalues --  -10.64707 -10.63386 -10.63038 -10.61957  -0.98062
 Alpha  occ. eigenvalues --   -0.87534  -0.77695  -0.66262  -0.56242  -0.52674
 Alpha  occ. eigenvalues --   -0.49006  -0.45003  -0.42056  -0.39430  -0.37558
 Alpha  occ. eigenvalues --   -0.34912  -0.33600
 Alpha virt. eigenvalues --    0.01600   0.04198   0.05979   0.07007   0.07412
 Alpha virt. eigenvalues --    0.10274   0.11183   0.12141   0.12800   0.15171
 Alpha virt. eigenvalues --    0.15611   0.16036   0.18133   0.18587   0.19528

 Mulliken charges:
               1
     1  C   -0.174177
     2  C   -0.025020
     3  H    0.075901
     4  H    0.041125
     5  H    0.065354
     6  C   -0.405029
     7  H    0.056816
     8  H   -0.024703
     9  C   -0.517524
    10  H    0.052008
    11  H    0.401376
    12  H    0.016452
    13  H    0.022546
    14  H    0.414875
 Sum of Mulliken charges =   0.00000

 Dipole moment (field-independent basis, Debye):
    X=              0.5388    Y=             -0.4899    Z=             -1.0356  Tot=              1.2660
 Quadrupole moment (field-independent basis, Debye-Ang):
   XX=            -33.0634   YY=            -30.4436   ZZ=            -28.4249
   XY=              0.6985   XZ=             -0.0136   YZ=              0.1364

 Normal termination of Gaussian 09 at Wed Aug 26 14:35:16 2020.
