 Gaussian 09, Revision D.01,
 Gaussian 09:  ES64L-G09RevD.01 24-Apr-2013

 --------------------
 #p B2PLYPD3/Def2QZVP
 --------------------

 ----------
 butane_opt
 ----------
 Symbolic Z-matrix:
 Charge =  0 Multiplicity = 1

                         Standard orientation:
 ---------------------------------------------------------------------
 Center     Atomic      Atomic             Coordinates (Angstroms)
 Number     Number       Type             X           Y           Z
 ---------------------------------------------------------------------
      1          6           0       -2.090723    0.145535    0.069507
      2          6           0       -0.556485   -0.653422   -0.096861
      3          1           0       -2.686568   -0.468814   -0.333265
      4          1           0       -1.880454    0.226288   -0.419219
      5          1           0       -2.495144    1.484222    1.279661
      6          6           0        0.602039    0.471377   -0.218181
      7          1           0       -0.351802   -1.132962   -0.900725
      8          1           0       -0.178231   -1.231199    0.867291
      9          6           0        1.950747   -0.010914    0.172335
     10          1           0        0.228715    0.869782    0.380427
     11          1           0        0.919269    1.302674   -1.271443
     12          1           0        2.019964   -0.776284    1.239869
     13          1           0        2.816500    0.729303    0.188296
     14          1           0        2.174284   -0.718468   -0.591697
 ---------------------------------------------------------------------

 SCF Done:  E(RB2PLYPD3) =  -156.991980761     A.U. after   13 cycles
 E2(B2PLYPD3) =    -0.2591162636D+00 E(B2PLYPD3) =    -0.15725109702491D+03

 The electronic state is 1-A.
 Alpha  occ. eigenvalues --  -10.63586 -10.63568 -10.62177 -10.60291  -0.96664
 Alpha  occ. eigenvalues --   -0.89574  -0.76356  -0.69486  -0.53230  -0.51835
 Alpha  occ. eigenvalues --   -0.48592  -0.44930  -0.44091  -0.38699  -0.36487
 Alpha  occ. eigenvalues --   -0.35924  -0.35022
 Alpha virt. eigenvalues --   -0.02410   0.05691   0.06197   0.07208   0.09866
 Alpha virt. eigenvalues --    0.10839   0.11901   0.12638   0.14204   0.14775
 Alpha virt. eigenvalues --    0.15389   0.16775   0.17480   0.18685   0.20007

 Mulliken charges:
               1
     1  C   -0.899503
     2  C   -0.133046
     3  H    0.069166
     4  H    0.767276
     5  H    0.069030
     6  C   -0.312110
     7  H    0.110556
     8  H    0.051212
     9  C   -0.127534
    10  H    0.273502
    11  H    0.015069
    12  H    0.004198
    13  H    0.057405
    14  H    0.054778
 Sum of Mulliken charges =   0.00000

 Dipole moment (field-independent basis, Debye):
    X=              0.0176    Y=              0.0616    Z=             -0.4706  Tot=              0.4749
 Quadrupole moment (field-independent basis, Debye-Ang):
   XX=            -29.5292   YY=            -28.9600   ZZ=            -28.3641
   XY=             -0.1527   XZ=              0.0002   YZ=              1.4662

 Normal termination of Gaussian 09 at Wed Aug 26 16:17:59 2020.
