 Gaussian 09, Revision D.01,
 Gaussian 09:  ES64L-G09RevD.01 24-Apr-2013

 --------------------
 #p B2PLYPD3/Def2QZVP
 --------------------

 ----------
 butane_opt
 ----------
 Symbolic Z-matrix:
 Charge =  0 Multiplicity = 1

                         Standard orientation:
 ---------------------------------------------------------------------
 Center     Atomic      Atomic             Coordinates (Angstroms)
 Number     Number       Type             X           Y           Z
 ---------------------------------------------------------------------
      1          6           0        1.929038    0.102167   -0.196147
      2          6           0        0.626912   -0.548017    0.230797
      3          1           0        2.810476   -0.651451   -0.178783
      4          1           0        2.416991    0.813815    0.563189
      5          1           0        1.769618    0.726791   -1.165580
      6          6           0       -0.599640    0.617054    0.086642
      7          1           0        0.896658   -1.302718    1.171813
      8          1           0        0.344110   -0.905696   -0.532837
      9          6           0       -1.993171   -0.199833   -0.138178
     10          1           0       -0.204270    0.760084   -0.566247
     11          1           0       -0.534123    1.609742    1.169270
     12          1           0       -2.281914   -0.725355   -0.927355
     13          1           0       -2.766918    0.401146   -0.105272
     14          1           0       -2.229460   -0.554580    0.673118
 ---------------------------------------------------------------------

 SCF Done:  E(RB2PLYPD3) =  -157.782320952     A.U. after   11 cycles
 E2(B2PLYPD3) =    -0.2512024800D+00 E(B2PLYPD3) =    -0.15803352343245D+03

 The electronic state is 1-A.
 Alpha  occ. eigenvalues --  -10.62908 -10.61838 -10.60704 -10.56639  -0.92951
 Alpha  occ. eigenvalues --   -0.85223  -0.77076  -0.68133  -0.54485  -0.51030
 Alpha  occ. eigenvalues --   -0.48243  -0.45955  -0.44220  -0.41002  -0.39333
 Alpha  occ. eigenvalues --   -0.38835  -0.32859
 Alpha virt. eigenvalues --    0.05059   0.06801   0.07351   0.08185   0.10847
 Alpha virt. eigenvalues --    0.11910   0.12554   0.13947   0.14340   0.14526
 Alpha virt. eigenvalues --    0.15643   0.17177   0.18002   0.19999   0.20634

 Mulliken charges:
               1
     1  C   -0.131347
     2  C   -0.223183
     3  H    0.040468
     4  H    0.032368
     5  H    0.037853
     6  C   -0.415734
     7  H    0.037964
     8  H    0.181533
     9  C   -0.101261
    10  H    0.377250
    11  H    0.026716
    12  H    0.035600
    13  H    0.029496
    14  H    0.072278
 Sum of Mulliken charges =   0.00000

 Dipole moment (field-independent basis, Debye):
    X=             -0.3027    Y=             -0.2651    Z=             -0.2304  Tot=              0.4637
 Quadrupole moment (field-independent basis, Debye-Ang):
   XX=            -27.4729   YY=            -29.7974   ZZ=            -28.1114
   XY=              0.1470   XZ=              0.7828   YZ=              0.0829

 Normal termination of Gaussian 09 at Wed Aug 26 15:15:03 2020.
