 Gaussian 09, Revision D.01,
 Gaussian 09:  ES64L-G09RevD.01 24-Apr-2013

 --------------------
 #p B2PLYPD3/Def2QZVP
 --------------------

 ----------
 butane_opt
 ----------
 Symbolic Z-matrix:
 Charge =  0 Multiplicity = 1

                         Standard orientation:
 ---------------------------------------------------------------------
 Center     Atomic      Atomic             Coordinates (Angstroms)
 Number     Number       Type             X           Y           Z
 ---------------------------------------------------------------------
      1          6           0       -1.937927   -0.210931   -0.123186
      2          6           0       -0.509744    0.494231    0.124850
      3          1           0       -2.869503    0.643580   -0.757314
      4          1           0       -2.660822   -0.795218    0.910185
      5          1           0       -1.507527   -0.471679   -0.689640
      6          6           0        0.536293   -0.414663    0.222136
      7          1           0       -0.404208    1.584253    1.178252
      8          1           0       -0.306385    0.892827   -0.688417
      9          6           0        1.916281    0.079598   -0.103609
     10          1           0        0.332849   -1.166826   -0.781043
     11          1           0        0.663803   -0.854712    1.020546
     12          1           0        1.720878    0.720200   -1.186052
     13          1           0        2.694671   -0.809702   -0.268867
     14          1           0        2.306830    0.567867    0.541207
 ---------------------------------------------------------------------

 SCF Done:  E(RB2PLYPD3) =  -157.677590764     A.U. after   11 cycles
 E2(B2PLYPD3) =    -0.2542502157D+00 E(B2PLYPD3) =    -0.15793184097953D+03

 The electronic state is 1-A.
 Alpha  occ. eigenvalues --  -10.63681 -10.63264 -10.61207 -10.60485  -0.97115
 Alpha  occ. eigenvalues --   -0.87075  -0.75890  -0.68567  -0.56597  -0.51199
 Alpha  occ. eigenvalues --   -0.49758  -0.47584  -0.42804  -0.39604  -0.38602
 Alpha  occ. eigenvalues --   -0.36874  -0.33329
 Alpha virt. eigenvalues --    0.04353   0.05153   0.05783   0.07984   0.09097
 Alpha virt. eigenvalues --    0.10061   0.11756   0.12692   0.14153   0.15021
 Alpha virt. eigenvalues --    0.15649   0.16584   0.17813   0.19566   0.20893

 Mulliken charges:
               1
     1  C   -0.485017
     2  C   -0.099261
     3  H    0.019960
     4  H    0.080384
     5  H    0.373480
     6  C   -0.036833
     7  H   -0.041700
     8  H    0.129943
     9  C   -0.166828
    10  H    0.003064
    11  H    0.072493
    12  H    0.013776
    13  H    0.038716
    14  H    0.097823
 Sum of Mulliken charges =   0.00000

 Dipole moment (field-independent basis, Debye):
    X=              0.5056    Y=             -0.5424    Z=              0.0074  Tot=              0.7415
 Quadrupole moment (field-independent basis, Debye-Ang):
   XX=            -29.6005   YY=            -31.1613   ZZ=            -28.6472
   XY=              0.0029   XZ=              0.5555   YZ=             -1.0568

 Normal termination of Gaussian 09 at Wed Aug 26 12:29:51 2020.
