 Gaussian 09, Revision D.01,
 Gaussian 09:  ES64L-G09RevD.01 24-Apr-2013

 --------------------
 #p B2PLYPD3/Def2QZVP
 --------------------

 ----------
 butane_opt
 ----------
 Symbolic Z-matrix:
 Charge =  0 Multiplicity = 1

                         Standard orientation:
 ---------------------------------------------------------------------
 Center     Atomic      Atomic             Coordinates (Angstroms)
 Number     Number       Type             X           Y           Z
 ---------------------------------------------------------------------
      1          6           0        1.876616    0.105789   -0.031012
      2          6           0        0.455337   -0.507836    0.051714
      3          1           0        2.933255   -0.854079    0.033775
      4          1           0        2.077274    0.775582    0.789307
      5          1           0        2.047702    0.614705   -1.044231
      6          6           0       -0.519295    0.539224    0.059593
      7          1           0        0.429521   -1.059186    0.888098
      8          1           0        0.469023   -1.132486   -0.753285
      9          6           0       -1.865600   -0.139712   -0.133230
     10          1           0       -0.150890    0.956102   -0.576421
     11          1           0       -0.688000    1.751738    1.209920
     12          1           0       -1.696986   -0.362996   -0.723515
     13          1           0       -2.580430    0.578728   -0.651433
     14          1           0       -2.522815   -1.252898    1.145392
 ---------------------------------------------------------------------

 SCF Done:  E(RB2PLYPD3) =  -157.440261512     A.U. after   12 cycles
 E2(B2PLYPD3) =    -0.2575325928D+00 E(B2PLYPD3) =    -0.15769779410437D+03

 The electronic state is 1-A.
 Alpha  occ. eigenvalues --  -10.63931 -10.63242 -10.62822 -10.59735  -0.98537
 Alpha  occ. eigenvalues --   -0.88120  -0.75888  -0.69983  -0.57178  -0.51301
 Alpha  occ. eigenvalues --   -0.50657  -0.45418  -0.42564  -0.40271  -0.37323
 Alpha  occ. eigenvalues --   -0.36721  -0.32944
 Alpha virt. eigenvalues --   -0.01394   0.03528   0.05128   0.07159   0.09314
 Alpha virt. eigenvalues --    0.09923   0.11621   0.12521   0.14044   0.15014
 Alpha virt. eigenvalues --    0.15235   0.16390   0.17608   0.19576   0.20246

 Mulliken charges:
               1
     1  C   -0.174763
     2  C   -0.034184
     3  H   -0.000425
     4  H    0.083370
     5  H    0.040843
     6  C   -0.149666
     7  H    0.056198
     8  H    0.052706
     9  C   -0.783729
    10  H    0.211619
    11  H   -0.043422
    12  H    0.629167
    13  H    0.076349
    14  H    0.035937
 Sum of Mulliken charges =   0.00000

 Dipole moment (field-independent basis, Debye):
    X=              0.0222    Y=             -0.3610    Z=             -1.1206  Tot=              1.1776
 Quadrupole moment (field-independent basis, Debye-Ang):
   XX=            -31.9670   YY=            -30.2818   ZZ=            -28.3911
   XY=              0.4452   XZ=              0.7637   YZ=             -1.2498

 Normal termination of Gaussian 09 at Wed Aug 26 14:50:27 2020.
