 Gaussian 09, Revision D.01,
 Gaussian 09:  ES64L-G09RevD.01 24-Apr-2013

 --------------------
 #p B2PLYPD3/Def2QZVP
 --------------------

 ----------
 butane_opt
 ----------
 Symbolic Z-matrix:
 Charge =  0 Multiplicity = 1

                         Standard orientation:
 ---------------------------------------------------------------------
 Center     Atomic      Atomic             Coordinates (Angstroms)
 Number     Number       Type             X           Y           Z
 ---------------------------------------------------------------------
      1          6           0        1.976572    0.132349    0.030181
      2          6           0        0.538668   -0.511418    0.001464
      3          1           0        2.751179   -0.495290    0.276360
      4          1           0        2.058093    1.262044    0.813092
      5          1           0        2.000298    0.357553   -0.706716
      6          6           0       -0.622180    0.358307   -0.352886
      7          1           0        0.387493   -0.816325    1.061873
      8          1           0        0.275713   -1.215555   -0.655884
      9          6           0       -1.853618   -0.042559    0.164841
     10          1           0       -0.649785    0.735505   -1.297330
     11          1           0       -0.471426    1.077135    0.301110
     12          1           0       -2.476705   -1.171534   -0.563795
     13          1           0       -2.693406    1.058666    0.604008
     14          1           0       -1.418107   -0.412272    1.105683
 ---------------------------------------------------------------------

 SCF Done:  E(RB2PLYPD3) =  -157.791152747     A.U. after   11 cycles
 E2(B2PLYPD3) =    -0.2525868503D+00 E(B2PLYPD3) =    -0.15804373959680D+03

 The electronic state is 1-A.
 Alpha  occ. eigenvalues --  -10.65866 -10.60299 -10.59512 -10.57823  -0.95988
 Alpha  occ. eigenvalues --   -0.86801  -0.74292  -0.66572  -0.58156  -0.53961
 Alpha  occ. eigenvalues --   -0.48541  -0.45549  -0.43949  -0.40402  -0.38984
 Alpha  occ. eigenvalues --   -0.37138  -0.33284
 Alpha virt. eigenvalues --    0.03485   0.05443   0.07775   0.08254   0.10023
 Alpha virt. eigenvalues --    0.10119   0.11923   0.13478   0.13919   0.14788
 Alpha virt. eigenvalues --    0.15237   0.16555   0.18589   0.19904   0.20748

 Mulliken charges:
               1
     1  C   -0.399668
     2  C   -0.056042
     3  H    0.069582
     4  H    0.011016
     5  H    0.304384
     6  C   -0.073235
     7  H    0.029976
     8  H    0.057609
     9  C   -0.146061
    10  H    0.033462
    11  H    0.083729
    12  H   -0.005776
    13  H    0.029917
    14  H    0.061107
 Sum of Mulliken charges =   0.00000

 Dipole moment (field-independent basis, Debye):
    X=              0.9305    Y=              0.1896    Z=             -0.1386  Tot=              0.9597
 Quadrupole moment (field-independent basis, Debye-Ang):
   XX=            -31.9572   YY=            -29.5845   ZZ=            -28.2800
   XY=             -1.1763   XZ=             -0.1789   YZ=              0.6260

 Normal termination of Gaussian 09 at Wed Aug 26 19:19:20 2020.
