 Gaussian 09, Revision D.01,
 Gaussian 09:  ES64L-G09RevD.01 24-Apr-2013

 --------------------
 #p B2PLYPD3/Def2QZVP
 --------------------

 ----------
 butane_opt
 ----------
 Symbolic Z-matrix:
 Charge =  0 Multiplicity = 1

                         Standard orientation:
 ---------------------------------------------------------------------
 Center     Atomic      Atomic             Coordinates (Angstroms)
 Number     Number       Type             X           Y           Z
 ---------------------------------------------------------------------
      1          6           0        1.831009    0.081007   -0.125184
      2          6           0        0.585095   -0.433317    0.233954
      3          1           0        2.829137   -1.056055   -0.803635
      4          1           0        2.665544    1.323993    0.773663
      5          1           0        1.473621    0.353899   -0.727655
      6          6           0       -0.560267    0.463588   -0.049874
      7          1           0        0.480633   -1.030981    1.355569
      8          1           0        0.531060   -0.964129   -0.381625
      9          6           0       -1.959081   -0.128428   -0.035439
     10          1           0       -0.280531    0.877513   -0.814522
     11          1           0       -0.185281    1.387297    0.657929
     12          1           0       -2.071448   -0.924751   -0.766866
     13          1           0       -2.792976    0.670542   -0.340078
     14          1           0       -2.030295   -0.534435    0.906479
 ---------------------------------------------------------------------

 SCF Done:  E(RB2PLYPD3) =  -157.588938696     A.U. after   12 cycles
 E2(B2PLYPD3) =    -0.2559678018D+00 E(B2PLYPD3) =    -0.15784490649732D+03

 The electronic state is 1-A.
 Alpha  occ. eigenvalues --  -10.65566 -10.61939 -10.60627 -10.59887  -1.01349
 Alpha  occ. eigenvalues --   -0.87423  -0.75079  -0.71161  -0.57158  -0.52232
 Alpha  occ. eigenvalues --   -0.49070  -0.46805  -0.44313  -0.41064  -0.38087
 Alpha  occ. eigenvalues --   -0.37227  -0.32732
 Alpha virt. eigenvalues --   -0.00452   0.04720   0.05632   0.07903   0.08740
 Alpha virt. eigenvalues --    0.10133   0.12244   0.12679   0.14403   0.14944
 Alpha virt. eigenvalues --    0.15360   0.16213   0.17811   0.19116   0.19559

 Mulliken charges:
               1
     1  C   -0.522125
     2  C   -0.213735
     3  H    0.004943
     4  H    0.003240
     5  H    0.420482
     6  C   -0.114870
     7  H    0.012565
     8  H    0.275074
     9  C   -0.144012
    10  H    0.087248
    11  H    0.023543
    12  H    0.040454
    13  H    0.049439
    14  H    0.077754
 Sum of Mulliken charges =   0.00000

 Dipole moment (field-independent basis, Debye):
    X=             -1.2384    Y=             -0.2684    Z=             -0.7880  Tot=              1.4922
 Quadrupole moment (field-independent basis, Debye-Ang):
   XX=            -32.6142   YY=            -29.7058   ZZ=            -29.0085
   XY=              0.1888   XZ=              0.0520   YZ=              0.3281

 Normal termination of Gaussian 09 at Wed Aug 26 15:47:00 2020.
