 Gaussian 09, Revision D.01,
 Gaussian 09:  ES64L-G09RevD.01 24-Apr-2013

 --------------------
 #p B2PLYPD3/Def2QZVP
 --------------------

 ----------
 butane_opt
 ----------
 Symbolic Z-matrix:
 Charge =  0 Multiplicity = 1

                         Standard orientation:
 ---------------------------------------------------------------------
 Center     Atomic      Atomic             Coordinates (Angstroms)
 Number     Number       Type             X           Y           Z
 ---------------------------------------------------------------------
      1          6           0        1.961945    0.067763   -0.052226
      2          6           0        0.594798   -0.502989    0.166969
      3          1           0        2.670573   -0.679957   -0.493175
      4          1           0        2.435286    0.872555    0.812229
      5          1           0        1.857936    0.614306   -1.001838
      6          6           0       -0.547909    0.565647    0.017697
      7          1           0        0.423560   -1.090857    1.163979
      8          1           0        0.448642   -1.210367   -0.695693
      9          6           0       -1.989458   -0.164000   -0.055897
     10          1           0       -0.429117    1.208308   -0.922827
     11          1           0       -0.379569    1.290658    0.870249
     12          1           0       -2.172517   -0.817792   -0.924019
     13          1           0       -2.745634    0.541630    0.029047
     14          1           0       -2.225417   -0.527007    0.702796
 ---------------------------------------------------------------------

 SCF Done:  E(RB2PLYPD3) =  -158.030946902     A.U. after   11 cycles
 E2(B2PLYPD3) =    -0.2483600944D+00 E(B2PLYPD3) =    -0.15827930699665D+03

 The electronic state is 1-A.
 Alpha  occ. eigenvalues --  -10.62357 -10.61971 -10.61890 -10.57433  -0.90022
 Alpha  occ. eigenvalues --   -0.84108  -0.73776  -0.65314  -0.53420  -0.48668
 Alpha  occ. eigenvalues --   -0.48055  -0.47504  -0.42576  -0.41183  -0.39065
 Alpha  occ. eigenvalues --   -0.37496  -0.36010
 Alpha virt. eigenvalues --    0.05644   0.06684   0.08160   0.08448   0.10467
 Alpha virt. eigenvalues --    0.11807   0.12539   0.14093   0.14752   0.15403
 Alpha virt. eigenvalues --    0.15677   0.16384   0.19420   0.19627   0.21080

 Mulliken charges:
               1
     1  C   -0.161155
     2  C   -0.038161
     3  H    0.049184
     4  H    0.035325
     5  H    0.045655
     6  C   -0.041761
     7  H    0.032417
     8  H    0.032099
     9  C   -0.178600
    10  H    0.026297
    11  H    0.028758
    12  H    0.049586
    13  H    0.028052
    14  H    0.092305
 Sum of Mulliken charges =   0.00000

 Dipole moment (field-independent basis, Debye):
    X=             -0.2735    Y=             -0.0654    Z=             -0.1040  Tot=              0.2998
 Quadrupole moment (field-independent basis, Debye-Ang):
   XX=            -29.3869   YY=            -29.3422   ZZ=            -27.9696
   XY=              0.2212   XZ=             -0.9632   YZ=              0.7108

 Normal termination of Gaussian 09 at Wed Aug 26 09:48:35 2020.
