 Gaussian 09, Revision D.01,
 Gaussian 09:  ES64L-G09RevD.01 24-Apr-2013

 --------------------
 #p B2PLYPD3/Def2QZVP
 --------------------

 ----------
 butane_opt
 ----------
 Symbolic Z-matrix:
 Charge =  0 Multiplicity = 1

                         Standard orientation:
 ---------------------------------------------------------------------
 Center     Atomic      Atomic             Coordinates (Angstroms)
 Number     Number       Type             X           Y           Z
 ---------------------------------------------------------------------
      1          6           0       -1.941904   -0.235640   -0.156274
      2          6           0       -0.488384    0.594492    0.348751
      3          1           0       -2.987021    0.730102   -0.857332
      4          1           0       -2.583952   -0.936265    0.749679
      5          1           0       -1.739717   -0.664692   -1.015083
      6          6           0        0.610814   -0.402221    0.194577
      7          1           0       -0.600660    1.146376    1.191254
      8          1           0       -0.222806    1.058466   -0.510506
      9          6           0        1.880869    0.079451   -0.226934
     10          1           0        0.187081   -0.962906   -0.703387
     11          1           0        1.009670   -1.279726    1.114937
     12          1           0        1.722898    0.864597   -1.181158
     13          1           0        2.744738   -0.857126   -0.350011
     14          1           0        2.101396    0.684685    0.600891
 ---------------------------------------------------------------------

 SCF Done:  E(RB2PLYPD3) =  -157.897156534     A.U. after   11 cycles
 E2(B2PLYPD3) =    -0.2554898538D+00 E(B2PLYPD3) =    -0.15815264638795D+03

 The electronic state is 1-A.
 Alpha  occ. eigenvalues --  -10.66793 -10.63251 -10.62853 -10.62213  -0.93962
 Alpha  occ. eigenvalues --   -0.82185  -0.72709  -0.65114  -0.56535  -0.50351
 Alpha  occ. eigenvalues --   -0.47154  -0.46259  -0.44816  -0.39174  -0.36588
 Alpha  occ. eigenvalues --   -0.36047  -0.33986
 Alpha virt. eigenvalues --    0.03790   0.04860   0.06942   0.08251   0.08460
 Alpha virt. eigenvalues --    0.10431   0.11263   0.12213   0.13676   0.15194
 Alpha virt. eigenvalues --    0.15509   0.16162   0.17875   0.18388   0.20158

 Mulliken charges:
               1
     1  C   -0.199454
     2  C   -0.097105
     3  H   -0.029444
     4  H    0.066338
     5  H    0.105315
     6  C   -0.044607
     7  H    0.067291
     8  H    0.103081
     9  C   -0.150028
    10  H    0.038591
    11  H    0.003124
    12  H    0.016169
    13  H    0.053643
    14  H    0.067085
 Sum of Mulliken charges =   0.00000

 Dipole moment (field-independent basis, Debye):
    X=              0.6915    Y=             -0.1096    Z=              0.1432  Tot=              0.7146
 Quadrupole moment (field-independent basis, Debye-Ang):
   XX=            -33.2500   YY=            -30.1656   ZZ=            -28.8210
   XY=              0.5618   XZ=             -0.0633   YZ=              0.4595

 Normal termination of Gaussian 09 at Wed Aug 26 22:36:00 2020.
