 Gaussian 09, Revision D.01,
 Gaussian 09:  ES64L-G09RevD.01 24-Apr-2013

 --------------------
 #p B2PLYPD3/Def2QZVP
 --------------------

 ----------
 butane_opt
 ----------
 Symbolic Z-matrix:
 Charge =  0 Multiplicity = 1

                         Standard orientation:
 ---------------------------------------------------------------------
 Center     Atomic      Atomic             Coordinates (Angstroms)
 Number     Number       Type             X           Y           Z
 ---------------------------------------------------------------------
      1          6           0        1.980470   -0.166812    0.082893
      2          6           0        0.483690    0.486470   -0.208171
      3          1           0        2.709922    0.634262   -0.149482
      4          1           0        2.093120   -0.681148   -0.598768
      5          1           0        2.044871   -0.823015    1.294337
      6          6           0       -0.555103   -0.380956   -0.006677
      7          1           0        0.325320    1.113782   -1.262300
      8          1           0        0.314934    1.211117    0.508326
      9          6           0       -1.896628    0.019253    0.060716
     10          1           0       -0.574986   -1.006735    1.174565
     11          1           0       -0.513141   -1.090173   -0.859792
     12          1           0       -1.888079    1.643220    1.274720
     13          1           0       -2.674456   -0.916657   -0.480740
     14          1           0       -1.912080    0.167617   -0.473435
 ---------------------------------------------------------------------

 SCF Done:  E(RB2PLYPD3) =  -157.095032859     A.U. after   13 cycles
 E2(B2PLYPD3) =    -0.2620672251D+00 E(B2PLYPD3) =    -0.15735710008373D+03

 The electronic state is 1-A.
 Alpha  occ. eigenvalues --  -10.64925 -10.62677 -10.62050 -10.61951  -0.99675
 Alpha  occ. eigenvalues --   -0.88366  -0.78827  -0.66700  -0.57091  -0.50333
 Alpha  occ. eigenvalues --   -0.49881  -0.46698  -0.41884  -0.39601  -0.39317
 Alpha  occ. eigenvalues --   -0.33685  -0.32507
 Alpha virt. eigenvalues --   -0.04535   0.04146   0.05408   0.06287   0.09270
 Alpha virt. eigenvalues --    0.10087   0.11630   0.12111   0.13293   0.14952
 Alpha virt. eigenvalues --    0.15626   0.15979   0.17552   0.19293   0.21358

 Mulliken charges:
               1
     1  C   -0.243177
     2  C   -0.051190
     3  H    0.049708
     4  H    0.149585
     5  H    0.056550
     6  C    0.060451
     7  H    0.009718
     8  H    0.048552
     9  C   -0.896194
    10  H    0.008545
    11  H    0.034969
    12  H   -0.032881
    13  H    0.066458
    14  H    0.738906
 Sum of Mulliken charges =   0.00000

 Dipole moment (field-independent basis, Debye):
    X=              0.7354    Y=             -0.3463    Z=             -1.4298  Tot=              1.6447
 Quadrupole moment (field-independent basis, Debye-Ang):
   XX=            -32.0312   YY=            -30.2517   ZZ=            -28.5817
   XY=              1.4192   XZ=              2.0027   YZ=              0.4451

 Normal termination of Gaussian 09 at Wed Aug 26 22:31:36 2020.
