 Gaussian 09, Revision D.01,
 Gaussian 09:  ES64L-G09RevD.01 24-Apr-2013

 --------------------
 #p B2PLYPD3/Def2QZVP
 --------------------

 ----------
 butane_opt
 ----------
 Symbolic Z-matrix:
 Charge =  0 Multiplicity = 1

                         Standard orientation:
 ---------------------------------------------------------------------
 Center     Atomic      Atomic             Coordinates (Angstroms)
 Number     Number       Type             X           Y           Z
 ---------------------------------------------------------------------
      1          6           0        1.986194    0.099242   -0.069165
      2          6           0        0.539445   -0.517517    0.120093
      3          1           0        2.762102   -0.743011   -0.136468
      4          1           0        2.134983    0.643297    0.759425
      5          1           0        2.081019    0.810520   -1.045096
      6          6           0       -0.562852    0.582651    0.107729
      7          1           0        0.486018   -1.100416    0.949340
      8          1           0        0.510288   -1.187493   -0.783511
      9          6           0       -1.984692   -0.131005   -0.100465
     10          1           0       -0.407187    1.079968   -0.677029
     11          1           0       -0.497336    1.363533    1.041369
     12          1           0       -1.844404   -0.645523   -0.830949
     13          1           0       -2.642871    0.375697   -0.509548
     14          1           0       -2.451188   -0.796804    0.883318
 ---------------------------------------------------------------------

 SCF Done:  E(RB2PLYPD3) =  -157.994018585     A.U. after   11 cycles
 E2(B2PLYPD3) =    -0.2467969656D+00 E(B2PLYPD3) =    -0.15824081555026D+03

 The electronic state is 1-A.
 Alpha  occ. eigenvalues --  -10.61000 -10.60765 -10.60406 -10.57930  -0.90783
 Alpha  occ. eigenvalues --   -0.83947  -0.74627  -0.67944  -0.53863  -0.49690
 Alpha  occ. eigenvalues --   -0.48752  -0.46676  -0.42083  -0.41613  -0.39612
 Alpha  occ. eigenvalues --   -0.38565  -0.36387
 Alpha virt. eigenvalues --    0.05672   0.06742   0.08116   0.09029   0.10905
 Alpha virt. eigenvalues --    0.11960   0.12841   0.13285   0.15125   0.15365
 Alpha virt. eigenvalues --    0.16066   0.16898   0.18961   0.19534   0.21918

 Mulliken charges:
               1
     1  C   -0.160962
     2  C   -0.039351
     3  H    0.042104
     4  H    0.067367
     5  H    0.026258
     6  C   -0.084791
     7  H    0.054116
     8  H    0.017611
     9  C   -0.193453
    10  H    0.087002
    11  H    0.016465
    12  H    0.087558
    13  H    0.049597
    14  H    0.030480
 Sum of Mulliken charges =   0.00000

 Dipole moment (field-independent basis, Debye):
    X=             -0.0359    Y=             -0.0130    Z=             -0.3219  Tot=              0.3242
 Quadrupole moment (field-independent basis, Debye-Ang):
   XX=            -29.8720   YY=            -28.9078   ZZ=            -27.5995
   XY=             -0.4291   XZ=              0.9101   YZ=             -0.3567

 Normal termination of Gaussian 09 at Wed Aug 26 11:34:40 2020.
