 Gaussian 09, Revision D.01,
 Gaussian 09:  ES64L-G09RevD.01 24-Apr-2013

 --------------------
 #p B2PLYPD3/Def2QZVP
 --------------------

 ----------
 butane_opt
 ----------
 Symbolic Z-matrix:
 Charge =  0 Multiplicity = 1

                         Standard orientation:
 ---------------------------------------------------------------------
 Center     Atomic      Atomic             Coordinates (Angstroms)
 Number     Number       Type             X           Y           Z
 ---------------------------------------------------------------------
      1          6           0       -1.997551   -0.173903   -0.054395
      2          6           0       -0.517249    0.593688    0.101605
      3          1           0       -2.729033    0.571672   -0.341218
      4          1           0       -2.364312   -0.812599    0.774784
      5          1           0       -2.040493   -0.623735   -0.787372
      6          6           0        0.577781   -0.508329    0.018849
      7          1           0       -0.401375    1.317678    1.001898
      8          1           0       -0.447563    1.084385   -0.719752
      9          6           0        1.942462    0.079529   -0.048325
     10          1           0        0.584989   -0.995457   -0.799028
     11          1           0        0.471991   -1.223257    0.962527
     12          1           0        2.106437    0.751065   -1.011184
     13          1           0        2.695015   -0.689017   -0.036551
     14          1           0        2.091689    0.673354    0.849497
 ---------------------------------------------------------------------

 SCF Done:  E(RB2PLYPD3) =  -158.013651068     A.U. after   11 cycles
 E2(B2PLYPD3) =    -0.2462020349D+00 E(B2PLYPD3) =    -0.15825985310316D+03

 The electronic state is 1-A.
 Alpha  occ. eigenvalues --  -10.60879 -10.59962 -10.59529 -10.57771  -0.91222
 Alpha  occ. eigenvalues --   -0.83921  -0.74638  -0.67612  -0.54877  -0.49752
 Alpha  occ. eigenvalues --   -0.48099  -0.46936  -0.43260  -0.42793  -0.39618
 Alpha  occ. eigenvalues --   -0.37951  -0.35970
 Alpha virt. eigenvalues --    0.05834   0.06933   0.08441   0.08875   0.10945
 Alpha virt. eigenvalues --    0.11985   0.12787   0.13752   0.15268   0.15372
 Alpha virt. eigenvalues --    0.15881   0.16651   0.19325   0.20138   0.21726

 Mulliken charges:
               1
     1  C   -0.221893
     2  C   -0.087908
     3  H    0.025740
     4  H    0.047787
     5  H    0.123748
     6  C   -0.072443
     7  H    0.037081
     8  H    0.076834
     9  C   -0.137439
    10  H    0.075340
    11  H    0.017513
    12  H    0.026243
    13  H    0.047150
    14  H    0.042248
 Sum of Mulliken charges =   0.00000

 Dipole moment (field-independent basis, Debye):
    X=              0.0269    Y=             -0.1013    Z=             -0.3866  Tot=              0.4006
 Quadrupole moment (field-independent basis, Debye-Ang):
   XX=            -29.8477   YY=            -28.6655   ZZ=            -27.5847
   XY=             -0.1968   XZ=              0.4847   YZ=             -0.0735

 Normal termination of Gaussian 09 at Wed Aug 26 10:48:37 2020.
