 Gaussian 09, Revision D.01,
 Gaussian 09:  ES64L-G09RevD.01 24-Apr-2013

 --------------------
 #p B2PLYPD3/Def2QZVP
 --------------------

 ----------
 butane_opt
 ----------
 Symbolic Z-matrix:
 Charge =  0 Multiplicity = 1

                         Standard orientation:
 ---------------------------------------------------------------------
 Center     Atomic      Atomic             Coordinates (Angstroms)
 Number     Number       Type             X           Y           Z
 ---------------------------------------------------------------------
      1          6           0       -1.825335    0.016012    0.139387
      2          6           0       -0.571511   -0.386439   -0.180971
      3          1           0       -2.542204   -0.755340    0.036413
      4          1           0       -2.261483    0.458375   -0.641930
      5          1           0       -1.850887    0.691026    1.235911
      6          6           0        0.471261    0.564200    0.018592
      7          1           0       -0.716294   -1.139954   -1.365095
      8          1           0       -0.242016   -1.004658    0.488342
      9          6           0        1.907385   -0.173328    0.075505
     10          1           0        0.090718    1.131484    0.823853
     11          1           0        0.383830    1.498324   -0.867674
     12          1           0        2.578358   -1.365142    1.147019
     13          1           0        2.787816    0.808648   -0.481250
     14          1           0        1.881361   -0.445441   -0.690666
 ---------------------------------------------------------------------

 SCF Done:  E(RB2PLYPD3) =  -157.718546491     A.U. after   12 cycles
 E2(B2PLYPD3) =    -0.2579798965D+00 E(B2PLYPD3) =    -0.15797652638715D+03

 The electronic state is 1-A.
 Alpha  occ. eigenvalues --  -10.65701 -10.63797 -10.60652 -10.59711  -0.96583
 Alpha  occ. eigenvalues --   -0.85846  -0.76220  -0.66788  -0.53974  -0.53166
 Alpha  occ. eigenvalues --   -0.48898  -0.44501  -0.42028  -0.38556  -0.37669
 Alpha  occ. eigenvalues --   -0.36494  -0.34036
 Alpha virt. eigenvalues --   -0.00821   0.04400   0.05716   0.06510   0.09808
 Alpha virt. eigenvalues --    0.10427   0.12239   0.12706   0.13742   0.14592
 Alpha virt. eigenvalues --    0.15542   0.15960   0.17808   0.18801   0.20057

 Mulliken charges:
               1
     1  C   -0.137890
     2  C   -0.022784
     3  H    0.042231
     4  H    0.042521
     5  H    0.024331
     6  C   -0.025653
     7  H   -0.027265
     8  H    0.089980
     9  C   -0.419101
    10  H    0.051477
    11  H    0.002945
    12  H    0.054742
    13  H    0.007186
    14  H    0.317282
 Sum of Mulliken charges =   0.00000

 Dipole moment (field-independent basis, Debye):
    X=             -0.7214    Y=             -0.2187    Z=             -0.2081  Tot=              0.7820
 Quadrupole moment (field-independent basis, Debye-Ang):
   XX=            -31.1734   YY=            -29.8406   ZZ=            -29.2186
   XY=             -0.9194   XZ=              0.1140   YZ=             -0.5880

 Normal termination of Gaussian 09 at Wed Aug 26 14:12:46 2020.
