 Gaussian 09, Revision D.01,
 Gaussian 09:  ES64L-G09RevD.01 24-Apr-2013

 --------------------
 #p B2PLYPD3/Def2QZVP
 --------------------

 ----------
 butane_opt
 ----------
 Symbolic Z-matrix:
 Charge =  0 Multiplicity = 1

                         Standard orientation:
 ---------------------------------------------------------------------
 Center     Atomic      Atomic             Coordinates (Angstroms)
 Number     Number       Type             X           Y           Z
 ---------------------------------------------------------------------
      1          6           0        2.014051    0.158676   -0.078473
      2          6           0        0.595115   -0.564607   -0.044882
      3          1           0        2.723959   -0.593953    0.708643
      4          1           0        1.927737    0.345789    0.490612
      5          1           0        2.431163    1.352163   -1.261782
      6          6           0       -0.625932    0.435214    0.119535
      7          1           0        0.715212   -1.386311    0.948174
      8          1           0        0.618917   -0.936850   -0.839985
      9          6           0       -1.999426   -0.101077   -0.086013
     10          1           0       -0.661480    0.934281   -0.518699
     11          1           0       -0.308971    1.390376    1.436031
     12          1           0       -2.035984   -0.854244   -1.085182
     13          1           0       -2.979493    0.800675    0.010525
     14          1           0       -2.333914   -0.621167    0.650669
 ---------------------------------------------------------------------

 SCF Done:  E(RB2PLYPD3) =  -157.196424260     A.U. after   13 cycles
 E2(B2PLYPD3) =    -0.2590882171D+00 E(B2PLYPD3) =    -0.15745551247724D+03

 The electronic state is 1-A.
 Alpha  occ. eigenvalues --  -10.63489 -10.63261 -10.63242 -10.62895  -0.94911
 Alpha  occ. eigenvalues --   -0.89437  -0.77096  -0.71129  -0.54509  -0.48427
 Alpha  occ. eigenvalues --   -0.47447  -0.45491  -0.41809  -0.40545  -0.37687
 Alpha  occ. eigenvalues --   -0.35245  -0.34208
 Alpha virt. eigenvalues --   -0.00402   0.02721   0.04981   0.05649   0.09544
 Alpha virt. eigenvalues --    0.10689   0.11132   0.11804   0.13394   0.14794
 Alpha virt. eigenvalues --    0.15326   0.16051   0.17543   0.18643   0.19969

 Mulliken charges:
               1
     1  C   -0.919025
     2  C   -0.078979
     3  H    0.038660
     4  H    0.746648
     5  H    0.051669
     6  C   -0.255354
     7  H    0.024580
     8  H    0.155254
     9  C   -0.161215
    10  H    0.288108
    11  H   -0.038406
    12  H    0.044812
    13  H    0.029888
    14  H    0.073361
 Sum of Mulliken charges =   0.00000

 Dipole moment (field-independent basis, Debye):
    X=             -0.5699    Y=             -0.3925    Z=             -0.1124  Tot=              0.7011
 Quadrupole moment (field-independent basis, Debye-Ang):
   XX=            -31.5546   YY=            -29.9568   ZZ=            -28.4509
   XY=              0.8445   XZ=              1.0531   YZ=             -1.3619

 Normal termination of Gaussian 09 at Wed Aug 26 21:41:44 2020.
