 Gaussian 09, Revision D.01,
 Gaussian 09:  ES64L-G09RevD.01 24-Apr-2013

 --------------------
 #p B2PLYPD3/Def2QZVP
 --------------------

 ----------
 butane_opt
 ----------
 Symbolic Z-matrix:
 Charge =  0 Multiplicity = 1

                         Standard orientation:
 ---------------------------------------------------------------------
 Center     Atomic      Atomic             Coordinates (Angstroms)
 Number     Number       Type             X           Y           Z
 ---------------------------------------------------------------------
      1          6           0       -1.967534   -0.196199   -0.160437
      2          6           0       -0.614197    0.526489    0.107390
      3          1           0       -2.905744    0.678833    0.000688
      4          1           0       -2.377819   -0.370890    0.652280
      5          1           0       -2.108361   -1.313215   -1.140232
      6          6           0        0.618471   -0.400618    0.347603
      7          1           0       -0.480685    1.252190    0.862766
      8          1           0       -0.326765    1.297435   -0.946147
      9          6           0        1.973082    0.067498   -0.227066
     10          1           0        0.342873   -1.012454   -0.314027
     11          1           0        0.826288   -1.130791    1.517639
     12          1           0        1.797019    0.406321   -1.140853
     13          1           0        2.760912   -0.848952   -0.547049
     14          1           0        2.413351    1.058505    0.649995
 ---------------------------------------------------------------------

 SCF Done:  E(RB2PLYPD3) =  -157.824757421     A.U. after   11 cycles
 E2(B2PLYPD3) =    -0.2567115274D+00 E(B2PLYPD3) =    -0.15808146894819D+03

 The electronic state is 1-A.
 Alpha  occ. eigenvalues --  -10.64946 -10.64632 -10.63756 -10.62096  -0.91217
 Alpha  occ. eigenvalues --   -0.83451  -0.73601  -0.66050  -0.54117  -0.48062
 Alpha  occ. eigenvalues --   -0.46457  -0.45138  -0.41484  -0.38939  -0.37384
 Alpha  occ. eigenvalues --   -0.35607  -0.34456
 Alpha virt. eigenvalues --    0.02992   0.04769   0.06099   0.06985   0.09795
 Alpha virt. eigenvalues --    0.10433   0.11560   0.12575   0.12705   0.13766
 Alpha virt. eigenvalues --    0.15780   0.16075   0.18419   0.18739   0.19543

 Mulliken charges:
               1
     1  C   -0.210437
     2  C   -0.039321
     3  H    0.016929
     4  H    0.121665
     5  H    0.064763
     6  C   -0.107110
     7  H    0.058308
     8  H    0.001021
     9  C   -0.161685
    10  H    0.106722
    11  H    0.011407
    12  H    0.079902
    13  H    0.039651
    14  H    0.018186
 Sum of Mulliken charges =   0.00000

 Dipole moment (field-independent basis, Debye):
    X=             -0.5694    Y=             -0.2644    Z=             -0.0002  Tot=              0.6278
 Quadrupole moment (field-independent basis, Debye-Ang):
   XX=            -30.8611   YY=            -29.8715   ZZ=            -29.2575
   XY=             -0.1906   XZ=             -2.0116   YZ=              1.7254

 Normal termination of Gaussian 09 at Wed Aug 26 23:15:39 2020.
