 Gaussian 09, Revision D.01,
 Gaussian 09:  ES64L-G09RevD.01 24-Apr-2013

 --------------------
 #p B2PLYPD3/Def2QZVP
 --------------------

 ----------
 butane_opt
 ----------
 Symbolic Z-matrix:
 Charge =  0 Multiplicity = 1

                         Standard orientation:
 ---------------------------------------------------------------------
 Center     Atomic      Atomic             Coordinates (Angstroms)
 Number     Number       Type             X           Y           Z
 ---------------------------------------------------------------------
      1          6           0       -2.002598   -0.210867    0.180918
      2          6           0       -0.533174    0.595972   -0.242093
      3          1           0       -2.646210    0.478548    0.448319
      4          1           0       -1.726416   -0.906276    0.989872
      5          1           0       -2.711271   -0.660271   -0.670344
      6          6           0        0.600979   -0.370722   -0.182373
      7          1           0       -0.256821    1.039503    0.574077
      8          1           0       -0.852574    1.226433   -1.037393
      9          6           0        1.969278    0.071182    0.175461
     10          1           0        0.749353   -1.015970   -1.175181
     11          1           0        0.193645   -0.969509    0.735328
     12          1           0        2.025257    0.223266   -0.485230
     13          1           0        2.884376   -0.748236   -0.200225
     14          1           0        2.133757    0.819120    1.229305
 ---------------------------------------------------------------------

 SCF Done:  E(RB2PLYPD3) =  -157.685333104     A.U. after   11 cycles
 E2(B2PLYPD3) =    -0.2522822776D+00 E(B2PLYPD3) =    -0.15793761538136D+03

 The electronic state is 1-A.
 Alpha  occ. eigenvalues --  -10.62697 -10.60698 -10.60586 -10.59571  -0.95306
 Alpha  occ. eigenvalues --   -0.85904  -0.75911  -0.65851  -0.56257  -0.50824
 Alpha  occ. eigenvalues --   -0.49232  -0.45703  -0.43651  -0.41376  -0.39479
 Alpha  occ. eigenvalues --   -0.35942  -0.32583
 Alpha virt. eigenvalues --    0.04837   0.06456   0.07448   0.08679   0.09961
 Alpha virt. eigenvalues --    0.11476   0.12282   0.13835   0.14429   0.14567
 Alpha virt. eigenvalues --    0.15634   0.16598   0.17679   0.19378   0.21407

 Mulliken charges:
               1
     1  C   -0.159339
     2  C   -0.113494
     3  H    0.063214
     4  H    0.056062
     5  H    0.030404
     6  C    0.008032
     7  H    0.083528
     8  H    0.043475
     9  C   -0.748494
    10  H    0.016560
    11  H    0.029819
    12  H    0.574575
    13  H    0.039747
    14  H    0.075911
 Sum of Mulliken charges =   0.00000

 Dipole moment (field-independent basis, Debye):
    X=             -0.1496    Y=              0.5946    Z=             -0.1701  Tot=              0.6363
 Quadrupole moment (field-independent basis, Debye-Ang):
   XX=            -29.1520   YY=            -30.2138   ZZ=            -27.7203
   XY=             -0.3670   XZ=             -0.4542   YZ=              0.5411

 Normal termination of Gaussian 09 at Wed Aug 26 09:50:35 2020.
