 Gaussian 09, Revision D.01,
 Gaussian 09:  ES64L-G09RevD.01 24-Apr-2013

 --------------------
 #p B2PLYPD3/Def2QZVP
 --------------------

 ----------
 butane_opt
 ----------
 Symbolic Z-matrix:
 Charge =  0 Multiplicity = 1

                         Standard orientation:
 ---------------------------------------------------------------------
 Center     Atomic      Atomic             Coordinates (Angstroms)
 Number     Number       Type             X           Y           Z
 ---------------------------------------------------------------------
      1          6           0       -1.918315    0.068333    0.143130
      2          6           0       -0.665435   -0.446825   -0.244230
      3          1           0       -2.856472   -0.827036    0.541525
      4          1           0       -2.620227    0.570253   -0.555491
      5          1           0       -1.525469    0.638632    1.025694
      6          6           0        0.513777    0.566265   -0.053645
      7          1           0       -0.592814   -0.909386   -1.264946
      8          1           0       -0.419316   -1.019778    0.369785
      9          6           0        2.078276   -0.200907    0.050750
     10          1           0        0.267981    1.172415    0.987793
     11          1           0        0.302508    1.379394   -0.933462
     12          1           0        2.404853   -1.144339    1.053751
     13          1           0        2.912432    0.559847   -0.003596
     14          1           0        2.076710   -0.341202   -0.597079
 ---------------------------------------------------------------------

 SCF Done:  E(RB2PLYPD3) =  -157.630363985     A.U. after   11 cycles
 E2(B2PLYPD3) =    -0.2529764370D+00 E(B2PLYPD3) =    -0.15788334042224D+03

 The electronic state is 1-A.
 Alpha  occ. eigenvalues --  -10.65225 -10.62220 -10.61593 -10.58234  -0.93331
 Alpha  occ. eigenvalues --   -0.87133  -0.73665  -0.66855  -0.55799  -0.50716
 Alpha  occ. eigenvalues --   -0.49689  -0.44841  -0.41937  -0.40262  -0.39022
 Alpha  occ. eigenvalues --   -0.37477  -0.34051
 Alpha virt. eigenvalues --    0.04883   0.05308   0.07873   0.08021   0.10071
 Alpha virt. eigenvalues --    0.10528   0.11454   0.13650   0.14139   0.15211
 Alpha virt. eigenvalues --    0.15675   0.16742   0.17789   0.19498   0.20755

 Mulliken charges:
               1
     1  C   -0.152663
     2  C   -0.125611
     3  H    0.001731
     4  H    0.058767
     5  H    0.062272
     6  C   -0.068620
     7  H    0.020191
     8  H    0.162202
     9  C   -0.686166
    10  H    0.010304
    11  H    0.031947
    12  H    0.065081
    13  H    0.075717
    14  H    0.544849
 Sum of Mulliken charges =   0.00000

 Dipole moment (field-independent basis, Debye):
    X=              0.4135    Y=             -0.1322    Z=             -0.3235  Tot=              0.5414
 Quadrupole moment (field-independent basis, Debye-Ang):
   XX=            -29.2143   YY=            -29.9380   ZZ=            -28.4540
   XY=             -0.6440   XZ=              0.7415   YZ=             -0.6749

 Normal termination of Gaussian 09 at Wed Aug 26 19:25:03 2020.
