 Gaussian 09, Revision D.01,
 Gaussian 09:  ES64L-G09RevD.01 24-Apr-2013

 --------------------
 #p B2PLYPD3/Def2QZVP
 --------------------

 ----------
 butane_opt
 ----------
 Symbolic Z-matrix:
 Charge =  0 Multiplicity = 1

                         Standard orientation:
 ---------------------------------------------------------------------
 Center     Atomic      Atomic             Coordinates (Angstroms)
 Number     Number       Type             X           Y           Z
 ---------------------------------------------------------------------
      1          6           0       -2.017748    0.120602   -0.172451
      2          6           0       -0.598669   -0.551261    0.137674
      3          1           0       -2.944532   -0.808587   -0.273400
      4          1           0       -1.820949    1.123284   -1.265529
      5          1           0       -2.304887    0.590515    0.760636
      6          6           0        0.546652    0.536180    0.288689
      7          1           0       -0.036008   -0.999443   -0.793247
      8          1           0       -0.701443   -1.345424    1.025850
      9          6           0        2.003561   -0.130171   -0.217280
     10          1           0        0.676073    1.521043    1.509825
     11          1           0        0.267764    0.882493   -0.373758
     12          1           0        2.678374   -1.161940    0.789362
     13          1           0        2.678371    0.672743   -0.752114
     14          1           0        1.904464   -0.326790   -0.847415
 ---------------------------------------------------------------------

 SCF Done:  E(RB2PLYPD3) =  -157.440989525     A.U. after   12 cycles
 E2(B2PLYPD3) =    -0.2592957651D+00 E(B2PLYPD3) =    -0.15770028528999D+03

 The electronic state is 1-A.
 Alpha  occ. eigenvalues --  -10.67368 -10.65171 -10.63782 -10.62860  -0.93522
 Alpha  occ. eigenvalues --   -0.85488  -0.76624  -0.65931  -0.52502  -0.48222
 Alpha  occ. eigenvalues --   -0.46478  -0.44590  -0.41045  -0.38815  -0.37530
 Alpha  occ. eigenvalues --   -0.37379  -0.34766
 Alpha virt. eigenvalues --    0.02789   0.03457   0.05184   0.07161   0.08055
 Alpha virt. eigenvalues --    0.09929   0.11357   0.11614   0.12830   0.14617
 Alpha virt. eigenvalues --    0.15723   0.16113   0.17770   0.18455   0.19300

 Mulliken charges:
               1
     1  C   -0.186276
     2  C   -0.030636
     3  H    0.048064
     4  H    0.025199
     5  H    0.089619
     6  C   -0.364906
     7  H    0.042472
     8  H    0.040227
     9  C   -0.696596
    10  H    0.006874
    11  H    0.367089
    12  H    0.042102
    13  H    0.055569
    14  H    0.561201
 Sum of Mulliken charges =   0.00000

 Dipole moment (field-independent basis, Debye):
    X=             -0.3675    Y=             -0.2921    Z=             -0.5224  Tot=              0.7023
 Quadrupole moment (field-independent basis, Debye-Ang):
   XX=            -31.2876   YY=            -30.4411   ZZ=            -28.8723
   XY=              0.3071   XZ=             -2.5189   YZ=             -1.2354

 Normal termination of Gaussian 09 at Wed Aug 26 22:36:44 2020.
