 Gaussian 09, Revision D.01,
 Gaussian 09:  ES64L-G09RevD.01 24-Apr-2013

 --------------------
 #p B2PLYPD3/Def2QZVP
 --------------------

 ----------
 butane_opt
 ----------
 Symbolic Z-matrix:
 Charge =  0 Multiplicity = 1

                         Standard orientation:
 ---------------------------------------------------------------------
 Center     Atomic      Atomic             Coordinates (Angstroms)
 Number     Number       Type             X           Y           Z
 ---------------------------------------------------------------------
      1          6           0       -1.960257   -0.129699   -0.178286
      2          6           0       -0.629619    0.433122    0.095283
      3          1           0       -2.979648    0.940098   -0.267035
      4          1           0       -2.228425   -0.516028    0.593739
      5          1           0       -1.945012   -0.814172   -1.073674
      6          6           0        0.582906   -0.573179    0.254601
      7          1           0       -0.453581    1.520385    1.431606
      8          1           0       -0.323060    0.843870   -0.537679
      9          6           0        1.996092    0.158500   -0.155436
     10          1           0        0.340143   -1.001524   -0.411875
     11          1           0        0.543395   -1.550543    1.303351
     12          1           0        1.801234    0.838860   -0.910455
     13          1           0        2.774970   -0.465375   -0.871694
     14          1           0        2.535250    0.871965    0.646751
 ---------------------------------------------------------------------

 SCF Done:  E(RB2PLYPD3) =  -157.700836885     A.U. after   12 cycles
 E2(B2PLYPD3) =    -0.2548245637D+00 E(B2PLYPD3) =    -0.15795566144833D+03

 The electronic state is 1-A.
 Alpha  occ. eigenvalues --  -10.63743 -10.63729 -10.63493 -10.63116  -0.94747
 Alpha  occ. eigenvalues --   -0.84243  -0.75485  -0.71158  -0.54012  -0.49951
 Alpha  occ. eigenvalues --   -0.48890  -0.46669  -0.42530  -0.41649  -0.39622
 Alpha  occ. eigenvalues --   -0.36733  -0.31762
 Alpha virt. eigenvalues --    0.01960   0.04632   0.05923   0.06839   0.09637
 Alpha virt. eigenvalues --    0.11043   0.11235   0.12336   0.14188   0.14823
 Alpha virt. eigenvalues --    0.15475   0.15662   0.17531   0.18729   0.19671

 Mulliken charges:
               1
     1  C   -0.186462
     2  C   -0.246214
     3  H    0.022176
     4  H    0.122801
     5  H    0.065353
     6  C   -0.268313
     7  H   -0.066385
     8  H    0.268438
     9  C   -0.143043
    10  H    0.267195
    11  H    0.019886
    12  H    0.051853
    13  H    0.036845
    14  H    0.055871
 Sum of Mulliken charges =   0.00000

 Dipole moment (field-independent basis, Debye):
    X=              0.0296    Y=             -0.7048    Z=             -1.3030  Tot=              1.4817
 Quadrupole moment (field-independent basis, Debye-Ang):
   XX=            -30.1332   YY=            -30.5668   ZZ=            -29.4817
   XY=              1.9170   XZ=             -0.7298   YZ=             -0.4190

 Normal termination of Gaussian 09 at Wed Aug 26 10:22:52 2020.
