 Gaussian 09, Revision D.01,
 Gaussian 09:  ES64L-G09RevD.01 24-Apr-2013

 --------------------
 #p B2PLYPD3/Def2QZVP
 --------------------

 ----------
 butane_opt
 ----------
 Symbolic Z-matrix:
 Charge =  0 Multiplicity = 1

                         Standard orientation:
 ---------------------------------------------------------------------
 Center     Atomic      Atomic             Coordinates (Angstroms)
 Number     Number       Type             X           Y           Z
 ---------------------------------------------------------------------
      1          6           0       -2.017897   -0.163829   -0.081476
      2          6           0       -0.526915    0.596258    0.084630
      3          1           0       -2.540707    0.199669   -0.470353
      4          1           0       -2.443046   -0.880009    0.931624
      5          1           0       -2.228002   -0.594431   -0.865594
      6          6           0        0.653888   -0.440006    0.071264
      7          1           0       -0.524001    1.474564    1.071001
      8          1           0       -0.643791    1.157181   -0.559632
      9          6           0        1.973826    0.074085   -0.139816
     10          1           0        0.525486   -1.120576   -0.756785
     11          1           0        0.722307   -1.356992    1.226245
     12          1           0        1.976145    0.584054   -0.976071
     13          1           0        2.751181   -0.647111   -0.069612
     14          1           0        1.907012    0.784600    0.861565
 ---------------------------------------------------------------------

 SCF Done:  E(RB2PLYPD3) =  -157.685836593     A.U. after   11 cycles
 E2(B2PLYPD3) =    -0.2513590907D+00 E(B2PLYPD3) =    -0.15793719568366D+03

 The electronic state is 1-A.
 Alpha  occ. eigenvalues --  -10.64057 -10.62964 -10.59453 -10.57549  -0.93809
 Alpha  occ. eigenvalues --   -0.90146  -0.79299  -0.66771  -0.53630  -0.52358
 Alpha  occ. eigenvalues --   -0.51645  -0.44771  -0.42875  -0.39903  -0.37060
 Alpha  occ. eigenvalues --   -0.36397  -0.34391
 Alpha virt. eigenvalues --    0.04382   0.06149   0.07518   0.07936   0.10769
 Alpha virt. eigenvalues --    0.11324   0.12014   0.12525   0.14324   0.15547
 Alpha virt. eigenvalues --    0.15963   0.16988   0.18837   0.20174   0.21084

 Mulliken charges:
               1
     1  C   -0.463120
     2  C   -0.146533
     3  H    0.327077
     4  H    0.046998
     5  H    0.061263
     6  C   -0.027032
     7  H    0.011537
     8  H    0.149613
     9  C   -0.153012
    10  H    0.048549
    11  H   -0.016745
    12  H    0.069231
    13  H    0.065190
    14  H    0.026984
 Sum of Mulliken charges =   0.00000

 Dipole moment (field-independent basis, Debye):
    X=             -0.1206    Y=              0.2470    Z=             -1.3347  Tot=              1.3627
 Quadrupole moment (field-independent basis, Debye-Ang):
   XX=            -28.7160   YY=            -29.7038   ZZ=            -27.9946
   XY=             -1.0796   XZ=              1.1410   YZ=             -0.3844

 Normal termination of Gaussian 09 at Wed Aug 26 22:53:39 2020.
