 Gaussian 09, Revision D.01,
 Gaussian 09:  ES64L-G09RevD.01 24-Apr-2013

 --------------------
 #p B2PLYPD3/Def2QZVP
 --------------------

 ----------
 butane_opt
 ----------
 Symbolic Z-matrix:
 Charge =  0 Multiplicity = 1

                         Standard orientation:
 ---------------------------------------------------------------------
 Center     Atomic      Atomic             Coordinates (Angstroms)
 Number     Number       Type             X           Y           Z
 ---------------------------------------------------------------------
      1          6           0        1.967135   -0.168211   -0.098717
      2          6           0        0.518114    0.551451    0.163672
      3          1           0        2.831000    0.608159   -0.502808
      4          1           0        1.848902   -0.629814   -0.912452
      5          1           0        2.227314   -1.046152    0.853405
      6          6           0       -0.591851   -0.448911    0.069639
      7          1           0        0.370046    1.059694   -0.537197
      8          1           0        0.510973    1.328240    1.083637
      9          6           0       -1.909271    0.097696   -0.107655
     10          1           0       -0.678089   -1.158492    1.004660
     11          1           0       -0.379377   -0.999132   -0.720821
     12          1           0       -1.962799    0.659886    0.684198
     13          1           0       -2.722678   -0.777136   -0.133314
     14          1           0       -1.950058    0.762599   -0.980941
 ---------------------------------------------------------------------

 SCF Done:  E(RB2PLYPD3) =  -157.971964282     A.U. after   11 cycles
 E2(B2PLYPD3) =    -0.2478951662D+00 E(B2PLYPD3) =    -0.15821985944826D+03

 The electronic state is 1-A.
 Alpha  occ. eigenvalues --  -10.62608 -10.59927 -10.59196 -10.58947  -0.93732
 Alpha  occ. eigenvalues --   -0.83805  -0.73597  -0.68235  -0.55559  -0.50157
 Alpha  occ. eigenvalues --   -0.49065  -0.46064  -0.42178  -0.41323  -0.38795
 Alpha  occ. eigenvalues --   -0.37899  -0.37316
 Alpha virt. eigenvalues --    0.05297   0.06423   0.08155   0.08585   0.10966
 Alpha virt. eigenvalues --    0.11546   0.12678   0.12863   0.14443   0.15457
 Alpha virt. eigenvalues --    0.15642   0.16681   0.19151   0.19760   0.21150

 Mulliken charges:
               1
     1  C   -0.204925
     2  C   -0.139252
     3  H    0.033421
     4  H    0.099380
     5  H    0.040423
     6  C   -0.028454
     7  H    0.136507
     8  H    0.017423
     9  C   -0.161958
    10  H    0.007060
    11  H    0.056398
    12  H    0.071975
    13  H    0.042460
    14  H    0.029541
 Sum of Mulliken charges =   0.00000

 Dipole moment (field-independent basis, Debye):
    X=             -0.2126    Y=              0.0619    Z=             -0.5382  Tot=              0.5820
 Quadrupole moment (field-independent basis, Debye-Ang):
   XX=            -31.0658   YY=            -28.7080   ZZ=            -28.1105
   XY=              0.4620   XZ=             -1.0084   YZ=             -0.3180

 Normal termination of Gaussian 09 at Wed Aug 26 09:14:37 2020.
