 Gaussian 09, Revision D.01,
 Gaussian 09:  ES64L-G09RevD.01 24-Apr-2013

 --------------------
 #p B2PLYPD3/Def2QZVP
 --------------------

 ----------
 butane_opt
 ----------
 Symbolic Z-matrix:
 Charge =  0 Multiplicity = 1

                         Standard orientation:
 ---------------------------------------------------------------------
 Center     Atomic      Atomic             Coordinates (Angstroms)
 Number     Number       Type             X           Y           Z
 ---------------------------------------------------------------------
      1          6           0       -1.959457   -0.151745    0.023645
      2          6           0       -0.514381    0.545633   -0.025996
      3          1           0       -2.795233    0.720630   -0.049019
      4          1           0       -2.050536   -0.841219    0.929341
      5          1           0       -2.223682   -0.804760   -0.820080
      6          6           0        0.598790   -0.464693    0.009891
      7          1           0       -0.274336    1.162369    0.809508
      8          1           0       -0.439479    1.250971   -1.010154
      9          6           0        1.895864    0.092019   -0.029241
     10          1           0        0.393463   -1.028404   -0.768664
     11          1           0        0.475576   -1.275906    0.989026
     12          1           0        1.849048    0.418665   -0.630573
     13          1           0        2.784141   -0.723596   -0.401098
     14          1           0        2.156138    0.993969    1.081916
 ---------------------------------------------------------------------

 SCF Done:  E(RB2PLYPD3) =  -157.752261168     A.U. after   11 cycles
 E2(B2PLYPD3) =    -0.2505331279D+00 E(B2PLYPD3) =    -0.15800279429551D+03

 The electronic state is 1-A.
 Alpha  occ. eigenvalues --  -10.62737 -10.62445 -10.60477 -10.60367  -0.95417
 Alpha  occ. eigenvalues --   -0.84582  -0.74161  -0.67145  -0.55547  -0.49644
 Alpha  occ. eigenvalues --   -0.48912  -0.45420  -0.42318  -0.41372  -0.39122
 Alpha  occ. eigenvalues --   -0.36973  -0.35760
 Alpha virt. eigenvalues --    0.04458   0.06110   0.07303   0.07901   0.10513
 Alpha virt. eigenvalues --    0.11009   0.12553   0.12905   0.14474   0.15038
 Alpha virt. eigenvalues --    0.15215   0.16075   0.18761   0.19929   0.20881

 Mulliken charges:
               1
     1  C   -0.153572
     2  C   -0.041843
     3  H    0.039568
     4  H    0.056840
     5  H    0.041836
     6  C    0.005090
     7  H    0.053676
     8  H    0.006387
     9  C   -0.656857
    10  H    0.061471
    11  H   -0.003620
    12  H    0.507053
    13  H    0.056755
    14  H    0.027216
 Sum of Mulliken charges =   0.00000

 Dipole moment (field-independent basis, Debye):
    X=             -0.2090    Y=             -0.0551    Z=             -0.6339  Tot=              0.6697
 Quadrupole moment (field-independent basis, Debye-Ang):
   XX=            -30.8661   YY=            -29.2503   ZZ=            -28.4517
   XY=              0.1136   XZ=             -0.5037   YZ=              0.4408

 Normal termination of Gaussian 09 at Wed Aug 26 11:01:50 2020.
