 Gaussian 09, Revision D.01,
 Gaussian 09:  ES64L-G09RevD.01 24-Apr-2013

 --------------------
 #p B2PLYPD3/Def2QZVP
 --------------------

 ----------
 butane_opt
 ----------
 Symbolic Z-matrix:
 Charge =  0 Multiplicity = 1

                         Standard orientation:
 ---------------------------------------------------------------------
 Center     Atomic      Atomic             Coordinates (Angstroms)
 Number     Number       Type             X           Y           Z
 ---------------------------------------------------------------------
      1          6           0       -1.916819    0.157007    0.048713
      2          6           0       -0.577958   -0.518149   -0.035696
      3          1           0       -2.727739   -0.602487   -0.302321
      4          1           0       -1.961983    0.302838   -0.527900
      5          1           0       -2.242644    1.083948    1.104137
      6          6           0        0.569272    0.459455   -0.138239
      7          1           0       -0.514726   -1.235512   -0.955133
      8          1           0       -0.179971   -1.053221    0.879835
      9          6           0        1.894202   -0.099664    0.081432
     10          1           0        0.480624    1.141187    0.741245
     11          1           0        0.516874    1.148192   -1.036327
     12          1           0        1.942275   -0.913461    1.165344
     13          1           0        2.782205    0.688715   -0.190332
     14          1           0        2.092902   -0.552092   -0.615808
 ---------------------------------------------------------------------

 SCF Done:  E(RB2PLYPD3) =  -157.447662840     A.U. after   12 cycles
 E2(B2PLYPD3) =    -0.2520591502D+00 E(B2PLYPD3) =    -0.15769972199008D+03

 The electronic state is 1-A.
 Alpha  occ. eigenvalues --  -10.62062 -10.60629 -10.60475 -10.60416  -0.95217
 Alpha  occ. eigenvalues --   -0.89259  -0.76720  -0.66469  -0.54420  -0.51499
 Alpha  occ. eigenvalues --   -0.48139  -0.46376  -0.41147  -0.40233  -0.39929
 Alpha  occ. eigenvalues --   -0.37076  -0.35457
 Alpha virt. eigenvalues --    0.04937   0.05572   0.06791   0.07741   0.10261
 Alpha virt. eigenvalues --    0.10913   0.12326   0.12910   0.14257   0.15572
 Alpha virt. eigenvalues --    0.15874   0.16176   0.18455   0.19316   0.21284

 Mulliken charges:
               1
     1  C   -0.859385
     2  C    0.022339
     3  H    0.059988
     4  H    0.654537
     5  H    0.070201
     6  C    0.001258
     7  H    0.012626
     8  H    0.034092
     9  C   -0.239839
    10  H    0.034650
    11  H    0.012986
    12  H    0.025278
    13  H    0.028907
    14  H    0.142361
 Sum of Mulliken charges =   0.00000

 Dipole moment (field-independent basis, Debye):
    X=             -0.0059    Y=              0.0605    Z=             -0.7222  Tot=              0.7248
 Quadrupole moment (field-independent basis, Debye-Ang):
   XX=            -30.1372   YY=            -29.5546   ZZ=            -27.7357
   XY=             -0.4477   XZ=             -0.1539   YZ=              0.4685

 Normal termination of Gaussian 09 at Wed Aug 26 23:06:08 2020.
