 Gaussian 09, Revision D.01,
 Gaussian 09:  ES64L-G09RevD.01 24-Apr-2013

 --------------------
 #p B2PLYPD3/Def2QZVP
 --------------------

 ----------
 butane_opt
 ----------
 Symbolic Z-matrix:
 Charge =  0 Multiplicity = 1

                         Standard orientation:
 ---------------------------------------------------------------------
 Center     Atomic      Atomic             Coordinates (Angstroms)
 Number     Number       Type             X           Y           Z
 ---------------------------------------------------------------------
      1          6           0        2.019508   -0.113658   -0.013981
      2          6           0        0.515732    0.542157    0.009748
      3          1           0        2.807310    0.538611   -0.169312
      4          1           0        2.142579   -0.914511   -0.955727
      5          1           0        2.282873   -0.790429    0.875764
      6          6           0       -0.616784   -0.452687    0.125930
      7          1           0        0.369341    1.253836   -0.963730
      8          1           0        0.513720    1.167857    0.819397
      9          6           0       -1.961058    0.069083   -0.094927
     10          1           0       -0.499875   -1.096596    1.118261
     11          1           0       -0.493237   -1.119528   -0.722982
     12          1           0       -2.304305    1.079693    0.896861
     13          1           0       -2.735492   -0.775125   -0.309148
     14          1           0       -1.827296    0.386821   -0.750002
 ---------------------------------------------------------------------

 SCF Done:  E(RB2PLYPD3) =  -157.869476922     A.U. after   11 cycles
 E2(B2PLYPD3) =    -0.2492839236D+00 E(B2PLYPD3) =    -0.15811876084609D+03

 The electronic state is 1-A.
 Alpha  occ. eigenvalues --  -10.62500 -10.62386 -10.61450 -10.60130  -0.93691
 Alpha  occ. eigenvalues --   -0.83967  -0.74122  -0.66625  -0.54346  -0.50082
 Alpha  occ. eigenvalues --   -0.49156  -0.45804  -0.43307  -0.40032  -0.38902
 Alpha  occ. eigenvalues --   -0.37948  -0.36032
 Alpha virt. eigenvalues --    0.05086   0.06095   0.07720   0.08050   0.10369
 Alpha virt. eigenvalues --    0.11269   0.12560   0.13133   0.13790   0.14549
 Alpha virt. eigenvalues --    0.15925   0.16478   0.19059   0.20037   0.20780

 Mulliken charges:
               1
     1  C   -0.140247
     2  C   -0.052379
     3  H    0.066481
     4  H    0.008110
     5  H    0.043554
     6  C   -0.003550
     7  H    0.005382
     8  H    0.058638
     9  C   -0.511833
    10  H    0.021689
    11  H    0.041053
    12  H    0.005455
    13  H    0.068451
    14  H    0.389197
 Sum of Mulliken charges =   0.00000

 Dipole moment (field-independent basis, Debye):
    X=              0.2572    Y=             -0.0909    Z=             -0.3077  Tot=              0.4112
 Quadrupole moment (field-independent basis, Debye-Ang):
   XX=            -30.1844   YY=            -29.2991   ZZ=            -28.5895
   XY=              1.1988   XZ=              1.2258   YZ=              0.1892

 Normal termination of Gaussian 09 at Wed Aug 26 19:51:02 2020.
