 Gaussian 09, Revision D.01,
 Gaussian 09:  ES64L-G09RevD.01 24-Apr-2013

 --------------------
 #p B2PLYPD3/Def2QZVP
 --------------------

 ----------
 butane_opt
 ----------
 Symbolic Z-matrix:
 Charge =  0 Multiplicity = 1

                         Standard orientation:
 ---------------------------------------------------------------------
 Center     Atomic      Atomic             Coordinates (Angstroms)
 Number     Number       Type             X           Y           Z
 ---------------------------------------------------------------------
      1          6           0        1.863387    0.098957   -0.110634
      2          6           0        0.530938   -0.440360    0.235033
      3          1           0        2.646921   -0.875202   -0.796917
      4          1           0        2.358285    0.902544    0.773789
      5          1           0        1.486562    0.345242   -0.956162
      6          6           0       -0.464311    0.618162    0.046347
      7          1           0        0.370051   -1.441276    1.460574
      8          1           0        0.788142   -0.982888   -0.565821
      9          6           0       -1.925222   -0.172980   -0.137662
     10          1           0       -0.177136    0.895632   -0.734656
     11          1           0       -0.397068    1.437775    0.984995
     12          1           0       -2.203373   -0.785385   -0.912572
     13          1           0       -2.689928    0.545264   -0.211262
     14          1           0       -2.211208   -0.664388    0.759532
 ---------------------------------------------------------------------

 SCF Done:  E(RB2PLYPD3) =  -157.812401609     A.U. after   11 cycles
 E2(B2PLYPD3) =    -0.2555702256D+00 E(B2PLYPD3) =    -0.15806797183458D+03

 The electronic state is 1-A.
 Alpha  occ. eigenvalues --  -10.64770 -10.63406 -10.62160 -10.59403  -0.97364
 Alpha  occ. eigenvalues --   -0.84576  -0.75885  -0.64674  -0.56727  -0.50185
 Alpha  occ. eigenvalues --   -0.48885  -0.46630  -0.43984  -0.42403  -0.37163
 Alpha  occ. eigenvalues --   -0.34503  -0.33892
 Alpha virt. eigenvalues --    0.03468   0.05461   0.06624   0.07554   0.10033
 Alpha virt. eigenvalues --    0.10517   0.11721   0.13239   0.14244   0.14613
 Alpha virt. eigenvalues --    0.16346   0.17122   0.17564   0.18603   0.20709

 Mulliken charges:
               1
     1  C   -0.211033
     2  C   -0.080665
     3  H    0.010179
     4  H    0.054246
     5  H    0.121534
     6  C   -0.169902
     7  H   -0.036501
     8  H    0.100100
     9  C   -0.119649
    10  H    0.159527
    11  H    0.048574
    12  H    0.044102
    13  H    0.025944
    14  H    0.053542
 Sum of Mulliken charges =   0.00000

 Dipole moment (field-independent basis, Debye):
    X=             -0.3724    Y=              0.5902    Z=             -0.8864  Tot=              1.1281
 Quadrupole moment (field-independent basis, Debye-Ang):
   XX=            -30.9043   YY=            -30.3855   ZZ=            -28.5387
   XY=              0.5284   XZ=             -0.4781   YZ=              1.5800

 Normal termination of Gaussian 09 at Wed Aug 26 16:18:29 2020.
