 Gaussian 09, Revision D.01,
 Gaussian 09:  ES64L-G09RevD.01 24-Apr-2013

 --------------------
 #p B2PLYPD3/Def2QZVP
 --------------------

 ----------
 butane_opt
 ----------
 Symbolic Z-matrix:
 Charge =  0 Multiplicity = 1

                         Standard orientation:
 ---------------------------------------------------------------------
 Center     Atomic      Atomic             Coordinates (Angstroms)
 Number     Number       Type             X           Y           Z
 ---------------------------------------------------------------------
      1          6           0       -2.000682   -0.092565    0.177144
      2          6           0       -0.659677    0.464916   -0.149644
      3          1           0       -2.705297    0.539284   -0.172756
      4          1           0       -2.109466   -1.070049    1.255463
      5          1           0       -1.820445   -0.421838   -0.573031
      6          6           0        0.530156   -0.521306   -0.140333
      7          1           0       -0.558319    0.996480    0.652013
      8          1           0       -0.656939    1.332805   -1.254156
      9          6           0        2.034966    0.117449    0.100566
     10          1           0        0.353302   -1.432952   -1.184871
     11          1           0        0.744441   -0.912858    0.676667
     12          1           0        2.319051    0.583823   -0.572727
     13          1           0        2.898927   -0.704930    0.059649
     14          1           0        2.106171    1.279269    1.187350
 ---------------------------------------------------------------------

 SCF Done:  E(RB2PLYPD3) =  -157.659939626     A.U. after   11 cycles
 E2(B2PLYPD3) =    -0.2570564178D+00 E(B2PLYPD3) =    -0.15791699604392D+03

 The electronic state is 1-A.
 Alpha  occ. eigenvalues --  -10.64113 -10.63654 -10.63149 -10.58788  -0.94660
 Alpha  occ. eigenvalues --   -0.86338  -0.75369  -0.67763  -0.56045  -0.49912
 Alpha  occ. eigenvalues --   -0.47652  -0.44749  -0.41837  -0.38958  -0.36860
 Alpha  occ. eigenvalues --   -0.36372  -0.33716
 Alpha virt. eigenvalues --    0.02343   0.04564   0.05303   0.07189   0.10257
 Alpha virt. eigenvalues --    0.10640   0.11672   0.12140   0.13173   0.14726
 Alpha virt. eigenvalues --    0.15304   0.16451   0.18126   0.18942   0.21951

 Mulliken charges:
               1
     1  C   -0.351925
     2  C   -0.086430
     3  H    0.065428
     4  H    0.059674
     5  H    0.219637
     6  C   -0.122089
     7  H    0.093162
     8  H    0.005953
     9  C   -0.241520
    10  H    0.009485
    11  H    0.138964
    12  H    0.145897
    13  H    0.053527
    14  H    0.010236
 Sum of Mulliken charges =   0.00000

 Dipole moment (field-independent basis, Debye):
    X=              0.2630    Y=              0.0106    Z=             -0.3636  Tot=              0.4488
 Quadrupole moment (field-independent basis, Debye-Ang):
   XX=            -29.9021   YY=            -29.7486   ZZ=            -29.1226
   XY=             -0.9370   XZ=             -0.3928   YZ=             -0.6780

 Normal termination of Gaussian 09 at Wed Aug 26 22:39:07 2020.
