 Gaussian 09, Revision D.01,
 Gaussian 09:  ES64L-G09RevD.01 24-Apr-2013

 --------------------
 #p B2PLYPD3/Def2QZVP
 --------------------

 ----------
 butane_opt
 ----------
 Symbolic Z-matrix:
 Charge =  0 Multiplicity = 1

                         Standard orientation:
 ---------------------------------------------------------------------
 Center     Atomic      Atomic             Coordinates (Angstroms)
 Number     Number       Type             X           Y           Z
 ---------------------------------------------------------------------
      1          6           0        1.902118    0.057695   -0.089223
      2          6           0        0.515891   -0.449790    0.097084
      3          1           0        2.768743   -0.812097   -0.341507
      4          1           0        2.387186    1.162623    1.105024
      5          1           0        1.703524    0.256088   -0.699387
      6          6           0       -0.490491    0.580206   -0.056150
      7          1           0        0.220687   -1.271945    1.113123
      8          1           0        0.515337   -1.055598   -0.604390
      9          6           0       -1.928724   -0.134722    0.037289
     10          1           0       -0.500965    1.194786   -1.037790
     11          1           0       -0.501755    1.294853    0.785007
     12          1           0       -1.862843   -0.794594   -0.785898
     13          1           0       -2.580679    0.270964   -0.223491
     14          1           0       -2.141996   -0.565412    0.755307
 ---------------------------------------------------------------------

 SCF Done:  E(RB2PLYPD3) =  -157.522057298     A.U. after   12 cycles
 E2(B2PLYPD3) =    -0.2514051873D+00 E(B2PLYPD3) =    -0.15777346248546D+03

 The electronic state is 1-A.
 Alpha  occ. eigenvalues --  -10.62601 -10.62025 -10.61503 -10.54080  -0.97117
 Alpha  occ. eigenvalues --   -0.88860  -0.78317  -0.68378  -0.56021  -0.52694
 Alpha  occ. eigenvalues --   -0.50624  -0.48853  -0.44806  -0.41318  -0.37898
 Alpha  occ. eigenvalues --   -0.36955  -0.34394
 Alpha virt. eigenvalues --    0.02501   0.06043   0.07094   0.07544   0.09969
 Alpha virt. eigenvalues --    0.10711   0.12753   0.13500   0.15005   0.15482
 Alpha virt. eigenvalues --    0.16183   0.16989   0.18887   0.19668   0.20602

 Mulliken charges:
               1
     1  C   -0.732322
     2  C   -0.054403
     3  H    0.070967
     4  H   -0.006922
     5  H    0.593526
     6  C    0.005723
     7  H    0.001191
     8  H    0.103849
     9  C   -0.297003
    10  H    0.021979
    11  H    0.039590
    12  H    0.019780
    13  H    0.145231
    14  H    0.088813
 Sum of Mulliken charges =   0.00000

 Dipole moment (field-independent basis, Debye):
    X=             -0.7630    Y=             -0.3485    Z=             -0.8085  Tot=              1.1651
 Quadrupole moment (field-independent basis, Debye-Ang):
   XX=            -29.8997   YY=            -29.2391   ZZ=            -27.9517
   XY=             -1.4410   XZ=             -1.2673   YZ=              0.4357

 Normal termination of Gaussian 09 at Wed Aug 26 10:40:51 2020.
