 Gaussian 09, Revision D.01,
 Gaussian 09:  ES64L-G09RevD.01 24-Apr-2013

 --------------------
 #p B2PLYPD3/Def2QZVP
 --------------------

 ----------
 butane_opt
 ----------
 Symbolic Z-matrix:
 Charge =  0 Multiplicity = 1

                         Standard orientation:
 ---------------------------------------------------------------------
 Center     Atomic      Atomic             Coordinates (Angstroms)
 Number     Number       Type             X           Y           Z
 ---------------------------------------------------------------------
      1          6           0       -1.894693   -0.112131    0.106575
      2          6           0       -0.564478    0.492553   -0.123000
      3          1           0       -2.777775    0.838113   -0.082039
      4          1           0       -2.036832   -0.762836    1.125882
      5          1           0       -1.980457   -0.581583   -0.663024
      6          6           0        0.511157   -0.584435    0.005470
      7          1           0       -0.312208    1.077343    0.578379
      8          1           0       -0.529855    1.283995   -1.150667
      9          6           0        1.941195    0.109291    0.027031
     10          1           0        0.355836   -1.342436   -0.873301
     11          1           0        0.317731   -0.993516    0.792910
     12          1           0        1.808443    0.380463   -0.590255
     13          1           0        2.644471   -0.526818   -0.439830
     14          1           0        2.551554    1.195606    1.205494
 ---------------------------------------------------------------------

 SCF Done:  E(RB2PLYPD3) =  -157.607243956     A.U. after   11 cycles
 E2(B2PLYPD3) =    -0.2522789764D+00 E(B2PLYPD3) =    -0.15785952293197D+03

 The electronic state is 1-A.
 Alpha  occ. eigenvalues --  -10.61156 -10.60725 -10.60583 -10.60476  -0.94804
 Alpha  occ. eigenvalues --   -0.87872  -0.76752  -0.68930  -0.54766  -0.49607
 Alpha  occ. eigenvalues --   -0.48244  -0.46721  -0.43518  -0.40361  -0.38615
 Alpha  occ. eigenvalues --   -0.36818  -0.36046
 Alpha virt. eigenvalues --    0.01293   0.05339   0.07060   0.07547   0.10513
 Alpha virt. eigenvalues --    0.10826   0.11922   0.12935   0.14817   0.15660
 Alpha virt. eigenvalues --    0.16014   0.16292   0.18409   0.18929   0.20350

 Mulliken charges:
               1
     1  C   -0.204361
     2  C   -0.063245
     3  H    0.017258
     4  H    0.050178
     5  H    0.110794
     6  C   -0.063743
     7  H    0.092951
     8  H   -0.005225
     9  C   -0.693563
    10  H    0.019229
    11  H    0.100166
    12  H    0.541330
    13  H    0.067114
    14  H    0.031117
 Sum of Mulliken charges =   0.00000

 Dipole moment (field-independent basis, Debye):
    X=             -0.0830    Y=             -0.3252    Z=             -0.3749  Tot=              0.5032
 Quadrupole moment (field-independent basis, Debye-Ang):
   XX=            -31.4747   YY=            -29.0536   ZZ=            -27.8856
   XY=              0.3937   XZ=             -0.7464   YZ=              0.3704

 Normal termination of Gaussian 09 at Wed Aug 26 16:25:02 2020.
