 Gaussian 09, Revision D.01,
 Gaussian 09:  ES64L-G09RevD.01 24-Apr-2013

 --------------------
 #p B2PLYPD3/Def2QZVP
 --------------------

 ----------
 butane_opt
 ----------
 Symbolic Z-matrix:
 Charge =  0 Multiplicity = 1

                         Standard orientation:
 ---------------------------------------------------------------------
 Center     Atomic      Atomic             Coordinates (Angstroms)
 Number     Number       Type             X           Y           Z
 ---------------------------------------------------------------------
      1          6           0       -1.968556   -0.124886   -0.156138
      2          6           0       -0.547979    0.598624    0.040292
      3          1           0       -2.603700    0.467694   -0.081003
      4          1           0       -2.316315   -0.580382    0.898728
      5          1           0       -2.254264   -1.233773   -1.146193
      6          6           0        0.531216   -0.434836    0.406062
      7          1           0       -0.532679    1.372369    0.818305
      8          1           0       -0.358208    1.208734   -1.007001
      9          6           0        1.952214    0.052482   -0.188899
     10          1           0        0.340782   -1.182157   -0.403239
     11          1           0        0.720718   -0.958677    1.508785
     12          1           0        1.739136    0.312180   -0.937094
     13          1           0        2.760746   -0.893803   -0.874109
     14          1           0        2.702413    0.939506    0.614924
 ---------------------------------------------------------------------

 SCF Done:  E(RB2PLYPD3) =  -157.782414351     A.U. after   11 cycles
 E2(B2PLYPD3) =    -0.2556406204D+00 E(B2PLYPD3) =    -0.15803805497102D+03

 The electronic state is 1-A.
 Alpha  occ. eigenvalues --  -10.64660 -10.63934 -10.63314 -10.63202  -0.90730
 Alpha  occ. eigenvalues --   -0.83627  -0.74676  -0.66091  -0.53450  -0.48577
 Alpha  occ. eigenvalues --   -0.46668  -0.44767  -0.40744  -0.40713  -0.37702
 Alpha  occ. eigenvalues --   -0.36432  -0.34567
 Alpha virt. eigenvalues --    0.03995   0.04168   0.06956   0.07122   0.09034
 Alpha virt. eigenvalues --    0.09706   0.11511   0.12367   0.13808   0.14545
 Alpha virt. eigenvalues --    0.15945   0.16408   0.18436   0.18871   0.19895

 Mulliken charges:
               1
     1  C   -0.235166
     2  C   -0.026799
     3  H    0.145063
     4  H    0.020050
     5  H    0.038519
     6  C   -0.070940
     7  H    0.046371
     8  H    0.025973
     9  C   -0.360697
    10  H    0.061336
    11  H    0.062992
    12  H    0.257563
    13  H    0.000854
    14  H    0.034881
 Sum of Mulliken charges =   0.00000

 Dipole moment (field-independent basis, Debye):
    X=             -0.8039    Y=              0.5204    Z=              0.0540  Tot=              0.9592
 Quadrupole moment (field-independent basis, Debye-Ang):
   XX=            -32.1220   YY=            -29.9231   ZZ=            -28.3929
   XY=             -0.0276   XZ=             -0.4611   YZ=              0.7343

 Normal termination of Gaussian 09 at Wed Aug 26 21:25:31 2020.
