 Gaussian 09, Revision D.01,
 Gaussian 09:  ES64L-G09RevD.01 24-Apr-2013

 --------------------
 #p B2PLYPD3/Def2QZVP
 --------------------

 ----------
 butane_opt
 ----------
 Symbolic Z-matrix:
 Charge =  0 Multiplicity = 1

                         Standard orientation:
 ---------------------------------------------------------------------
 Center     Atomic      Atomic             Coordinates (Angstroms)
 Number     Number       Type             X           Y           Z
 ---------------------------------------------------------------------
      1          6           0       -2.097946   -0.156624   -0.039298
      2          6           0       -0.519211    0.572033    0.042406
      3          1           0       -2.809654    0.460340   -0.167740
      4          1           0       -2.306239   -0.422281    0.757814
      5          1           0       -1.985685   -1.174259   -1.034060
      6          6           0        0.610410   -0.441177    0.213579
      7          1           0       -0.342382    1.142480    0.700244
      8          1           0       -0.295016    1.331762   -0.906577
      9          6           0        1.953113    0.088618   -0.099376
     10          1           0        0.438329   -1.134290   -0.640249
     11          1           0        0.829214   -1.190320    1.310696
     12          1           0        1.669794    0.462843   -0.771327
     13          1           0        2.858745   -0.776040   -0.690689
     14          1           0        2.264700    0.922659    0.738022
 ---------------------------------------------------------------------

 SCF Done:  E(RB2PLYPD3) =  -157.762304412     A.U. after   11 cycles
 E2(B2PLYPD3) =    -0.2520523502D+00 E(B2PLYPD3) =    -0.15801435676239D+03

 The electronic state is 1-A.
 Alpha  occ. eigenvalues --  -10.63027 -10.62081 -10.61264 -10.60414  -0.93151
 Alpha  occ. eigenvalues --   -0.85149  -0.77512  -0.66165  -0.54472  -0.50606
 Alpha  occ. eigenvalues --   -0.48066  -0.46435  -0.42924  -0.40578  -0.38106
 Alpha  occ. eigenvalues --   -0.36119  -0.35526
 Alpha virt. eigenvalues --    0.04423   0.05451   0.06750   0.08238   0.09958
 Alpha virt. eigenvalues --    0.11361   0.11896   0.13059   0.14066   0.14964
 Alpha virt. eigenvalues --    0.16012   0.16621   0.18231   0.18938   0.20215

 Mulliken charges:
               1
     1  C   -0.211457
     2  C   -0.136035
     3  H    0.064035
     4  H    0.136754
     5  H    0.030256
     6  C   -0.044781
     7  H    0.125570
     8  H    0.010241
     9  C   -0.350440
    10  H    0.043415
    11  H    0.011055
    12  H    0.247836
    13  H    0.034065
    14  H    0.039486
 Sum of Mulliken charges =   0.00000

 Dipole moment (field-independent basis, Debye):
    X=             -0.5948    Y=              0.5709    Z=             -0.0117  Tot=              0.8246
 Quadrupole moment (field-independent basis, Debye-Ang):
   XX=            -29.8158   YY=            -29.4180   ZZ=            -28.6428
   XY=             -0.6292   XZ=             -1.1710   YZ=              1.0196

 Normal termination of Gaussian 09 at Wed Aug 26 14:51:42 2020.
