 Gaussian 09, Revision D.01,
 Gaussian 09:  ES64L-G09RevD.01 24-Apr-2013

 --------------------
 #p B2PLYPD3/Def2QZVP
 --------------------

 ----------
 butane_opt
 ----------
 Symbolic Z-matrix:
 Charge =  0 Multiplicity = 1

                         Standard orientation:
 ---------------------------------------------------------------------
 Center     Atomic      Atomic             Coordinates (Angstroms)
 Number     Number       Type             X           Y           Z
 ---------------------------------------------------------------------
      1          6           0        1.877303    0.079412   -0.085377
      2          6           0        0.578693   -0.493875    0.117564
      3          1           0        2.704661   -0.771165   -0.277646
      4          1           0        2.271083    0.758575    0.857131
      5          1           0        1.959455    0.736806   -0.996061
      6          6           0       -0.529445    0.557427    0.122136
      7          1           0        0.533092   -1.200668    1.048811
      8          1           0        0.476831   -0.991362   -0.710646
      9          6           0       -1.967216   -0.125000   -0.091359
     10          1           0       -0.235196    1.200658   -0.799717
     11          1           0       -0.409812    1.144871    0.953283
     12          1           0       -1.927832   -0.842092   -0.993422
     13          1           0       -2.638979    0.542279   -0.212345
     14          1           0       -2.489312   -0.685687    0.752826
 ---------------------------------------------------------------------

 SCF Done:  E(RB2PLYPD3) =  -158.055968798     A.U. after   11 cycles
 E2(B2PLYPD3) =    -0.2476584880D+00 E(B2PLYPD3) =    -0.15830362728636D+03

 The electronic state is 1-A.
 Alpha  occ. eigenvalues --  -10.61996 -10.61240 -10.60078 -10.59128  -0.92251
 Alpha  occ. eigenvalues --   -0.83035  -0.72989  -0.66482  -0.54782  -0.49838
 Alpha  occ. eigenvalues --   -0.48399  -0.46319  -0.43386  -0.40382  -0.39197
 Alpha  occ. eigenvalues --   -0.37842  -0.36489
 Alpha virt. eigenvalues --    0.05678   0.06602   0.08083   0.08783   0.10585
 Alpha virt. eigenvalues --    0.11683   0.12761   0.13584   0.14966   0.15177
 Alpha virt. eigenvalues --    0.15740   0.16542   0.19379   0.20167   0.21609

 Mulliken charges:
               1
     1  C   -0.148911
     2  C   -0.050359
     3  H    0.034868
     4  H    0.021896
     5  H    0.040534
     6  C   -0.067463
     7  H    0.028043
     8  H    0.077834
     9  C   -0.146676
    10  H    0.023792
    11  H    0.057943
    12  H    0.037102
    13  H    0.065299
    14  H    0.026099
 Sum of Mulliken charges =   0.00000

 Dipole moment (field-independent basis, Debye):
    X=             -0.2703    Y=              0.0268    Z=             -0.1484  Tot=              0.3096
 Quadrupole moment (field-independent basis, Debye-Ang):
   XX=            -29.7228   YY=            -29.2306   ZZ=            -28.2600
   XY=             -0.3005   XZ=             -0.6718   YZ=              0.2750

 Normal termination of Gaussian 09 at Wed Aug 26 15:08:15 2020.
