 Gaussian 09, Revision D.01,
 Gaussian 09:  ES64L-G09RevD.01 24-Apr-2013

 --------------------
 #p B2PLYPD3/Def2QZVP
 --------------------

 ----------
 butane_opt
 ----------
 Symbolic Z-matrix:
 Charge =  0 Multiplicity = 1

                         Standard orientation:
 ---------------------------------------------------------------------
 Center     Atomic      Atomic             Coordinates (Angstroms)
 Number     Number       Type             X           Y           Z
 ---------------------------------------------------------------------
      1          6           0       -1.982377   -0.145066   -0.075123
      2          6           0       -0.555074    0.548288    0.077990
      3          1           0       -2.710891    0.598709   -0.064096
      4          1           0       -2.160173   -0.658743    0.721852
      5          1           0       -2.093606   -0.798899   -0.963018
      6          6           0        0.578987   -0.541269    0.190572
      7          1           0       -0.578414    1.263575    0.896540
      8          1           0       -0.354378    1.214440   -0.912214
      9          6           0        1.931144    0.123681   -0.123227
     10          1           0        0.432164   -1.204485   -0.661576
     11          1           0        0.681475   -1.166648    1.040786
     12          1           0        1.784053    0.528505   -0.840219
     13          1           0        2.710551   -0.585070   -0.436933
     14          1           0        2.453143    0.894814    0.797610
 ---------------------------------------------------------------------

 SCF Done:  E(RB2PLYPD3) =  -158.008155015     A.U. after   11 cycles
 E2(B2PLYPD3) =    -0.2466549065D+00 E(B2PLYPD3) =    -0.15825480992115D+03

 The electronic state is 1-A.
 Alpha  occ. eigenvalues --  -10.62621 -10.60686 -10.58707 -10.58322  -0.90656
 Alpha  occ. eigenvalues --   -0.84143  -0.73962  -0.67539  -0.53830  -0.49851
 Alpha  occ. eigenvalues --   -0.47997  -0.47492  -0.43353  -0.41877  -0.39116
 Alpha  occ. eigenvalues --   -0.37620  -0.36898
 Alpha virt. eigenvalues --    0.05767   0.06831   0.08079   0.08918   0.10674
 Alpha virt. eigenvalues --    0.11757   0.12762   0.13788   0.15038   0.15365
 Alpha virt. eigenvalues --    0.16298   0.16656   0.19129   0.20000   0.21824

 Mulliken charges:
               1
     1  C   -0.140448
     2  C   -0.051838
     3  H    0.039778
     4  H    0.060982
     5  H    0.037242
     6  C   -0.036874
     7  H    0.043389
     8  H    0.010946
     9  C   -0.275740
    10  H    0.035893
    11  H    0.045418
    12  H    0.177012
    13  H    0.033327
    14  H    0.020914
 Sum of Mulliken charges =   0.00000

 Dipole moment (field-independent basis, Debye):
    X=             -0.2659    Y=             -0.1854    Z=             -0.0995  Tot=              0.3390
 Quadrupole moment (field-independent basis, Debye-Ang):
   XX=            -29.7747   YY=            -28.6810   ZZ=            -27.9055
   XY=             -0.5605   XZ=             -0.6994   YZ=              0.2738

 Normal termination of Gaussian 09 at Wed Aug 26 13:28:15 2020.
