 Gaussian 09, Revision D.01,
 Gaussian 09:  ES64L-G09RevD.01 24-Apr-2013

 --------------------
 #p B2PLYPD3/Def2QZVP
 --------------------

 ----------
 butane_opt
 ----------
 Symbolic Z-matrix:
 Charge =  0 Multiplicity = 1

                         Standard orientation:
 ---------------------------------------------------------------------
 Center     Atomic      Atomic             Coordinates (Angstroms)
 Number     Number       Type             X           Y           Z
 ---------------------------------------------------------------------
      1          6           0        1.932606   -0.187309   -0.160694
      2          6           0        0.485204    0.602162    0.220083
      3          1           0        2.720223    0.517589   -0.764073
      4          1           0        1.799701   -0.434576   -0.804690
      5          1           0        2.568632   -0.953612    0.868036
      6          6           0       -0.538445   -0.465124    0.133419
      7          1           0        0.211158    1.005408   -0.412008
      8          1           0        0.104355    1.723998    1.250028
      9          6           0       -1.840563    0.043095   -0.192660
     10          1           0       -0.519124   -1.315144    1.282530
     11          1           0       -0.456695   -1.002636   -0.549545
     12          1           0       -2.303342    0.722191    0.665475
     13          1           0       -2.715343   -0.917879   -0.189647
     14          1           0       -1.642382    0.697716   -1.346990
 ---------------------------------------------------------------------

 SCF Done:  E(RB2PLYPD3) =  -157.490364016     A.U. after   12 cycles
 E2(B2PLYPD3) =    -0.2569237221D+00 E(B2PLYPD3) =    -0.15774728773839D+03

 The electronic state is 1-A.
 Alpha  occ. eigenvalues --  -10.65590 -10.63183 -10.62970 -10.61182  -0.96299
 Alpha  occ. eigenvalues --   -0.86887  -0.77512  -0.67712  -0.54782  -0.50329
 Alpha  occ. eigenvalues --   -0.47307  -0.46512  -0.40091  -0.39709  -0.38181
 Alpha  occ. eigenvalues --   -0.37170  -0.34322
 Alpha virt. eigenvalues --    0.02804   0.05038   0.05549   0.06561   0.08868
 Alpha virt. eigenvalues --    0.10409   0.11033   0.11862   0.14325   0.14871
 Alpha virt. eigenvalues --    0.15786   0.16308   0.17221   0.18733   0.19816

 Mulliken charges:
               1
     1  C   -0.636751
     2  C   -0.294499
     3  H    0.039634
     4  H    0.496755
     5  H    0.076776
     6  C   -0.097548
     7  H    0.323016
     8  H    0.002860
     9  C   -0.183715
    10  H   -0.018674
    11  H    0.160837
    12  H    0.054367
    13  H    0.044537
    14  H    0.032405
 Sum of Mulliken charges =   0.00000

 Dipole moment (field-independent basis, Debye):
    X=             -0.0180    Y=             -0.2866    Z=             -0.9709  Tot=              1.0125
 Quadrupole moment (field-independent basis, Debye-Ang):
   XX=            -30.6571   YY=            -30.3413   ZZ=            -28.9546
   XY=             -0.7381   XZ=             -1.3125   YZ=             -0.3606

 Normal termination of Gaussian 09 at Wed Aug 26 12:21:17 2020.
