 Gaussian 09, Revision D.01,
 Gaussian 09:  ES64L-G09RevD.01 24-Apr-2013

 --------------------
 #p B2PLYPD3/Def2QZVP
 --------------------

 ----------
 butane_opt
 ----------
 Symbolic Z-matrix:
 Charge =  0 Multiplicity = 1

                         Standard orientation:
 ---------------------------------------------------------------------
 Center     Atomic      Atomic             Coordinates (Angstroms)
 Number     Number       Type             X           Y           Z
 ---------------------------------------------------------------------
      1          6           0       -1.985458    0.097004   -0.141004
      2          6           0       -0.578346   -0.625529    0.199428
      3          1           0       -2.577001   -0.302896   -0.861296
      4          1           0       -1.828713    0.585529   -0.900296
      5          1           0       -2.583314    1.062628    1.077699
      6          6           0        0.621211    0.508232    0.078279
      7          1           0       -0.582808   -0.949897   -0.297541
      8          1           0       -0.292091   -1.343363    1.085496
      9          6           0        1.959049   -0.113944   -0.135100
     10          1           0        0.497988    1.464190    1.094086
     11          1           0        0.475302    0.902377   -0.697318
     12          1           0        2.225438   -0.750365    0.875763
     13          1           0        2.765424    0.812940   -0.306392
     14          1           0        1.801032   -0.675726   -1.079814
 ---------------------------------------------------------------------

 SCF Done:  E(RB2PLYPD3) =  -157.351881259     A.U. after   12 cycles
 E2(B2PLYPD3) =    -0.2537860483D+00 E(B2PLYPD3) =    -0.15760566730776D+03

 The electronic state is 1-A.
 Alpha  occ. eigenvalues --  -10.63518 -10.62850 -10.61582 -10.60681  -0.94793
 Alpha  occ. eigenvalues --   -0.86537  -0.79238  -0.68603  -0.55300  -0.49384
 Alpha  occ. eigenvalues --   -0.48719  -0.46215  -0.42214  -0.40223  -0.38335
 Alpha  occ. eigenvalues --   -0.36021  -0.34517
 Alpha virt. eigenvalues --    0.02494   0.05076   0.07462   0.08101   0.09333
 Alpha virt. eigenvalues --    0.10918   0.11169   0.12256   0.14257   0.15439
 Alpha virt. eigenvalues --    0.15659   0.17067   0.17981   0.18673   0.20697

 Mulliken charges:
               1
     1  C   -0.205272
     2  C   -0.857678
     3  H    0.072280
     4  H    0.134858
     5  H    0.013402
     6  C   -0.116922
     7  H    0.714758
     8  H    0.091567
     9  C   -0.164770
    10  H    0.009125
    11  H    0.157722
    12  H    0.047135
    13  H    0.044282
    14  H    0.059511
 Sum of Mulliken charges =   0.00000

 Dipole moment (field-independent basis, Debye):
    X=              0.3683    Y=             -0.2929    Z=             -1.3151  Tot=              1.3968
 Quadrupole moment (field-independent basis, Debye-Ang):
   XX=            -32.4350   YY=            -29.6809   ZZ=            -27.0915
   XY=              0.2006   XZ=              2.0842   YZ=             -0.0471

 Normal termination of Gaussian 09 at Wed Aug 26 09:53:35 2020.
