 Gaussian 09, Revision D.01,
 Gaussian 09:  ES64L-G09RevD.01 24-Apr-2013

 --------------------
 #p B2PLYPD3/Def2QZVP
 --------------------

 ----------
 butane_opt
 ----------
 Symbolic Z-matrix:
 Charge =  0 Multiplicity = 1

                         Standard orientation:
 ---------------------------------------------------------------------
 Center     Atomic      Atomic             Coordinates (Angstroms)
 Number     Number       Type             X           Y           Z
 ---------------------------------------------------------------------
      1          6           0        1.877884    0.055574   -0.056782
      2          6           0        0.575903   -0.452963    0.099499
      3          1           0        2.736065   -0.707560   -0.102813
      4          1           0        2.057928    0.603715    0.755777
      5          1           0        1.543612    0.628385   -1.062428
      6          6           0       -0.556828    0.593806    0.092357
      7          1           0        0.536126   -0.964843    0.926333
      8          1           0        0.390232   -1.253687   -0.798574
      9          6           0       -1.867196   -0.190422   -0.037637
     10          1           0       -0.101788    1.395517   -0.815125
     11          1           0       -0.522380    1.431555    1.038892
     12          1           0       -1.857013   -0.731783   -0.846109
     13          1           0       -2.509028    0.384165   -0.628729
     14          1           0       -2.452324   -0.821433    0.948156
 ---------------------------------------------------------------------

 SCF Done:  E(RB2PLYPD3) =  -157.959939294     A.U. after   11 cycles
 E2(B2PLYPD3) =    -0.2521449703D+00 E(B2PLYPD3) =    -0.15821208426383D+03

 The electronic state is 1-A.
 Alpha  occ. eigenvalues --  -10.65012 -10.60734 -10.59419 -10.59297  -0.93082
 Alpha  occ. eigenvalues --   -0.85295  -0.72576  -0.65455  -0.56249  -0.50463
 Alpha  occ. eigenvalues --   -0.48161  -0.47220  -0.42516  -0.38499  -0.38102
 Alpha  occ. eigenvalues --   -0.36441  -0.35403
 Alpha virt. eigenvalues --    0.05379   0.06046   0.07165   0.07771   0.10724
 Alpha virt. eigenvalues --    0.11571   0.12335   0.12923   0.14378   0.15270
 Alpha virt. eigenvalues --    0.16044   0.17321   0.18727   0.19026   0.20282

 Mulliken charges:
               1
     1  C   -0.150611
     2  C   -0.012388
     3  H    0.042449
     4  H    0.063766
     5  H    0.027023
     6  C   -0.037364
     7  H    0.043208
     8  H    0.005367
     9  C   -0.173133
    10  H    0.000135
    11  H    0.020759
    12  H    0.069384
    13  H    0.040382
    14  H    0.061022
 Sum of Mulliken charges =   0.00000

 Dipole moment (field-independent basis, Debye):
    X=             -0.1983    Y=             -0.3448    Z=              0.1246  Tot=              0.4169
 Quadrupole moment (field-independent basis, Debye-Ang):
   XX=            -29.8621   YY=            -29.9008   ZZ=            -28.2235
   XY=             -0.0448   XZ=              1.5136   YZ=             -0.0109

 Normal termination of Gaussian 09 at Wed Aug 26 13:55:40 2020.
