 Gaussian 09, Revision D.01,
 Gaussian 09:  ES64L-G09RevD.01 24-Apr-2013

 --------------------
 #p B2PLYPD3/Def2QZVP
 --------------------

 ----------
 butane_opt
 ----------
 Symbolic Z-matrix:
 Charge =  0 Multiplicity = 1

                         Standard orientation:
 ---------------------------------------------------------------------
 Center     Atomic      Atomic             Coordinates (Angstroms)
 Number     Number       Type             X           Y           Z
 ---------------------------------------------------------------------
      1          6           0        1.853433    0.083303   -0.012225
      2          6           0        0.520332   -0.476959    0.072290
      3          1           0        2.769236   -0.691972   -0.497252
      4          1           0        2.475307    1.248115    1.148410
      5          1           0        1.667447    0.258299   -0.616059
      6          6           0       -0.554402    0.497645   -0.155581
      7          1           0        0.615635   -1.000664    1.002563
      8          1           0        0.648412   -1.156082   -0.721426
      9          6           0       -1.949538   -0.127478    0.102113
     10          1           0       -0.546674    1.364029   -1.196496
     11          1           0       -0.264182    1.133497    0.605443
     12          1           0       -1.956681   -0.988318   -0.816981
     13          1           0       -2.694464    0.591291    0.078088
     14          1           0       -1.932986   -0.617260    0.974131
 ---------------------------------------------------------------------

 SCF Done:  E(RB2PLYPD3) =  -157.566905269     A.U. after   12 cycles
 E2(B2PLYPD3) =    -0.2546852291D+00 E(B2PLYPD3) =    -0.15782159049802D+03

 The electronic state is 1-A.
 Alpha  occ. eigenvalues --  -10.62878 -10.62024 -10.61058 -10.60812  -0.98479
 Alpha  occ. eigenvalues --   -0.87180  -0.75118  -0.67832  -0.55954  -0.52304
 Alpha  occ. eigenvalues --   -0.49464  -0.46283  -0.42637  -0.40887  -0.37763
 Alpha  occ. eigenvalues --   -0.37015  -0.33334
 Alpha virt. eigenvalues --    0.01631   0.05216   0.06599   0.06885   0.10186
 Alpha virt. eigenvalues --    0.10330   0.12061   0.13084   0.13893   0.14517
 Alpha virt. eigenvalues --    0.15406   0.16393   0.18404   0.19758   0.20241

 Mulliken charges:
               1
     1  C   -0.808978
     2  C    0.028822
     3  H    0.058281
     4  H   -0.009566
     5  H    0.639051
     6  C   -0.069597
     7  H    0.045538
     8  H    0.043414
     9  C   -0.162803
    10  H    0.009355
    11  H    0.059707
    12  H    0.028819
    13  H    0.063503
    14  H    0.074453
 Sum of Mulliken charges =   0.00000

 Dipole moment (field-independent basis, Debye):
    X=             -0.6334    Y=             -0.3358    Z=             -0.2308  Tot=              0.7532
 Quadrupole moment (field-independent basis, Debye-Ang):
   XX=            -31.6869   YY=            -29.6536   ZZ=            -28.4760
   XY=             -1.8596   XZ=             -1.6270   YZ=              0.3329

 Normal termination of Gaussian 09 at Wed Aug 26 11:29:56 2020.
