 Gaussian 09, Revision D.01,
 Gaussian 09:  ES64L-G09RevD.01 24-Apr-2013

 --------------------
 #p B2PLYPD3/Def2QZVP
 --------------------

 ----------
 butane_opt
 ----------
 Symbolic Z-matrix:
 Charge =  0 Multiplicity = 1

                         Standard orientation:
 ---------------------------------------------------------------------
 Center     Atomic      Atomic             Coordinates (Angstroms)
 Number     Number       Type             X           Y           Z
 ---------------------------------------------------------------------
      1          6           0        1.943991   -0.121786   -0.185857
      2          6           0        0.660041    0.421168    0.278145
      3          1           0        2.856819    0.977107   -0.700682
      4          1           0        1.770693   -0.433228   -1.008940
      5          1           0        2.353058   -0.941129    0.725149
      6          6           0       -0.540047   -0.598676    0.145007
      7          1           0        0.459257    1.034746   -0.298406
      8          1           0        0.657350    1.282862    1.449958
      9          6           0       -2.043108    0.205699   -0.158264
     10          1           0       -0.790915   -1.165293    0.851759
     11          1           0       -0.365941   -1.306603   -0.894058
     12          1           0       -2.289095    0.401069    0.450284
     13          1           0       -2.667503   -0.404613   -0.047078
     14          1           0       -2.108985    1.116653   -1.002171
 ---------------------------------------------------------------------

 SCF Done:  E(RB2PLYPD3) =  -157.522802459     A.U. after   12 cycles
 E2(B2PLYPD3) =    -0.2521982318D+00 E(B2PLYPD3) =    -0.15777500069079D+03

 The electronic state is 1-A.
 Alpha  occ. eigenvalues --  -10.63792 -10.63434 -10.61873 -10.56526  -0.93704
 Alpha  occ. eigenvalues --   -0.90286  -0.77030  -0.69571  -0.54364  -0.50689
 Alpha  occ. eigenvalues --   -0.48386  -0.47505  -0.43158  -0.41595  -0.37426
 Alpha  occ. eigenvalues --   -0.36632  -0.34625
 Alpha virt. eigenvalues --    0.03495   0.05937   0.06086   0.08173   0.09654
 Alpha virt. eigenvalues --    0.10847   0.11456   0.13808   0.14190   0.15080
 Alpha virt. eigenvalues --    0.15290   0.17031   0.18393   0.18702   0.20217

 Mulliken charges:
               1
     1  C   -0.208251
     2  C   -0.143856
     3  H   -0.007953
     4  H    0.135150
     5  H    0.059492
     6  C   -0.048151
     7  H    0.174364
     8  H   -0.013140
     9  C   -0.571757
    10  H    0.079249
    11  H    0.009493
    12  H    0.417916
    13  H    0.048890
    14  H    0.068553
 Sum of Mulliken charges =   0.00000

 Dipole moment (field-independent basis, Debye):
    X=             -0.9833    Y=             -0.3586    Z=             -0.0402  Tot=              1.0474
 Quadrupole moment (field-independent basis, Debye-Ang):
   XX=            -30.6473   YY=            -28.8759   ZZ=            -28.5443
   XY=             -0.3613   XZ=             -1.7200   YZ=             -1.4331

 Normal termination of Gaussian 09 at Wed Aug 26 23:42:34 2020.
