 Gaussian 09, Revision D.01,
 Gaussian 09:  ES64L-G09RevD.01 24-Apr-2013

 --------------------
 #p B2PLYPD3/Def2QZVP
 --------------------

 ----------
 butane_opt
 ----------
 Symbolic Z-matrix:
 Charge =  0 Multiplicity = 1

                         Standard orientation:
 ---------------------------------------------------------------------
 Center     Atomic      Atomic             Coordinates (Angstroms)
 Number     Number       Type             X           Y           Z
 ---------------------------------------------------------------------
      1          6           0        2.061725   -0.147215    0.126342
      2          6           0        0.547407    0.567778   -0.221083
      3          1           0        2.843117    0.582432    0.214877
      4          1           0        2.123000   -0.572194   -0.715685
      5          1           0        2.060002   -1.099064    1.192843
      6          6           0       -0.617713   -0.474922   -0.080918
      7          1           0        0.025388    1.369503   -1.347020
      8          1           0        0.395821    0.964485    0.511364
      9          6           0       -1.913028    0.109095    0.175938
     10          1           0       -0.492944   -0.705298    0.538741
     11          1           0       -0.672953   -1.418942   -1.041005
     12          1           0       -2.067358    1.124261    1.343078
     13          1           0       -2.805577   -0.861800   -0.209737
     14          1           0       -1.878846    0.288199   -0.489131
 ---------------------------------------------------------------------

 SCF Done:  E(RB2PLYPD3) =  -157.208293733     A.U. after   12 cycles
 E2(B2PLYPD3) =    -0.2577292552D+00 E(B2PLYPD3) =    -0.15746602298846D+03

 The electronic state is 1-A.
 Alpha  occ. eigenvalues --  -10.63590 -10.62928 -10.61491 -10.59042  -0.98121
 Alpha  occ. eigenvalues --   -0.85844  -0.77968  -0.71692  -0.54817  -0.49270
 Alpha  occ. eigenvalues --   -0.46235  -0.44758  -0.42402  -0.41193  -0.37492
 Alpha  occ. eigenvalues --   -0.37027  -0.33800
 Alpha virt. eigenvalues --    0.02434   0.03395   0.04781   0.07086   0.10228
 Alpha virt. eigenvalues --    0.10400   0.11393   0.12829   0.13771   0.14528
 Alpha virt. eigenvalues --    0.14895   0.15981   0.17916   0.18550   0.20204

 Mulliken charges:
               1
     1  C   -0.212271
     2  C   -0.242861
     3  H    0.072185
     4  H    0.125699
     5  H    0.038978
     6  C   -0.632427
     7  H    0.015016
     8  H    0.237028
     9  C   -0.703051
    10  H    0.601963
    11  H    0.026795
    12  H    0.060190
    13  H    0.042700
    14  H    0.570058
 Sum of Mulliken charges =   0.00000

 Dipole moment (field-independent basis, Debye):
    X=              0.5663    Y=             -0.0398    Z=              0.1109  Tot=              0.5784
 Quadrupole moment (field-independent basis, Debye-Ang):
   XX=            -30.6500   YY=            -29.6823   ZZ=            -28.1162
   XY=             -0.0470   XZ=              1.0191   YZ=              1.1472

 Normal termination of Gaussian 09 at Wed Aug 26 23:19:46 2020.
