 Gaussian 09, Revision D.01,
 Gaussian 09:  ES64L-G09RevD.01 24-Apr-2013

 --------------------
 #p B2PLYPD3/Def2QZVP
 --------------------

 ----------
 butane_opt
 ----------
 Symbolic Z-matrix:
 Charge =  0 Multiplicity = 1

                         Standard orientation:
 ---------------------------------------------------------------------
 Center     Atomic      Atomic             Coordinates (Angstroms)
 Number     Number       Type             X           Y           Z
 ---------------------------------------------------------------------
      1          6           0        1.914669    0.040262    0.217032
      2          6           0        0.629015   -0.468810   -0.378940
      3          1           0        2.644134   -0.681515    0.656981
      4          1           0        1.714644    0.666632    1.134637
      5          1           0        2.680859    0.801449   -0.562280
      6          6           0       -0.507186    0.585358   -0.116925
      7          1           0        0.280004   -1.173063    0.502945
      8          1           0        0.664437   -1.078452   -1.255483
      9          6           0       -2.013674   -0.160787    0.099560
     10          1           0       -0.543948    1.331496   -0.798673
     11          1           0       -0.214452    0.983512    0.629614
     12          1           0       -2.227592   -0.408908   -0.560418
     13          1           0       -2.763620    0.673985    0.244137
     14          1           0       -2.371411   -1.091271    1.084176
 ---------------------------------------------------------------------

 SCF Done:  E(RB2PLYPD3) =  -157.817877188     A.U. after   11 cycles
 E2(B2PLYPD3) =    -0.2497119508D+00 E(B2PLYPD3) =    -0.15806758913880D+03

 The electronic state is 1-A.
 Alpha  occ. eigenvalues --  -10.62968 -10.61857 -10.60424 -10.59608  -0.91470
 Alpha  occ. eigenvalues --   -0.84097  -0.76401  -0.68131  -0.54202  -0.49981
 Alpha  occ. eigenvalues --   -0.48496  -0.44668  -0.44110  -0.41778  -0.39882
 Alpha  occ. eigenvalues --   -0.36994  -0.34669
 Alpha virt. eigenvalues --    0.05467   0.05834   0.08498   0.08577   0.09634
 Alpha virt. eigenvalues --    0.11299   0.12198   0.13777   0.14096   0.15248
 Alpha virt. eigenvalues --    0.15712   0.17008   0.19066   0.19684   0.20733

 Mulliken charges:
               1
     1  C   -0.143759
     2  C   -0.053974
     3  H    0.050797
     4  H    0.044451
     5  H    0.003077
     6  C   -0.086601
     7  H    0.029559
     8  H    0.057151
     9  C   -0.479580
    10  H    0.034385
    11  H    0.120601
    12  H    0.344591
    13  H    0.044951
    14  H    0.034350
 Sum of Mulliken charges =   0.00000

 Dipole moment (field-independent basis, Debye):
    X=             -0.2176    Y=              0.0705    Z=             -0.0730  Tot=              0.2401
 Quadrupole moment (field-independent basis, Debye-Ang):
   XX=            -30.0370   YY=            -28.9019   ZZ=            -28.2222
   XY=             -0.4922   XZ=              1.0076   YZ=              0.0564

 Normal termination of Gaussian 09 at Wed Aug 26 18:32:39 2020.
