 Gaussian 09, Revision D.01,
 Gaussian 09:  ES64L-G09RevD.01 24-Apr-2013

 --------------------
 #p B2PLYPD3/Def2QZVP
 --------------------

 ----------
 butane_opt
 ----------
 Symbolic Z-matrix:
 Charge =  0 Multiplicity = 1

                         Standard orientation:
 ---------------------------------------------------------------------
 Center     Atomic      Atomic             Coordinates (Angstroms)
 Number     Number       Type             X           Y           Z
 ---------------------------------------------------------------------
      1          6           0       -1.958316    0.087812   -0.193717
      2          6           0       -0.649612   -0.520630    0.278269
      3          1           0       -2.588137   -0.440939   -0.700251
      4          1           0       -1.757866    0.303561   -0.889870
      5          1           0       -2.611033    0.937527    0.743477
      6          6           0        0.528902    0.557013    0.084958
      7          1           0       -0.285945   -1.138039   -0.699139
      8          1           0       -0.667257   -1.340349    1.265109
      9          6           0        2.005617   -0.114892   -0.120192
     10          1           0        0.471486    1.464082    1.098853
     11          1           0        0.266485    1.018171   -0.743300
     12          1           0        2.297206   -0.778105    0.724879
     13          1           0        2.855096    0.671340   -0.241630
     14          1           0        2.460418   -0.753066   -0.854031
 ---------------------------------------------------------------------

 SCF Done:  E(RB2PLYPD3) =  -157.787241491     A.U. after   11 cycles
 E2(B2PLYPD3) =    -0.2528540033D+00 E(B2PLYPD3) =    -0.15804009549467D+03

 The electronic state is 1-A.
 Alpha  occ. eigenvalues --  -10.65076 -10.64777 -10.61670 -10.58579  -0.93319
 Alpha  occ. eigenvalues --   -0.84694  -0.75620  -0.66699  -0.51586  -0.51066
 Alpha  occ. eigenvalues --   -0.48015  -0.44427  -0.42441  -0.41121  -0.38705
 Alpha  occ. eigenvalues --   -0.37176  -0.34071
 Alpha virt. eigenvalues --    0.05173   0.06189   0.07494   0.07826   0.08639
 Alpha virt. eigenvalues --    0.11255   0.12336   0.12759   0.13806   0.15100
 Alpha virt. eigenvalues --    0.16555   0.17166   0.18737   0.19172   0.19925

 Mulliken charges:
               1
     1  C   -0.454383
     2  C   -0.045973
     3  H    0.058161
     4  H    0.335589
     5  H    0.035364
     6  C   -0.065363
     7  H    0.019762
     8  H    0.048820
     9  C   -0.144572
    10  H    0.010447
    11  H    0.100641
    12  H    0.041146
    13  H    0.028058
    14  H    0.032302
 Sum of Mulliken charges =   0.00000

 Dipole moment (field-independent basis, Debye):
    X=              0.0072    Y=             -0.2465    Z=             -0.8112  Tot=              0.8478
 Quadrupole moment (field-independent basis, Debye-Ang):
   XX=            -29.1755   YY=            -30.1466   ZZ=            -28.2168
   XY=             -0.6390   XZ=              0.1982   YZ=             -0.1125

 Normal termination of Gaussian 09 at Wed Aug 26 13:38:53 2020.
