 Gaussian 09, Revision D.01,
 Gaussian 09:  ES64L-G09RevD.01 24-Apr-2013

 --------------------
 #p B2PLYPD3/Def2QZVP
 --------------------

 ----------
 butane_opt
 ----------
 Symbolic Z-matrix:
 Charge =  0 Multiplicity = 1

                         Standard orientation:
 ---------------------------------------------------------------------
 Center     Atomic      Atomic             Coordinates (Angstroms)
 Number     Number       Type             X           Y           Z
 ---------------------------------------------------------------------
      1          6           0       -1.962690    0.032352   -0.110776
      2          6           0       -0.562344   -0.441516    0.187974
      3          1           0       -2.500798   -0.490155   -0.454945
      4          1           0       -1.762137    0.569837   -1.046936
      5          1           0       -2.345933    0.679176    0.680068
      6          6           0        0.504902    0.565846    0.180489
      7          1           0       -0.228766   -1.155454   -0.838193
      8          1           0       -0.925291   -1.155462    1.067668
      9          6           0        1.991006   -0.140171   -0.153108
     10          1           0        0.633896    1.323727    1.116502
     11          1           0        0.170445    1.151638   -0.700845
     12          1           0        2.628560   -1.029448    0.838567
     13          1           0        2.739978    0.561790   -0.508733
     14          1           0        1.764795   -0.554711   -0.780626
 ---------------------------------------------------------------------

 SCF Done:  E(RB2PLYPD3) =  -157.815587123     A.U. after   11 cycles
 E2(B2PLYPD3) =    -0.2512954910D+00 E(B2PLYPD3) =    -0.15806688261444D+03

 The electronic state is 1-A.
 Alpha  occ. eigenvalues --  -10.63807 -10.63612 -10.61008 -10.57114  -0.92523
 Alpha  occ. eigenvalues --   -0.85637  -0.76848  -0.65142  -0.54691  -0.52994
 Alpha  occ. eigenvalues --   -0.50268  -0.46069  -0.43549  -0.40954  -0.38184
 Alpha  occ. eigenvalues --   -0.35604  -0.35192
 Alpha virt. eigenvalues --    0.05190   0.05937   0.07508   0.08107   0.09797
 Alpha virt. eigenvalues --    0.11172   0.12440   0.12924   0.13462   0.16149
 Alpha virt. eigenvalues --    0.16417   0.17327   0.18797   0.19094   0.21212

 Mulliken charges:
               1
     1  C   -0.234606
     2  C   -0.018569
     3  H    0.151297
     4  H    0.002163
     5  H    0.058702
     6  C   -0.060007
     7  H   -0.000966
     8  H    0.031628
     9  C   -0.398692
    10  H    0.028596
    11  H    0.061057
    12  H    0.021084
    13  H    0.059291
    14  H    0.299024
 Sum of Mulliken charges =   0.00000

 Dipole moment (field-independent basis, Debye):
    X=             -0.4503    Y=              0.2177    Z=             -0.4551  Tot=              0.6762
 Quadrupole moment (field-independent basis, Debye-Ang):
   XX=            -29.0857   YY=            -29.9850   ZZ=            -28.3874
   XY=              0.9925   XZ=             -0.9441   YZ=              0.2703

 Normal termination of Gaussian 09 at Wed Aug 26 14:39:20 2020.
