 Gaussian 09, Revision D.01,
 Gaussian 09:  ES64L-G09RevD.01 24-Apr-2013

 --------------------
 #p B2PLYPD3/Def2QZVP
 --------------------

 ----------
 butane_opt
 ----------
 Symbolic Z-matrix:
 Charge =  0 Multiplicity = 1

                         Standard orientation:
 ---------------------------------------------------------------------
 Center     Atomic      Atomic             Coordinates (Angstroms)
 Number     Number       Type             X           Y           Z
 ---------------------------------------------------------------------
      1          6           0       -2.073714   -0.174271   -0.127721
      2          6           0       -0.536512    0.606534    0.006922
      3          1           0       -2.736486    0.411284   -0.020477
      4          1           0       -2.442166   -0.486748    0.622925
      5          1           0       -2.148802   -1.118828   -0.929014
      6          6           0        0.597827   -0.401034    0.389984
      7          1           0       -0.609002    1.215232    0.718478
      8          1           0       -0.192336    1.038627   -0.888024
      9          6           0        1.963998    0.088257   -0.221578
     10          1           0        0.419143   -1.161035   -0.383761
     11          1           0        0.812627   -0.862471    1.494175
     12          1           0        1.519847    0.263793   -0.910472
     13          1           0        3.083698   -1.030391   -0.631616
     14          1           0        2.583883    1.013622    0.642146
 ---------------------------------------------------------------------

 SCF Done:  E(RB2PLYPD3) =  -157.739783683     A.U. after   12 cycles
 E2(B2PLYPD3) =    -0.2538546345D+00 E(B2PLYPD3) =    -0.15799363831777D+03

 The electronic state is 1-A.
 Alpha  occ. eigenvalues --  -10.64789 -10.62974 -10.61762 -10.58715  -0.92553
 Alpha  occ. eigenvalues --   -0.86852  -0.77736  -0.66564  -0.55853  -0.49145
 Alpha  occ. eigenvalues --   -0.48600  -0.45933  -0.42476  -0.41380  -0.39534
 Alpha  occ. eigenvalues --   -0.36139  -0.33014
 Alpha virt. eigenvalues --    0.02730   0.05898   0.07057   0.08287   0.09206
 Alpha virt. eigenvalues --    0.10027   0.12158   0.13798   0.14384   0.14675
 Alpha virt. eigenvalues --    0.15245   0.16941   0.18181   0.19147   0.20155

 Mulliken charges:
               1
     1  C   -0.210579
     2  C   -0.097402
     3  H    0.079261
     4  H    0.085888
     5  H    0.041501
     6  C   -0.094156
     7  H    0.078935
     8  H    0.064108
     9  C   -0.314060
    10  H    0.065061
    11  H    0.047622
    12  H    0.219437
    13  H   -0.007296
    14  H    0.041680
 Sum of Mulliken charges =   0.00000

 Dipole moment (field-independent basis, Debye):
    X=             -1.1743    Y=              0.3812    Z=              0.3998  Tot=              1.2977
 Quadrupole moment (field-independent basis, Debye-Ang):
   XX=            -31.0231   YY=            -29.5831   ZZ=            -28.6177
   XY=              0.2572   XZ=             -0.4787   YZ=              1.0383

 Normal termination of Gaussian 09 at Wed Aug 26 13:06:12 2020.
