 Gaussian 09, Revision D.01,
 Gaussian 09:  ES64L-G09RevD.01 24-Apr-2013

 --------------------
 #p B2PLYPD3/Def2QZVP
 --------------------

 ----------
 butane_opt
 ----------
 Symbolic Z-matrix:
 Charge =  0 Multiplicity = 1

                         Standard orientation:
 ---------------------------------------------------------------------
 Center     Atomic      Atomic             Coordinates (Angstroms)
 Number     Number       Type             X           Y           Z
 ---------------------------------------------------------------------
      1          6           0       -1.914014   -0.105591    0.043642
      2          6           0       -0.617827    0.472170   -0.027558
      3          1           0       -2.714344    0.761721   -0.081456
      4          1           0       -2.163016   -0.810656    0.998451
      5          1           0       -2.070004   -0.561564   -0.736748
      6          6           0        0.579715   -0.530336   -0.004842
      7          1           0       -0.528301    0.857626    0.641667
      8          1           0       -0.555318    1.278467   -1.030943
      9          6           0        1.989123    0.148525   -0.011133
     10          1           0        0.319313   -1.234349   -0.910454
     11          1           0        0.462696   -1.143644    0.909236
     12          1           0        1.937503    0.389759   -0.552500
     13          1           0        2.730206   -0.578352   -0.347240
     14          1           0        2.359287    1.132390    1.109342
 ---------------------------------------------------------------------

 SCF Done:  E(RB2PLYPD3) =  -157.379739270     A.U. after   11 cycles
 E2(B2PLYPD3) =    -0.2497425855D+00 E(B2PLYPD3) =    -0.15762948185547D+03

 The electronic state is 1-A.
 Alpha  occ. eigenvalues --  -10.62293 -10.60839 -10.59333 -10.58202  -0.94658
 Alpha  occ. eigenvalues --   -0.89753  -0.76290  -0.69557  -0.54882  -0.49934
 Alpha  occ. eigenvalues --   -0.49250  -0.46638  -0.43468  -0.42108  -0.39186
 Alpha  occ. eigenvalues --   -0.37527  -0.35631
 Alpha virt. eigenvalues --    0.04286   0.05740   0.07366   0.07824   0.10626
 Alpha virt. eigenvalues --    0.11160   0.12166   0.12773   0.14626   0.15621
 Alpha virt. eigenvalues --    0.15889   0.16558   0.18555   0.19434   0.21374

 Mulliken charges:
               1
     1  C   -0.151597
     2  C   -0.314530
     3  H    0.031366
     4  H    0.033743
     5  H    0.079363
     6  C    0.024440
     7  H    0.303832
     8  H    0.005755
     9  C   -0.838419
    10  H    0.017275
    11  H    0.038787
    12  H    0.640320
    13  H    0.090356
    14  H    0.039309
 Sum of Mulliken charges =   0.00000

 Dipole moment (field-independent basis, Debye):
    X=             -0.0936    Y=             -0.0724    Z=             -0.2872  Tot=              0.3107
 Quadrupole moment (field-independent basis, Debye-Ang):
   XX=            -29.8137   YY=            -29.0677   ZZ=            -27.6401
   XY=             -0.0081   XZ=             -0.4093   YZ=              0.3959

 Normal termination of Gaussian 09 at Wed Aug 26 19:06:13 2020.
