 Gaussian 09, Revision D.01,
 Gaussian 09:  ES64L-G09RevD.01 24-Apr-2013

 --------------------
 #p B2PLYPD3/Def2QZVP
 --------------------

 ----------
 butane_opt
 ----------
 Symbolic Z-matrix:
 Charge =  0 Multiplicity = 1

                         Standard orientation:
 ---------------------------------------------------------------------
 Center     Atomic      Atomic             Coordinates (Angstroms)
 Number     Number       Type             X           Y           Z
 ---------------------------------------------------------------------
      1          6           0        2.044485   -0.187613   -0.095403
      2          6           0        0.492725    0.626132    0.131623
      3          1           0        2.836664    0.439861   -0.514574
      4          1           0        1.928047   -0.987542   -1.067693
      5          1           0        2.437642   -0.647350    0.771715
      6          6           0       -0.588004   -0.492879    0.193591
      7          1           0        0.295942    1.089578   -0.789928
      8          1           0        0.505642    1.685438    1.029864
      9          6           0       -1.959382   -0.010151   -0.148146
     10          1           0       -0.628644   -1.145489    1.287584
     11          1           0       -0.496727   -0.920734   -0.459651
     12          1           0       -2.114157    0.706099    0.682146
     13          1           0       -2.646042   -0.528391   -0.263393
     14          1           0       -2.057312    0.695590   -1.166056
 ---------------------------------------------------------------------

 SCF Done:  E(RB2PLYPD3) =  -157.849089902     A.U. after   11 cycles
 E2(B2PLYPD3) =    -0.2504791211D+00 E(B2PLYPD3) =    -0.15809956902321D+03

 The electronic state is 1-A.
 Alpha  occ. eigenvalues --  -10.65219 -10.62978 -10.59635 -10.58738  -0.92799
 Alpha  occ. eigenvalues --   -0.81275  -0.74786  -0.68379  -0.55430  -0.51194
 Alpha  occ. eigenvalues --   -0.47444  -0.45544  -0.41542  -0.39821  -0.38519
 Alpha  occ. eigenvalues --   -0.37536  -0.36120
 Alpha virt. eigenvalues --    0.05456   0.06313   0.07251   0.07726   0.10834
 Alpha virt. eigenvalues --    0.12054   0.12665   0.13142   0.13992   0.14858
 Alpha virt. eigenvalues --    0.15369   0.17152   0.18663   0.19575   0.20981

 Mulliken charges:
               1
     1  C   -0.155935
     2  C   -0.085279
     3  H    0.051134
     4  H    0.018945
     5  H    0.076212
     6  C   -0.328727
     7  H    0.077271
     8  H    0.018250
     9  C   -0.183126
    10  H    0.028388
    11  H    0.338166
    12  H    0.046253
    13  H    0.102119
    14  H   -0.003672
 Sum of Mulliken charges =   0.00000

 Dipole moment (field-independent basis, Debye):
    X=             -0.0683    Y=             -0.2344    Z=             -0.2946  Tot=              0.3826
 Quadrupole moment (field-independent basis, Debye-Ang):
   XX=            -28.9385   YY=            -29.5087   ZZ=            -28.3742
   XY=              0.7984   XZ=              0.2452   YZ=              0.0124

 Normal termination of Gaussian 09 at Wed Aug 26 21:35:03 2020.
