 Gaussian 09, Revision D.01,
 Gaussian 09:  ES64L-G09RevD.01 24-Apr-2013

 --------------------
 #p B2PLYPD3/Def2QZVP
 --------------------

 ----------
 butane_opt
 ----------
 Symbolic Z-matrix:
 Charge =  0 Multiplicity = 1

                         Standard orientation:
 ---------------------------------------------------------------------
 Center     Atomic      Atomic             Coordinates (Angstroms)
 Number     Number       Type             X           Y           Z
 ---------------------------------------------------------------------
      1          6           0       -1.966867    0.064477    0.048547
      2          6           0       -0.620847   -0.442811    0.000397
      3          1           0       -2.872890   -0.779882   -0.190982
      4          1           0       -1.957652    0.481771   -0.816143
      5          1           0       -2.068247    0.856054    1.024873
      6          6           0        0.540454    0.642257   -0.110755
      7          1           0       -0.365288   -0.975700   -0.772860
      8          1           0       -0.455890   -1.284114    0.821289
      9          6           0        1.967367   -0.216210   -0.020550
     10          1           0        0.495658    1.228337    0.750210
     11          1           0        0.364758    1.141353   -0.918138
     12          1           0        1.967530   -0.723816    0.761078
     13          1           0        2.803160    0.436918    0.558781
     14          1           0        2.568221   -0.667202   -0.723938
 ---------------------------------------------------------------------

 SCF Done:  E(RB2PLYPD3) =  -157.967390814     A.U. after   11 cycles
 E2(B2PLYPD3) =    -0.2487396644D+00 E(B2PLYPD3) =    -0.15821613047842D+03

 The electronic state is 1-A.
 Alpha  occ. eigenvalues --  -10.61342 -10.60974 -10.59517 -10.59347  -0.92049
 Alpha  occ. eigenvalues --   -0.83958  -0.75493  -0.68112  -0.55620  -0.50685
 Alpha  occ. eigenvalues --   -0.47994  -0.45711  -0.45473  -0.40686  -0.39703
 Alpha  occ. eigenvalues --   -0.36769  -0.34831
 Alpha virt. eigenvalues --    0.05230   0.06420   0.08464   0.09027   0.10672
 Alpha virt. eigenvalues --    0.11302   0.12784   0.13294   0.14703   0.15558
 Alpha virt. eigenvalues --    0.15958   0.16428   0.18733   0.19471   0.21294

 Mulliken charges:
               1
     1  C   -0.181512
     2  C   -0.046614
     3  H    0.035583
     4  H    0.075241
     5  H    0.044121
     6  C   -0.062860
     7  H    0.056639
     8  H    0.002040
     9  C   -0.187059
    10  H    0.045773
    11  H    0.068405
    12  H    0.092357
    13  H   -0.005772
    14  H    0.063657
 Sum of Mulliken charges =   0.00000

 Dipole moment (field-independent basis, Debye):
    X=              0.0972    Y=              0.0012    Z=             -0.2887  Tot=              0.3047
 Quadrupole moment (field-independent basis, Debye-Ang):
   XX=            -30.1769   YY=            -29.1643   ZZ=            -27.8053
   XY=             -0.6554   XZ=              0.9349   YZ=              0.5166

 Normal termination of Gaussian 09 at Wed Aug 26 23:39:41 2020.
