 Gaussian 09, Revision D.01,
 Gaussian 09:  ES64L-G09RevD.01 24-Apr-2013

 --------------------
 #p B2PLYPD3/Def2QZVP
 --------------------

 ----------
 butane_opt
 ----------
 Symbolic Z-matrix:
 Charge =  0 Multiplicity = 1

                         Standard orientation:
 ---------------------------------------------------------------------
 Center     Atomic      Atomic             Coordinates (Angstroms)
 Number     Number       Type             X           Y           Z
 ---------------------------------------------------------------------
      1          6           0       -1.895795    0.130438   -0.242879
      2          6           0       -0.588942   -0.515312    0.281979
      3          1           0       -2.785674   -0.703095   -0.772612
      4          1           0       -1.501628    0.515975   -0.992219
      5          1           0       -2.405451    0.986847    0.868440
      6          6           0        0.524415    0.475959    0.251366
      7          1           0       -0.191642   -1.033272   -0.380433
      8          1           0       -0.478535   -1.287721    1.282559
      9          6           0        1.906307   -0.146320   -0.164007
     10          1           0        0.593530    1.138044    1.168996
     11          1           0        0.116684    1.304148   -0.893603
     12          1           0        2.182308   -0.599992    0.576838
     13          1           0        2.781072    0.879541   -0.373787
     14          1           0        2.013419   -0.869067   -1.242936
 ---------------------------------------------------------------------

 SCF Done:  E(RB2PLYPD3) =  -157.830281936     A.U. after   11 cycles
 E2(B2PLYPD3) =    -0.2561763699D+00 E(B2PLYPD3) =    -0.15808645830616D+03

 The electronic state is 1-A.
 Alpha  occ. eigenvalues --  -10.65547 -10.64956 -10.63932 -10.61277  -0.93329
 Alpha  occ. eigenvalues --   -0.83111  -0.73278  -0.65646  -0.54262  -0.48904
 Alpha  occ. eigenvalues --   -0.48262  -0.44177  -0.42488  -0.40351  -0.37165
 Alpha  occ. eigenvalues --   -0.36371  -0.34561
 Alpha virt. eigenvalues --    0.03786   0.04574   0.06233   0.07617   0.09226
 Alpha virt. eigenvalues --    0.10010   0.11254   0.12287   0.14106   0.14696
 Alpha virt. eigenvalues --    0.15146   0.16158   0.17905   0.19291   0.19812

 Mulliken charges:
               1
     1  C   -0.202909
     2  C   -0.090335
     3  H    0.030374
     4  H    0.139093
     5  H    0.030256
     6  C   -0.033321
     7  H    0.106372
     8  H    0.012148
     9  C   -0.212363
    10  H    0.060960
    11  H   -0.031801
    12  H    0.122322
    13  H    0.028866
    14  H    0.040336
 Sum of Mulliken charges =   0.00000

 Dipole moment (field-independent basis, Debye):
    X=              0.5259    Y=             -0.5559    Z=              0.0889  Tot=              0.7704
 Quadrupole moment (field-independent basis, Debye-Ang):
   XX=            -31.9440   YY=            -30.6765   ZZ=            -28.4777
   XY=             -0.2386   XZ=              0.8154   YZ=              0.8996

 Normal termination of Gaussian 09 at Wed Aug 26 23:17:26 2020.
