 Gaussian 09, Revision D.01,
 Gaussian 09:  ES64L-G09RevD.01 24-Apr-2013

 --------------------
 #p B2PLYPD3/Def2QZVP
 --------------------

 ----------
 butane_opt
 ----------
 Symbolic Z-matrix:
 Charge =  0 Multiplicity = 1

                         Standard orientation:
 ---------------------------------------------------------------------
 Center     Atomic      Atomic             Coordinates (Angstroms)
 Number     Number       Type             X           Y           Z
 ---------------------------------------------------------------------
      1          6           0       -2.093030    0.164489   -0.095558
      2          6           0       -0.577255   -0.603228    0.131501
      3          1           0       -2.789588   -0.461667   -0.778436
      4          1           0       -1.783826    0.587236   -0.827059
      5          1           0       -2.360920    0.950199    0.894474
      6          6           0        0.589225    0.453263    0.207354
      7          1           0       -0.098333   -0.956802   -0.482392
      8          1           0       -0.619838   -1.339092    0.913957
      9          6           0        1.997114   -0.106210   -0.137451
     10          1           0        0.748509    0.977469    1.088169
     11          1           0        0.558553    1.381017   -0.679727
     12          1           0        2.351860   -0.710253    0.736135
     13          1           0        2.748252    0.680048   -0.389169
     14          1           0        1.749007   -0.558043   -1.111030
 ---------------------------------------------------------------------

 SCF Done:  E(RB2PLYPD3) =  -157.912498905     A.U. after   11 cycles
 E2(B2PLYPD3) =    -0.2509607136D+00 E(B2PLYPD3) =    -0.15816345961905D+03

 The electronic state is 1-A.
 Alpha  occ. eigenvalues --  -10.62170 -10.61865 -10.60974 -10.59484  -0.91477
 Alpha  occ. eigenvalues --   -0.82831  -0.75841  -0.66782  -0.54913  -0.49781
 Alpha  occ. eigenvalues --   -0.47358  -0.46540  -0.43175  -0.39762  -0.39250
 Alpha  occ. eigenvalues --   -0.36671  -0.35221
 Alpha virt. eigenvalues --    0.05302   0.06036   0.08058   0.09022   0.10658
 Alpha virt. eigenvalues --    0.11584   0.11825   0.12825   0.13792   0.15765
 Alpha virt. eigenvalues --    0.16176   0.17052   0.18462   0.18621   0.20931

 Mulliken charges:
               1
     1  C   -0.261805
     2  C   -0.230990
     3  H    0.047784
     4  H    0.160548
     5  H    0.074310
     6  C   -0.055372
     7  H    0.194668
     8  H    0.043493
     9  C   -0.156207
    10  H    0.041842
    11  H   -0.005149
    12  H    0.051587
    13  H    0.048710
    14  H    0.046581
 Sum of Mulliken charges =   0.00000

 Dipole moment (field-independent basis, Debye):
    X=              0.2714    Y=              0.1328    Z=             -0.1837  Tot=              0.3536
 Quadrupole moment (field-independent basis, Debye-Ang):
   XX=            -30.0807   YY=            -29.5953   ZZ=            -27.6720
   XY=              0.2999   XZ=              0.7572   YZ=              0.1646

 Normal termination of Gaussian 09 at Wed Aug 26 15:54:17 2020.
