 Gaussian 09, Revision D.01,
 Gaussian 09:  ES64L-G09RevD.01 24-Apr-2013

 --------------------
 #p B2PLYPD3/Def2QZVP
 --------------------

 ----------
 butane_opt
 ----------
 Symbolic Z-matrix:
 Charge =  0 Multiplicity = 1

                         Standard orientation:
 ---------------------------------------------------------------------
 Center     Atomic      Atomic             Coordinates (Angstroms)
 Number     Number       Type             X           Y           Z
 ---------------------------------------------------------------------
      1          6           0       -1.982582    0.023206   -0.087605
      2          6           0       -0.586402   -0.458089    0.192751
      3          1           0       -2.620347   -0.645417   -0.819645
      4          1           0       -1.400397    0.485777   -1.063130
      5          1           0       -2.659749    0.898038    0.851928
      6          6           0        0.496812    0.651092    0.022896
      7          1           0       -0.568178   -0.938558   -0.537201
      8          1           0       -0.633879   -1.365669    1.369176
      9          6           0        2.041173   -0.172320   -0.065734
     10          1           0        0.473900    1.428283    0.756045
     11          1           0        0.335206    0.947498   -0.708163
     12          1           0        2.204417   -0.575737    0.780114
     13          1           0        2.769508    0.463660    0.034255
     14          1           0        2.285510   -0.961207   -1.037223
 ---------------------------------------------------------------------

 SCF Done:  E(RB2PLYPD3) =  -157.753321867     A.U. after   11 cycles
 E2(B2PLYPD3) =    -0.2540351819D+00 E(B2PLYPD3) =    -0.15800735704865D+03

 The electronic state is 1-A.
 Alpha  occ. eigenvalues --  -10.65896 -10.62761 -10.60217 -10.60131  -0.94215
 Alpha  occ. eigenvalues --   -0.83936  -0.76948  -0.66466  -0.55567  -0.49044
 Alpha  occ. eigenvalues --   -0.48083  -0.46493  -0.43665  -0.42183  -0.38131
 Alpha  occ. eigenvalues --   -0.37316  -0.32152
 Alpha virt. eigenvalues --    0.04084   0.06090   0.06791   0.08421   0.09209
 Alpha virt. eigenvalues --    0.10524   0.11694   0.13530   0.14046   0.14369
 Alpha virt. eigenvalues --    0.15767   0.17029   0.18311   0.18717   0.20642

 Mulliken charges:
               1
     1  C   -0.162456
     2  C   -0.201049
     3  H    0.069961
     4  H    0.007414
     5  H    0.046909
     6  C   -0.252756
     7  H    0.222720
     8  H   -0.028794
     9  C   -0.169042
    10  H    0.052604
    11  H    0.255549
    12  H    0.075253
    13  H    0.050147
    14  H    0.033541
 Sum of Mulliken charges =   0.00000

 Dipole moment (field-independent basis, Debye):
    X=              0.3433    Y=              0.3647    Z=             -0.5936  Tot=              0.7766
 Quadrupole moment (field-independent basis, Debye-Ang):
   XX=            -29.6978   YY=            -29.9604   ZZ=            -28.5580
   XY=              0.6103   XZ=              0.8691   YZ=              1.9359

 Normal termination of Gaussian 09 at Wed Aug 26 18:40:40 2020.
