 Gaussian 09, Revision D.01,
 Gaussian 09:  ES64L-G09RevD.01 24-Apr-2013

 --------------------
 #p B2PLYPD3/Def2QZVP
 --------------------

 ----------
 butane_opt
 ----------
 Symbolic Z-matrix:
 Charge =  0 Multiplicity = 1

                         Standard orientation:
 ---------------------------------------------------------------------
 Center     Atomic      Atomic             Coordinates (Angstroms)
 Number     Number       Type             X           Y           Z
 ---------------------------------------------------------------------
      1          6           0        1.955305    0.071458   -0.047315
      2          6           0        0.598447   -0.484571    0.120497
      3          1           0        2.792830   -0.703227   -0.417174
      4          1           0        2.220671    0.871157    0.830777
      5          1           0        1.808113    0.630675   -0.954395
      6          6           0       -0.565754    0.596754    0.001052
      7          1           0        0.415195   -1.182927    1.205790
      8          1           0        0.452359   -1.051210   -0.637998
      9          6           0       -1.952381   -0.153771   -0.068185
     10          1           0       -0.359756    1.004227   -0.688937
     11          1           0       -0.561706    1.373635    0.861164
     12          1           0       -2.030019   -0.891934   -0.952254
     13          1           0       -2.702300    0.468817   -0.167390
     14          1           0       -2.249092   -0.698440    0.884118
 ---------------------------------------------------------------------

 SCF Done:  E(RB2PLYPD3) =  -157.977577027     A.U. after   11 cycles
 E2(B2PLYPD3) =    -0.2476903237D+00 E(B2PLYPD3) =    -0.15822526735025D+03

 The electronic state is 1-A.
 Alpha  occ. eigenvalues --  -10.61988 -10.60950 -10.60096 -10.59287  -0.91999
 Alpha  occ. eigenvalues --   -0.83594  -0.74076  -0.67662  -0.54299  -0.49400
 Alpha  occ. eigenvalues --   -0.48547  -0.46794  -0.42954  -0.41365  -0.39402
 Alpha  occ. eigenvalues --   -0.38390  -0.35573
 Alpha virt. eigenvalues --    0.05429   0.06612   0.08365   0.08576   0.10841
 Alpha virt. eigenvalues --    0.11798   0.12638   0.13561   0.14736   0.15021
 Alpha virt. eigenvalues --    0.15689   0.16824   0.19178   0.19367   0.21345

 Mulliken charges:
               1
     1  C   -0.166150
     2  C   -0.060594
     3  H    0.048838
     4  H    0.044160
     5  H    0.044240
     6  C   -0.210911
     7  H   -0.000937
     8  H    0.086701
     9  C   -0.119805
    10  H    0.192265
    11  H    0.022088
    12  H    0.026084
    13  H    0.054485
    14  H    0.039535
 Sum of Mulliken charges =   0.00000

 Dipole moment (field-independent basis, Debye):
    X=             -0.2255    Y=              0.2774    Z=             -0.5699  Tot=              0.6727
 Quadrupole moment (field-independent basis, Debye-Ang):
   XX=            -29.5435   YY=            -29.1779   ZZ=            -28.2224
   XY=             -0.3862   XZ=             -0.7696   YZ=              0.6867

 Normal termination of Gaussian 09 at Wed Aug 26 11:13:15 2020.
