 Gaussian 09, Revision D.01,
 Gaussian 09:  ES64L-G09RevD.01 24-Apr-2013

 --------------------
 #p B2PLYPD3/Def2QZVP
 --------------------

 ----------
 butane_opt
 ----------
 Symbolic Z-matrix:
 Charge =  0 Multiplicity = 1

                         Standard orientation:
 ---------------------------------------------------------------------
 Center     Atomic      Atomic             Coordinates (Angstroms)
 Number     Number       Type             X           Y           Z
 ---------------------------------------------------------------------
      1          6           0       -1.888808    0.085700    0.184023
      2          6           0       -0.550552   -0.398393   -0.149398
      3          1           0       -2.729164   -0.810477    0.241745
      4          1           0       -2.192228    0.358831   -0.615391
      5          1           0       -1.842994    0.869486    1.229547
      6          6           0        0.526459    0.531358   -0.301152
      7          1           0       -0.839025   -1.118800   -0.971304
      8          1           0       -0.298242   -0.850779    0.539250
      9          6           0        1.925471   -0.176457    0.139398
     10          1           0        0.275974    0.876057    0.357185
     11          1           0        0.328409    1.376069   -1.250174
     12          1           0        1.545734   -0.759208    1.055813
     13          1           0        2.856853    0.747662    1.036025
     14          1           0        2.819265   -0.942093   -0.859922
 ---------------------------------------------------------------------

 SCF Done:  E(RB2PLYPD3) =  -157.673756046     A.U. after   12 cycles
 E2(B2PLYPD3) =    -0.2562367267D+00 E(B2PLYPD3) =    -0.15792999277276D+03

 The electronic state is 1-A.
 Alpha  occ. eigenvalues --  -10.70232 -10.61334 -10.60752 -10.57904  -0.98262
 Alpha  occ. eigenvalues --   -0.84637  -0.71941  -0.69956  -0.57046  -0.48849
 Alpha  occ. eigenvalues --   -0.48143  -0.47219  -0.41397  -0.39716  -0.39150
 Alpha  occ. eigenvalues --   -0.36650  -0.34334
 Alpha virt. eigenvalues --    0.01916   0.05124   0.06422   0.07609   0.08245
 Alpha virt. eigenvalues --    0.09975   0.11682   0.12482   0.14191   0.14820
 Alpha virt. eigenvalues --    0.15691   0.16267   0.17871   0.18744   0.20122

 Mulliken charges:
               1
     1  C   -0.193212
     2  C   -0.118660
     3  H    0.029811
     4  H    0.102369
     5  H    0.031140
     6  C   -0.372949
     7  H    0.005480
     8  H    0.153450
     9  C   -0.179312
    10  H    0.376908
    11  H    0.032753
    12  H    0.072835
    13  H   -0.001103
    14  H    0.060489
 Sum of Mulliken charges =   0.00000

 Dipole moment (field-independent basis, Debye):
    X=             -0.7900    Y=             -0.3504    Z=              0.0639  Tot=              0.8666
 Quadrupole moment (field-independent basis, Debye-Ang):
   XX=            -31.9625   YY=            -30.3387   ZZ=            -28.5474
   XY=             -0.4778   XZ=              0.7612   YZ=              0.2104

 Normal termination of Gaussian 09 at Wed Aug 26 13:19:47 2020.
