 Gaussian 09, Revision D.01,
 Gaussian 09:  ES64L-G09RevD.01 24-Apr-2013

 --------------------
 #p B2PLYPD3/Def2QZVP
 --------------------

 ----------
 butane_opt
 ----------
 Symbolic Z-matrix:
 Charge =  0 Multiplicity = 1

                         Standard orientation:
 ---------------------------------------------------------------------
 Center     Atomic      Atomic             Coordinates (Angstroms)
 Number     Number       Type             X           Y           Z
 ---------------------------------------------------------------------
      1          6           0        1.901020    0.123159   -0.001213
      2          6           0        0.578541   -0.475231    0.034326
      3          1           0        2.722493   -0.767758   -0.349825
      4          1           0        2.224238    1.008060    1.039957
      5          1           0        1.777247    0.458687   -0.777336
      6          6           0       -0.532302    0.495817   -0.007203
      7          1           0        0.664504   -1.089634    0.935175
      8          1           0        0.465960   -1.107459   -0.873801
      9          6           0       -1.940855   -0.150169    0.013789
     10          1           0       -0.464213    1.371666   -1.113208
     11          1           0       -0.386176    1.037610    0.754694
     12          1           0       -2.102083   -0.772203   -0.845444
     13          1           0       -2.799065    0.681413    0.061402
     14          1           0       -2.141329   -0.781835    0.930199
 ---------------------------------------------------------------------

 SCF Done:  E(RB2PLYPD3) =  -157.930391755     A.U. after   11 cycles
 E2(B2PLYPD3) =    -0.2503112412D+00 E(B2PLYPD3) =    -0.15818070299619D+03

 The electronic state is 1-A.
 Alpha  occ. eigenvalues --  -10.62174 -10.61781 -10.61040 -10.60352  -0.94196
 Alpha  occ. eigenvalues --   -0.84487  -0.73128  -0.66487  -0.56120  -0.49108
 Alpha  occ. eigenvalues --   -0.47876  -0.47018  -0.42461  -0.40544  -0.39070
 Alpha  occ. eigenvalues --   -0.36810  -0.35785
 Alpha virt. eigenvalues --    0.04981   0.05852   0.06936   0.07666   0.10422
 Alpha virt. eigenvalues --    0.11101   0.12473   0.12909   0.14115   0.14634
 Alpha virt. eigenvalues --    0.15564   0.16379   0.19240   0.19755   0.20983

 Mulliken charges:
               1
     1  C   -0.285395
     2  C   -0.019032
     3  H    0.032711
     4  H    0.033755
     5  H    0.181340
     6  C   -0.069171
     7  H    0.038359
     8  H    0.029797
     9  C   -0.140169
    10  H   -0.022380
    11  H    0.086358
    12  H    0.055561
    13  H    0.035920
    14  H    0.042345
 Sum of Mulliken charges =   0.00000

 Dipole moment (field-independent basis, Debye):
    X=             -0.2374    Y=             -0.2510    Z=              0.0653  Tot=              0.3516
 Quadrupole moment (field-independent basis, Debye-Ang):
   XX=            -31.0301   YY=            -29.6685   ZZ=            -28.2254
   XY=             -0.2842   XZ=             -0.3951   YZ=              0.8873

 Normal termination of Gaussian 09 at Wed Aug 26 21:51:51 2020.
