 Gaussian 09, Revision D.01,
 Gaussian 09:  ES64L-G09RevD.01 24-Apr-2013

 --------------------
 #p B2PLYPD3/Def2QZVP
 --------------------

 ----------
 butane_opt
 ----------
 Symbolic Z-matrix:
 Charge =  0 Multiplicity = 1

                         Standard orientation:
 ---------------------------------------------------------------------
 Center     Atomic      Atomic             Coordinates (Angstroms)
 Number     Number       Type             X           Y           Z
 ---------------------------------------------------------------------
      1          6           0        1.906908    0.128631    0.040719
      2          6           0        0.497398   -0.534202   -0.007839
      3          1           0        2.652499   -0.597222   -0.056895
      4          1           0        2.131234    0.897689    0.887250
      5          1           0        2.272402    0.678652   -0.759768
      6          6           0       -0.562776    0.464458   -0.121563
      7          1           0        0.317573   -1.158745    0.952385
      8          1           0        0.550035   -1.265210   -0.848357
      9          6           0       -1.906283   -0.108462    0.049274
     10          1           0       -0.569637    1.072178   -1.058169
     11          1           0       -0.338088    1.275588    0.797947
     12          1           0       -2.162255   -0.687723   -0.808553
     13          1           0       -2.686717    0.722065    0.230333
     14          1           0       -1.778524   -0.639817    0.900284
 ---------------------------------------------------------------------

 SCF Done:  E(RB2PLYPD3) =  -158.080656243     A.U. after   11 cycles
 E2(B2PLYPD3) =    -0.2476131134D+00 E(B2PLYPD3) =    -0.15832826935631D+03

 The electronic state is 1-A.
 Alpha  occ. eigenvalues --  -10.61841 -10.61227 -10.59402 -10.58771  -0.92432
 Alpha  occ. eigenvalues --   -0.83752  -0.73544  -0.65335  -0.54981  -0.50047
 Alpha  occ. eigenvalues --   -0.49294  -0.47008  -0.43049  -0.40963  -0.38751
 Alpha  occ. eigenvalues --   -0.37691  -0.36255
 Alpha virt. eigenvalues --    0.05824   0.06850   0.07668   0.08313   0.10709
 Alpha virt. eigenvalues --    0.11836   0.12960   0.14124   0.14778   0.15368
 Alpha virt. eigenvalues --    0.15808   0.16396   0.19954   0.20067   0.21357

 Mulliken charges:
               1
     1  C   -0.117641
     2  C   -0.021950
     3  H    0.035261
     4  H    0.026178
     5  H    0.026204
     6  C   -0.044426
     7  H    0.028767
     8  H    0.024059
     9  C   -0.151352
    10  H    0.037996
    11  H    0.007635
    12  H    0.053911
    13  H    0.037273
    14  H    0.058085
 Sum of Mulliken charges =   0.00000

 Dipole moment (field-independent basis, Debye):
    X=              0.0912    Y=             -0.1462    Z=             -0.2985  Tot=              0.3447
 Quadrupole moment (field-independent basis, Debye-Ang):
   XX=            -29.5541   YY=            -29.0775   ZZ=            -28.4065
   XY=             -0.1709   XZ=             -0.4131   YZ=              0.2868

 Normal termination of Gaussian 09 at Wed Aug 26 19:12:24 2020.
