 Gaussian 09, Revision D.01,
 Gaussian 09:  ES64L-G09RevD.01 24-Apr-2013

 --------------------
 #p B2PLYPD3/Def2QZVP
 --------------------

 ----------
 butane_opt
 ----------
 Symbolic Z-matrix:
 Charge =  0 Multiplicity = 1

                         Standard orientation:
 ---------------------------------------------------------------------
 Center     Atomic      Atomic             Coordinates (Angstroms)
 Number     Number       Type             X           Y           Z
 ---------------------------------------------------------------------
      1          6           0       -2.014802   -0.118404   -0.100930
      2          6           0       -0.567706    0.548021    0.005151
      3          1           0       -2.778922    0.457666   -0.149608
      4          1           0       -2.181044   -0.727474    0.807375
      5          1           0       -2.073948   -1.200442   -1.051787
      6          6           0        0.619604   -0.428795    0.228310
      7          1           0       -0.895169    1.457670    0.874223
      8          1           0       -0.448156    1.099085   -0.774929
      9          6           0        2.019430    0.075252   -0.059390
     10          1           0        0.564839   -1.011754   -0.508776
     11          1           0        0.394219   -1.249480    1.388445
     12          1           0        1.737160    0.529148   -1.018064
     13          1           0        2.815052   -0.772003   -0.727258
     14          1           0        2.526814    0.961139    0.721536
 ---------------------------------------------------------------------

 SCF Done:  E(RB2PLYPD3) =  -157.897066279     A.U. after   11 cycles
 E2(B2PLYPD3) =    -0.2537469928D+00 E(B2PLYPD3) =    -0.15815081327155D+03

 The electronic state is 1-A.
 Alpha  occ. eigenvalues --  -10.65407 -10.63771 -10.63358 -10.62749  -0.91894
 Alpha  occ. eigenvalues --   -0.83578  -0.72772  -0.66802  -0.53222  -0.50480
 Alpha  occ. eigenvalues --   -0.47332  -0.45149  -0.43295  -0.40126  -0.38988
 Alpha  occ. eigenvalues --   -0.35432  -0.34599
 Alpha virt. eigenvalues --    0.04419   0.05371   0.06947   0.07158   0.10026
 Alpha virt. eigenvalues --    0.10178   0.11723   0.13082   0.13335   0.13558
 Alpha virt. eigenvalues --    0.15538   0.16899   0.17968   0.19255   0.20258

 Mulliken charges:
               1
     1  C   -0.153070
     2  C   -0.035899
     3  H    0.084152
     4  H    0.049819
     5  H   -0.017871
     6  C   -0.109101
     7  H   -0.007970
     8  H    0.070075
     9  C   -0.168319
    10  H    0.143217
    11  H   -0.009062
    12  H    0.054508
    13  H    0.045310
    14  H    0.054211
 Sum of Mulliken charges =   0.00000

 Dipole moment (field-independent basis, Debye):
    X=             -0.0731    Y=              0.5202    Z=             -0.5264  Tot=              0.7436
 Quadrupole moment (field-independent basis, Debye-Ang):
   XX=            -30.1990   YY=            -29.9912   ZZ=            -29.7299
   XY=             -0.8845   XZ=             -1.8788   YZ=              0.4458

 Normal termination of Gaussian 09 at Wed Aug 26 23:45:14 2020.
