 Gaussian 09, Revision D.01,
 Gaussian 09:  ES64L-G09RevD.01 24-Apr-2013

 --------------------
 #p B2PLYPD3/Def2QZVP
 --------------------

 ----------
 butane_opt
 ----------
 Symbolic Z-matrix:
 Charge =  0 Multiplicity = 1

                         Standard orientation:
 ---------------------------------------------------------------------
 Center     Atomic      Atomic             Coordinates (Angstroms)
 Number     Number       Type             X           Y           Z
 ---------------------------------------------------------------------
      1          6           0       -1.917622    0.118002   -0.095649
      2          6           0       -0.548234   -0.549000    0.068848
      3          1           0       -2.627884   -0.458468   -0.223508
      4          1           0       -2.084905    1.006688   -0.951919
      5          1           0       -2.128730    0.590535    0.795795
      6          6           0        0.578482    0.459461    0.217641
      7          1           0       -0.149969   -1.058022   -0.807384
      8          1           0       -0.635385   -1.292079    0.935979
      9          6           0        1.891228   -0.107316   -0.123411
     10          1           0        0.569048    1.125817    1.211044
     11          1           0        0.382978    1.215192   -0.718879
     12          1           0        2.213022   -0.762291    0.741407
     13          1           0        2.736935    0.721906   -0.316343
     14          1           0        1.701757   -0.616155   -1.070765
 ---------------------------------------------------------------------

 SCF Done:  E(RB2PLYPD3) =  -158.052112064     A.U. after   11 cycles
 E2(B2PLYPD3) =    -0.2486446260D+00 E(B2PLYPD3) =    -0.15830075668948D+03

 The electronic state is 1-A.
 Alpha  occ. eigenvalues --  -10.62286 -10.61562 -10.61211 -10.58855  -0.91946
 Alpha  occ. eigenvalues --   -0.84136  -0.73102  -0.64306  -0.54516  -0.50947
 Alpha  occ. eigenvalues --   -0.48647  -0.47196  -0.42152  -0.40720  -0.39135
 Alpha  occ. eigenvalues --   -0.37745  -0.35797
 Alpha virt. eigenvalues --    0.05662   0.06770   0.07820   0.08109   0.10547
 Alpha virt. eigenvalues --    0.11833   0.12800   0.13659   0.14544   0.15086
 Alpha virt. eigenvalues --    0.15888   0.16597   0.19368   0.19932   0.22078

 Mulliken charges:
               1
     1  C   -0.139118
     2  C   -0.037831
     3  H    0.065589
     4  H    0.009313
     5  H    0.045890
     6  C   -0.051809
     7  H    0.041313
     8  H    0.024756
     9  C   -0.152925
    10  H    0.026331
    11  H    0.026425
    12  H    0.046588
    13  H    0.039751
    14  H    0.055725
 Sum of Mulliken charges =   0.00000

 Dipole moment (field-independent basis, Debye):
    X=             -0.1903    Y=             -0.2090    Z=              0.1274  Tot=              0.3100
 Quadrupole moment (field-independent basis, Debye-Ang):
   XX=            -29.4542   YY=            -29.7215   ZZ=            -28.3134
   XY=              0.5636   XZ=             -0.3450   YZ=             -0.1991

 Normal termination of Gaussian 09 at Wed Aug 26 11:15:53 2020.
