 Gaussian 09, Revision D.01,
 Gaussian 09:  ES64L-G09RevD.01 24-Apr-2013

 --------------------
 #p B2PLYPD3/Def2QZVP
 --------------------

 ----------
 butane_opt
 ----------
 Symbolic Z-matrix:
 Charge =  0 Multiplicity = 1

                         Standard orientation:
 ---------------------------------------------------------------------
 Center     Atomic      Atomic             Coordinates (Angstroms)
 Number     Number       Type             X           Y           Z
 ---------------------------------------------------------------------
      1          6           0        2.001880   -0.174204   -0.168299
      2          6           0        0.577455    0.535138    0.095368
      3          1           0        2.636456    0.472283   -0.269616
      4          1           0        2.195998   -1.088805   -1.041885
      5          1           0        2.426091   -0.719346    0.855890
      6          6           0       -0.616463   -0.414291    0.257412
      7          1           0        0.392201    1.102890   -0.827909
      8          1           0        0.628040    1.585269    0.959474
      9          6           0       -1.994370    0.078659   -0.166758
     10          1           0       -0.645154   -1.288019    1.447104
     11          1           0       -0.598531   -0.735112   -0.349656
     12          1           0       -2.046990    1.075339    0.739312
     13          1           0       -2.958230   -0.909509   -0.491658
     14          1           0       -1.840898    0.353203   -1.127397
 ---------------------------------------------------------------------

 SCF Done:  E(RB2PLYPD3) =  -157.615803037     A.U. after   11 cycles
 E2(B2PLYPD3) =    -0.2556267726D+00 E(B2PLYPD3) =    -0.15787142980927D+03

 The electronic state is 1-A.
 Alpha  occ. eigenvalues --  -10.65599 -10.65347 -10.62704 -10.60501  -0.95391
 Alpha  occ. eigenvalues --   -0.83920  -0.73023  -0.67567  -0.54152  -0.50225
 Alpha  occ. eigenvalues --   -0.46753  -0.45220  -0.41762  -0.40867  -0.37460
 Alpha  occ. eigenvalues --   -0.36047  -0.34521
 Alpha virt. eigenvalues --    0.03235   0.05723   0.06377   0.06778   0.09691
 Alpha virt. eigenvalues --    0.10495   0.11488   0.12457   0.12918   0.14113
 Alpha virt. eigenvalues --    0.15072   0.16650   0.17886   0.19105   0.19915

 Mulliken charges:
               1
     1  C   -0.173743
     2  C   -0.003455
     3  H    0.106444
     4  H    0.034379
     5  H    0.023280
     6  C   -0.700971
     7  H    0.041879
     8  H    0.004391
     9  C   -0.150171
    10  H    0.021247
    11  H    0.643107
    12  H    0.044536
    13  H    0.037861
    14  H    0.071217
 Sum of Mulliken charges =   0.00000

 Dipole moment (field-independent basis, Debye):
    X=              0.5132    Y=              0.0864    Z=             -0.9577  Tot=              1.0900
 Quadrupole moment (field-independent basis, Debye-Ang):
   XX=            -30.8302   YY=            -29.8714   ZZ=            -28.9702
   XY=              1.2184   XZ=              0.9200   YZ=              0.7312

 Normal termination of Gaussian 09 at Wed Aug 26 12:20:40 2020.
