 Gaussian 09, Revision D.01,
 Gaussian 09:  ES64L-G09RevD.01 24-Apr-2013

 --------------------
 #p B2PLYPD3/Def2QZVP
 --------------------

 ----------
 butane_opt
 ----------
 Symbolic Z-matrix:
 Charge =  0 Multiplicity = 1

                         Standard orientation:
 ---------------------------------------------------------------------
 Center     Atomic      Atomic             Coordinates (Angstroms)
 Number     Number       Type             X           Y           Z
 ---------------------------------------------------------------------
      1          6           0        1.942928    0.097473   -0.074501
      2          6           0        0.592290   -0.506934    0.114206
      3          1           0        2.632326   -0.701761   -0.457500
      4          1           0        2.484929    0.821587    0.793979
      5          1           0        1.625677    0.542106   -0.865840
      6          6           0       -0.527654    0.598457    0.012803
      7          1           0        0.620711   -1.318733    1.148772
      8          1           0        0.567317   -0.929952   -0.680546
      9          6           0       -2.028706   -0.127309   -0.053224
     10          1           0       -0.364688    1.008987   -0.725634
     11          1           0       -0.412942    1.318509    0.898406
     12          1           0       -2.193623   -0.860210   -0.936564
     13          1           0       -2.682401    0.437633   -0.004386
     14          1           0       -2.150454   -0.688287    0.833611
 ---------------------------------------------------------------------

 SCF Done:  E(RB2PLYPD3) =  -157.905570897     A.U. after   11 cycles
 E2(B2PLYPD3) =    -0.2473323033D+00 E(B2PLYPD3) =    -0.15815290319987D+03

 The electronic state is 1-A.
 Alpha  occ. eigenvalues --  -10.60516 -10.60086 -10.59955 -10.58366  -0.93323
 Alpha  occ. eigenvalues --   -0.84594  -0.75789  -0.67785  -0.55087  -0.50242
 Alpha  occ. eigenvalues --   -0.49838  -0.47474  -0.42726  -0.42337  -0.39141
 Alpha  occ. eigenvalues --   -0.37369  -0.36389
 Alpha virt. eigenvalues --    0.05680   0.06828   0.08343   0.08925   0.10616
 Alpha virt. eigenvalues --    0.11932   0.12611   0.14042   0.14830   0.15335
 Alpha virt. eigenvalues --    0.16060   0.16900   0.18784   0.19693   0.21806

 Mulliken charges:
               1
     1  C   -0.175166
     2  C   -0.142869
     3  H    0.043359
     4  H    0.036018
     5  H    0.077303
     6  C   -0.174902
     7  H    0.005225
     8  H    0.147176
     9  C   -0.198861
    10  H    0.156014
    11  H    0.035596
    12  H    0.028073
    13  H    0.115821
    14  H    0.047213
 Sum of Mulliken charges =   0.00000

 Dipole moment (field-independent basis, Debye):
    X=             -0.2093    Y=              0.1738    Z=             -0.4563  Tot=              0.5312
 Quadrupole moment (field-independent basis, Debye-Ang):
   XX=            -29.3060   YY=            -29.0321   ZZ=            -27.8189
   XY=             -0.5364   XZ=             -0.2056   YZ=              0.6433

 Normal termination of Gaussian 09 at Wed Aug 26 23:34:21 2020.
