 Gaussian 09, Revision D.01,
 Gaussian 09:  ES64L-G09RevD.01 24-Apr-2013

 --------------------
 #p B2PLYPD3/Def2QZVP
 --------------------

 ----------
 butane_opt
 ----------
 Symbolic Z-matrix:
 Charge =  0 Multiplicity = 1

                         Standard orientation:
 ---------------------------------------------------------------------
 Center     Atomic      Atomic             Coordinates (Angstroms)
 Number     Number       Type             X           Y           Z
 ---------------------------------------------------------------------
      1          6           0       -1.993373   -0.141257    0.119680
      2          6           0       -0.589793    0.513471   -0.087437
      3          1           0       -2.788015    0.610479    0.025543
      4          1           0       -2.113006   -0.840556    0.990921
      5          1           0       -2.086476   -0.650066   -0.709989
      6          6           0        0.605623   -0.526971   -0.085691
      7          1           0       -0.345779    1.089020    0.644530
      8          1           0       -0.557540    1.407065   -1.160977
      9          6           0        1.987061    0.127541    0.075274
     10          1           0        0.477797   -1.202623   -0.980187
     11          1           0        0.543785   -1.136390    0.722581
     12          1           0        1.849999    0.497416   -0.677936
     13          1           0        2.759760   -0.595193   -0.196797
     14          1           0        2.202368    0.984142    1.211357
 ---------------------------------------------------------------------

 SCF Done:  E(RB2PLYPD3) =  -157.925311003     A.U. after   11 cycles
 E2(B2PLYPD3) =    -0.2494893935D+00 E(B2PLYPD3) =    -0.15817480039631D+03

 The electronic state is 1-A.
 Alpha  occ. eigenvalues --  -10.62512 -10.60785 -10.60144 -10.59576  -0.91765
 Alpha  occ. eigenvalues --   -0.84903  -0.74057  -0.67476  -0.53813  -0.49956
 Alpha  occ. eigenvalues --   -0.48168  -0.47484  -0.42260  -0.40983  -0.38426
 Alpha  occ. eigenvalues --   -0.37276  -0.36251
 Alpha virt. eigenvalues --    0.05165   0.06064   0.07214   0.08006   0.10816
 Alpha virt. eigenvalues --    0.11772   0.12719   0.13057   0.14718   0.15030
 Alpha virt. eigenvalues --    0.15817   0.16223   0.18875   0.19370   0.21133

 Mulliken charges:
               1
     1  C   -0.153634
     2  C   -0.084842
     3  H    0.045028
     4  H    0.048383
     5  H    0.067574
     6  C   -0.037036
     7  H    0.082139
     8  H   -0.020020
     9  C   -0.312500
    10  H    0.020529
    11  H    0.048337
    12  H    0.203839
    13  H    0.053199
    14  H    0.039004
 Sum of Mulliken charges =   0.00000

 Dipole moment (field-independent basis, Debye):
    X=             -0.1649    Y=             -0.3712    Z=             -0.0121  Tot=              0.4063
 Quadrupole moment (field-independent basis, Debye-Ang):
   XX=            -29.7638   YY=            -29.1358   ZZ=            -28.2974
   XY=             -0.3972   XZ=             -0.2554   YZ=              0.5196

 Normal termination of Gaussian 09 at Wed Aug 26 11:00:53 2020.
