 Gaussian 09, Revision D.01,
 Gaussian 09:  ES64L-G09RevD.01 24-Apr-2013

 --------------------
 #p B2PLYPD3/Def2QZVP
 --------------------

 ----------
 butane_opt
 ----------
 Symbolic Z-matrix:
 Charge =  0 Multiplicity = 1

                         Standard orientation:
 ---------------------------------------------------------------------
 Center     Atomic      Atomic             Coordinates (Angstroms)
 Number     Number       Type             X           Y           Z
 ---------------------------------------------------------------------
      1          6           0        1.877784   -0.225783   -0.102445
      2          6           0        0.515947    0.616708    0.131407
      3          1           0        2.709974    0.462906    0.070019
      4          1           0        1.985687   -1.442336   -1.131521
      5          1           0        2.456781   -0.281237    0.370274
      6          6           0       -0.534829   -0.446721    0.252092
      7          1           0        0.366651    1.388198   -0.820630
      8          1           0        0.401784    1.351210    0.905411
      9          6           0       -1.882558    0.073655   -0.179895
     10          1           0       -0.827953   -1.168360    1.429663
     11          1           0       -0.412535   -0.939297   -0.376060
     12          1           0       -2.276397    0.682623    0.544095
     13          1           0       -2.788606   -0.945773   -0.396275
     14          1           0       -1.473457    0.784914   -1.201932
 ---------------------------------------------------------------------

 SCF Done:  E(RB2PLYPD3) =  -157.549545082     A.U. after   12 cycles
 E2(B2PLYPD3) =    -0.2578313376D+00 E(B2PLYPD3) =    -0.15780737642001D+03

 The electronic state is 1-A.
 Alpha  occ. eigenvalues --  -10.64475 -10.63479 -10.62043 -10.59965  -0.95129
 Alpha  occ. eigenvalues --   -0.90916  -0.76440  -0.69083  -0.53675  -0.51419
 Alpha  occ. eigenvalues --   -0.47918  -0.42657  -0.41152  -0.40122  -0.37059
 Alpha  occ. eigenvalues --   -0.35526  -0.31287
 Alpha virt. eigenvalues --    0.02105   0.05024   0.05535   0.06721   0.09506
 Alpha virt. eigenvalues --    0.10871   0.11403   0.13162   0.14526   0.14873
 Alpha virt. eigenvalues --    0.15301   0.16334   0.17599   0.19122   0.20933

 Mulliken charges:
               1
     1  C   -0.507586
     2  C   -0.023036
     3  H    0.046066
     4  H    0.042186
     5  H    0.381135
     6  C   -0.276830
     7  H    0.025300
     8  H    0.048055
     9  C   -0.164306
    10  H    0.011429
    11  H    0.294122
    12  H    0.072057
    13  H    0.024609
    14  H    0.026798
 Sum of Mulliken charges =   0.00000

 Dipole moment (field-independent basis, Debye):
    X=              0.7522    Y=              0.4973    Z=              0.6440  Tot=              1.1081
 Quadrupole moment (field-independent basis, Debye-Ang):
   XX=            -29.0292   YY=            -28.9864   ZZ=            -30.3424
   XY=              0.7905   XZ=              0.5058   YZ=              1.6767

 Normal termination of Gaussian 09 at Wed Aug 26 23:12:35 2020.
