 Gaussian 09, Revision D.01,
 Gaussian 09:  ES64L-G09RevD.01 24-Apr-2013

 --------------------
 #p B2PLYPD3/Def2QZVP
 --------------------

 ----------
 butane_opt
 ----------
 Symbolic Z-matrix:
 Charge =  0 Multiplicity = 1

                         Standard orientation:
 ---------------------------------------------------------------------
 Center     Atomic      Atomic             Coordinates (Angstroms)
 Number     Number       Type             X           Y           Z
 ---------------------------------------------------------------------
      1          6           0        2.064265   -0.105644    0.035884
      2          6           0        0.477786    0.623603   -0.162489
      3          1           0        2.702906    0.440290   -0.015355
      4          1           0        2.270350   -0.773583   -0.680856
      5          1           0        2.299144   -0.911786    1.161746
      6          6           0       -0.621409   -0.498496    0.054242
      7          1           0        0.288995    1.285867   -1.164865
      8          1           0        0.362927    1.090163    0.647660
      9          6           0       -1.905140    0.031582    0.084914
     10          1           0       -0.237227   -0.756182    0.763091
     11          1           0       -0.814723   -1.319076   -0.779314
     12          1           0       -2.463961    1.147406    1.186640
     13          1           0       -2.581397   -0.776523   -0.588780
     14          1           0       -1.920023    0.267157   -0.605278
 ---------------------------------------------------------------------

 SCF Done:  E(RB2PLYPD3) =  -157.545673155     A.U. after   12 cycles
 E2(B2PLYPD3) =    -0.2541197358D+00 E(B2PLYPD3) =    -0.15779979289101D+03

 The electronic state is 1-A.
 Alpha  occ. eigenvalues --  -10.62631 -10.61282 -10.60622 -10.59195  -0.96699
 Alpha  occ. eigenvalues --   -0.85681  -0.79174  -0.70148  -0.54039  -0.52004
 Alpha  occ. eigenvalues --   -0.49298  -0.46657  -0.44781  -0.40040  -0.38288
 Alpha  occ. eigenvalues --   -0.36053  -0.33306
 Alpha virt. eigenvalues --    0.02039   0.04887   0.05374   0.08202   0.10361
 Alpha virt. eigenvalues --    0.11233   0.11918   0.13144   0.14042   0.14589
 Alpha virt. eigenvalues --    0.16206   0.16865   0.18089   0.19263   0.20049

 Mulliken charges:
               1
     1  C   -0.240323
     2  C   -0.148069
     3  H    0.157585
     4  H    0.054118
     5  H    0.001159
     6  C   -0.154690
     7  H    0.030824
     8  H    0.116395
     9  C   -0.536308
    10  H    0.189105
    11  H    0.029944
    12  H    0.025031
    13  H    0.008864
    14  H    0.466365
 Sum of Mulliken charges =   0.00000

 Dipole moment (field-independent basis, Debye):
    X=              0.4801    Y=              0.1074    Z=             -0.7879  Tot=              0.9289
 Quadrupole moment (field-independent basis, Debye-Ang):
   XX=            -30.9902   YY=            -29.3001   ZZ=            -28.0122
   XY=             -0.1537   XZ=              1.3133   YZ=              0.8831

 Normal termination of Gaussian 09 at Wed Aug 26 10:12:12 2020.
