 Gaussian 09, Revision D.01,
 Gaussian 09:  ES64L-G09RevD.01 24-Apr-2013

 --------------------
 #p B2PLYPD3/Def2QZVP
 --------------------

 ----------
 butane_opt
 ----------
 Symbolic Z-matrix:
 Charge =  0 Multiplicity = 1

                         Standard orientation:
 ---------------------------------------------------------------------
 Center     Atomic      Atomic             Coordinates (Angstroms)
 Number     Number       Type             X           Y           Z
 ---------------------------------------------------------------------
      1          6           0        1.899566   -0.124566   -0.079068
      2          6           0        0.557358    0.520652    0.075114
      3          1           0        2.570432    0.426105   -0.423437
      4          1           0        1.993405   -0.991946   -1.056883
      5          1           0        2.423516   -0.567976    0.790072
      6          6           0       -0.592149   -0.455005    0.191358
      7          1           0        0.374626    1.005043   -0.648933
      8          1           0        0.395296    1.627264    1.043673
      9          6           0       -1.873491    0.123268   -0.149280
     10          1           0       -0.603868   -1.419202    1.412832
     11          1           0       -0.300196   -0.897767   -0.577593
     12          1           0       -2.310507    0.773769    0.582101
     13          1           0       -2.716238   -0.787707   -0.415450
     14          1           0       -1.774171    0.446318   -0.935126
 ---------------------------------------------------------------------

 SCF Done:  E(RB2PLYPD3) =  -157.826619051     A.U. after   11 cycles
 E2(B2PLYPD3) =    -0.2509122160D+00 E(B2PLYPD3) =    -0.15807753126696D+03

 The electronic state is 1-A.
 Alpha  occ. eigenvalues --  -10.62923 -10.62496 -10.61238 -10.59021  -0.95571
 Alpha  occ. eigenvalues --   -0.86339  -0.76066  -0.68168  -0.55833  -0.53238
 Alpha  occ. eigenvalues --   -0.49485  -0.46722  -0.43606  -0.41954  -0.39645
 Alpha  occ. eigenvalues --   -0.35454  -0.33909
 Alpha virt. eigenvalues --    0.04041   0.05431   0.06641   0.07035   0.10752
 Alpha virt. eigenvalues --    0.11523   0.11859   0.12939   0.14661   0.15278
 Alpha virt. eigenvalues --    0.15738   0.16640   0.18782   0.19592   0.20266

 Mulliken charges:
               1
     1  C   -0.123631
     2  C   -0.119165
     3  H    0.070586
     4  H   -0.006633
     5  H    0.055396
     6  C   -0.093161
     7  H    0.131333
     8  H   -0.031725
     9  C   -0.241330
    10  H   -0.015180
    11  H    0.141601
    12  H    0.068147
    13  H    0.021931
    14  H    0.141830
 Sum of Mulliken charges =   0.00000

 Dipole moment (field-independent basis, Debye):
    X=              0.2977    Y=              0.3623    Z=             -1.1063  Tot=              1.2016
 Quadrupole moment (field-independent basis, Debye-Ang):
   XX=            -28.4112   YY=            -30.6071   ZZ=            -28.9656
   XY=             -0.5592   XZ=             -0.0383   YZ=             -0.1855

 Normal termination of Gaussian 09 at Wed Aug 26 23:55:41 2020.
