 Gaussian 09, Revision D.01,
 Gaussian 09:  ES64L-G09RevD.01 24-Apr-2013

 --------------------
 #p B2PLYPD3/Def2QZVP
 --------------------

 ----------
 butane_opt
 ----------
 Symbolic Z-matrix:
 Charge =  0 Multiplicity = 1

                         Standard orientation:
 ---------------------------------------------------------------------
 Center     Atomic      Atomic             Coordinates (Angstroms)
 Number     Number       Type             X           Y           Z
 ---------------------------------------------------------------------
      1          6           0        2.020608   -0.069751    0.017876
      2          6           0        0.619950    0.486623   -0.044056
      3          1           0        2.922636    0.783513   -0.245077
      4          1           0        1.951172   -0.529602   -0.735407
      5          1           0        1.995485   -0.922401    0.962463
      6          6           0       -0.528059   -0.587110    0.030001
      7          1           0        0.365047    1.120859   -0.970102
      8          1           0        0.389050    0.933910    0.809232
      9          6           0       -2.005249    0.157558   -0.022737
     10          1           0       -0.381150   -1.276252    0.928451
     11          1           0       -0.461652   -1.037170   -0.632061
     12          1           0       -2.419570    1.393558    1.145488
     13          1           0       -2.827716   -0.675141   -0.568443
     14          1           0       -2.176797    0.284806   -0.581050
 ---------------------------------------------------------------------

 SCF Done:  E(RB2PLYPD3) =  -157.273029787     A.U. after   13 cycles
 E2(B2PLYPD3) =    -0.2553040215D+00 E(B2PLYPD3) =    -0.15752833380822D+03

 The electronic state is 1-A.
 Alpha  occ. eigenvalues --  -10.64706 -10.61256 -10.60306 -10.60073  -0.93865
 Alpha  occ. eigenvalues --   -0.88750  -0.79805  -0.69755  -0.55293  -0.50640
 Alpha  occ. eigenvalues --   -0.48142  -0.44814  -0.41843  -0.40073  -0.38650
 Alpha  occ. eigenvalues --   -0.36631  -0.34765
 Alpha virt. eigenvalues --   -0.00036   0.05115   0.05988   0.08004   0.10126
 Alpha virt. eigenvalues --    0.10498   0.11921   0.12614   0.13426   0.15512
 Alpha virt. eigenvalues --    0.16139   0.16478   0.18130   0.19110   0.19989

 Mulliken charges:
               1
     1  C   -0.242218
     2  C   -0.055438
     3  H    0.045089
     4  H    0.142982
     5  H    0.036521
     6  C   -0.232515
     7  H    0.024172
     8  H    0.078480
     9  C   -0.791411
    10  H    0.038031
    11  H    0.238404
    12  H    0.039497
    13  H    0.009229
    14  H    0.669176
 Sum of Mulliken charges =   0.00000

 Dipole moment (field-independent basis, Debye):
    X=              0.2892    Y=             -0.1758    Z=             -0.9589  Tot=              1.0169
 Quadrupole moment (field-independent basis, Debye-Ang):
   XX=            -32.1709   YY=            -29.0759   ZZ=            -27.6960
   XY=             -0.3185   XZ=              1.0969   YZ=              0.4056

 Normal termination of Gaussian 09 at Wed Aug 26 11:54:13 2020.
