 Gaussian 09, Revision D.01,
 Gaussian 09:  ES64L-G09RevD.01 24-Apr-2013

 --------------------
 #p B2PLYPD3/Def2QZVP
 --------------------

 ----------
 butane_opt
 ----------
 Symbolic Z-matrix:
 Charge =  0 Multiplicity = 1

                         Standard orientation:
 ---------------------------------------------------------------------
 Center     Atomic      Atomic             Coordinates (Angstroms)
 Number     Number       Type             X           Y           Z
 ---------------------------------------------------------------------
      1          6           0        1.964560   -0.213925    0.024034
      2          6           0        0.513565    0.520915   -0.103502
      3          1           0        2.873755    0.696214   -0.224879
      4          1           0        1.936674   -0.479926   -0.672565
      5          1           0        2.131024   -1.005024    1.054607
      6          6           0       -0.592182   -0.427298    0.015814
      7          1           0        0.303086    1.181975   -0.990166
      8          1           0        0.501364    1.253385    0.775360
      9          6           0       -1.828559    0.092009    0.073664
     10          1           0       -0.415114   -1.073606    0.992821
     11          1           0       -0.805340   -1.176671   -0.839861
     12          1           0       -2.276842    1.189062    1.180071
     13          1           0       -2.894053   -0.919901   -0.557771
     14          1           0       -1.698855    0.504293   -0.777676
 ---------------------------------------------------------------------

 SCF Done:  E(RB2PLYPD3) =  -157.670809534     A.U. after   12 cycles
 E2(B2PLYPD3) =    -0.2583772054D+00 E(B2PLYPD3) =    -0.15792918673976D+03

 The electronic state is 1-A.
 Alpha  occ. eigenvalues --  -10.65799 -10.63026 -10.62151 -10.62031  -0.96830
 Alpha  occ. eigenvalues --   -0.87255  -0.74408  -0.65047  -0.55291  -0.50347
 Alpha  occ. eigenvalues --   -0.49901  -0.46198  -0.41820  -0.40063  -0.37959
 Alpha  occ. eigenvalues --   -0.35064  -0.33073
 Alpha virt. eigenvalues --    0.00799   0.04753   0.05075   0.07052   0.09063
 Alpha virt. eigenvalues --    0.10065   0.11285   0.12311   0.13566   0.14814
 Alpha virt. eigenvalues --    0.15391   0.15928   0.18173   0.18496   0.20450

 Mulliken charges:
               1
     1  C   -0.513892
     2  C   -0.038831
     3  H    0.032830
     4  H    0.385645
     5  H    0.082142
     6  C   -0.003850
     7  H    0.031156
     8  H    0.042648
     9  C   -0.191248
    10  H    0.013832
    11  H    0.051128
    12  H    0.010362
    13  H   -0.012516
    14  H    0.110593
 Sum of Mulliken charges =   0.00000

 Dipole moment (field-independent basis, Debye):
    X=              0.8367    Y=             -0.0449    Z=             -0.7080  Tot=              1.0970
 Quadrupole moment (field-independent basis, Debye-Ang):
   XX=            -34.2352   YY=            -29.7944   ZZ=            -28.4963
   XY=             -0.1647   XZ=              0.9965   YZ=              0.0372

 Normal termination of Gaussian 09 at Wed Aug 26 17:56:32 2020.
