 Gaussian 09, Revision D.01,
 Gaussian 09:  ES64L-G09RevD.01 24-Apr-2013

 --------------------
 #p B2PLYPD3/Def2QZVP
 --------------------

 ----------
 butane_opt
 ----------
 Symbolic Z-matrix:
 Charge =  0 Multiplicity = 1

                         Standard orientation:
 ---------------------------------------------------------------------
 Center     Atomic      Atomic             Coordinates (Angstroms)
 Number     Number       Type             X           Y           Z
 ---------------------------------------------------------------------
      1          6           0        1.962399    0.059530   -0.174366
      2          6           0        0.564772   -0.455841    0.331307
      3          1           0        2.809669   -0.882940   -0.980547
      4          1           0        2.481024    1.083527    0.652509
      5          1           0        1.633902    0.465155   -0.898961
      6          6           0       -0.562878    0.629528    0.119552
      7          1           0        0.696974   -1.291285    1.632776
      8          1           0        0.298345   -0.993736   -0.295228
      9          6           0       -1.936526   -0.236128   -0.183398
     10          1           0       -0.144166    1.266017   -0.910374
     11          1           0       -0.898027    1.330018    0.989490
     12          1           0       -2.048041   -1.038222   -0.973617
     13          1           0       -2.622390    0.429907   -0.227716
     14          1           0       -2.373888   -0.350971    0.453099
 ---------------------------------------------------------------------

 SCF Done:  E(RB2PLYPD3) =  -157.653336083     A.U. after   11 cycles
 E2(B2PLYPD3) =    -0.2559966168D+00 E(B2PLYPD3) =    -0.15790933270027D+03

 The electronic state is 1-A.
 Alpha  occ. eigenvalues --  -10.66357 -10.64712 -10.63526 -10.56900  -0.92901
 Alpha  occ. eigenvalues --   -0.88259  -0.75437  -0.67633  -0.53645  -0.49316
 Alpha  occ. eigenvalues --   -0.47088  -0.46329  -0.42192  -0.39569  -0.37808
 Alpha  occ. eigenvalues --   -0.36565  -0.34847
 Alpha virt. eigenvalues --    0.02885   0.04827   0.05725   0.07853   0.09184
 Alpha virt. eigenvalues --    0.10021   0.11687   0.13306   0.14200   0.15540
 Alpha virt. eigenvalues --    0.15558   0.16687   0.17784   0.19012   0.20136

 Mulliken charges:
               1
     1  C   -0.247298
     2  C   -0.196200
     3  H    0.018656
     4  H    0.036755
     5  H    0.162929
     6  C   -0.037775
     7  H   -0.008358
     8  H    0.214483
     9  C   -0.345618
    10  H    0.027560
    11  H    0.041052
    12  H    0.055724
    13  H    0.046828
    14  H    0.231260
 Sum of Mulliken charges =   0.00000

 Dipole moment (field-independent basis, Debye):
    X=             -1.2643    Y=              0.4782    Z=             -0.5088  Tot=              1.4443
 Quadrupole moment (field-independent basis, Debye-Ang):
   XX=            -30.1620   YY=            -29.6597   ZZ=            -29.1607
   XY=              0.3100   XZ=             -1.6379   YZ=              1.6627

 Normal termination of Gaussian 09 at Wed Aug 26 12:59:18 2020.
