 Gaussian 09, Revision D.01,
 Gaussian 09:  ES64L-G09RevD.01 24-Apr-2013

 --------------------
 #p B2PLYPD3/Def2QZVP
 --------------------

 ----------
 butane_opt
 ----------
 Symbolic Z-matrix:
 Charge =  0 Multiplicity = 1

                         Standard orientation:
 ---------------------------------------------------------------------
 Center     Atomic      Atomic             Coordinates (Angstroms)
 Number     Number       Type             X           Y           Z
 ---------------------------------------------------------------------
      1          6           0       -1.996128   -0.137579    0.047974
      2          6           0       -0.556340    0.496843   -0.002077
      3          1           0       -2.798964    0.635613   -0.215533
      4          1           0       -2.185246   -0.833341    0.844868
      5          1           0       -2.119959   -0.690359   -0.754277
      6          6           0        0.619009   -0.499106    0.030268
      7          1           0       -0.442032    1.106222    0.806914
      8          1           0       -0.611259    1.309316   -1.022116
      9          6           0        1.966480    0.111965   -0.027373
     10          1           0        0.522984   -1.181878   -0.898171
     11          1           0        0.605439   -1.102757    0.926883
     12          1           0        1.933889    0.456858   -0.725246
     13          1           0        2.715466   -0.544405   -0.295492
     14          1           0        2.181559    1.011988    1.039414
 ---------------------------------------------------------------------

 SCF Done:  E(RB2PLYPD3) =  -157.912656287     A.U. after   11 cycles
 E2(B2PLYPD3) =    -0.2479574171D+00 E(B2PLYPD3) =    -0.15816061370400D+03

 The electronic state is 1-A.
 Alpha  occ. eigenvalues --  -10.62365 -10.61291 -10.59270 -10.58334  -0.92565
 Alpha  occ. eigenvalues --   -0.85391  -0.75243  -0.66944  -0.53971  -0.50550
 Alpha  occ. eigenvalues --   -0.49590  -0.46233  -0.42996  -0.41217  -0.39090
 Alpha  occ. eigenvalues --   -0.37231  -0.36710
 Alpha virt. eigenvalues --    0.05464   0.06323   0.07701   0.08037   0.10584
 Alpha virt. eigenvalues --    0.11847   0.12742   0.12873   0.14339   0.15302
 Alpha virt. eigenvalues --    0.15987   0.16455   0.19223   0.19691   0.21410

 Mulliken charges:
               1
     1  C   -0.143907
     2  C   -0.042929
     3  H    0.036436
     4  H    0.045298
     5  H    0.051269
     6  C   -0.007794
     7  H    0.057427
     8  H   -0.011914
     9  C   -0.384505
    10  H    0.012808
    11  H    0.042127
    12  H    0.274070
    13  H    0.051320
    14  H    0.020294
 Sum of Mulliken charges =   0.00000

 Dipole moment (field-independent basis, Debye):
    X=             -0.0409    Y=             -0.3350    Z=             -0.3390  Tot=              0.4783
 Quadrupole moment (field-independent basis, Debye-Ang):
   XX=            -29.5840   YY=            -29.2242   ZZ=            -28.0391
   XY=             -0.4638   XZ=             -0.4181   YZ=              0.1130

 Normal termination of Gaussian 09 at Wed Aug 26 09:44:45 2020.
