 Gaussian 09, Revision D.01,
 Gaussian 09:  ES64L-G09RevD.01 24-Apr-2013

 --------------------
 #p B2PLYPD3/Def2QZVP
 --------------------

 ----------
 butane_opt
 ----------
 Symbolic Z-matrix:
 Charge =  0 Multiplicity = 1

                         Standard orientation:
 ---------------------------------------------------------------------
 Center     Atomic      Atomic             Coordinates (Angstroms)
 Number     Number       Type             X           Y           Z
 ---------------------------------------------------------------------
      1          6           0        1.981231   -0.127374    0.030878
      2          6           0        0.544828    0.627125   -0.093672
      3          1           0        2.696484    0.505795   -0.131362
      4          1           0        2.477534   -0.598658   -0.789894
      5          1           0        1.990239   -1.044427    1.083981
      6          6           0       -0.633194   -0.538916    0.056371
      7          1           0        0.392885    1.117119   -0.845957
      8          1           0        0.677289    1.221666    0.711317
      9          6           0       -1.956399    0.132642   -0.025815
     10          1           0       -0.271225   -1.185240    0.799564
     11          1           0       -0.567559   -1.207844   -0.753165
     12          1           0       -2.372264    1.150428    1.055441
     13          1           0       -2.694696   -0.823542   -0.433693
     14          1           0       -1.947484    0.303844   -0.502808
 ---------------------------------------------------------------------

 SCF Done:  E(RB2PLYPD3) =  -157.025808048     A.U. after   12 cycles
 E2(B2PLYPD3) =    -0.2526589829D+00 E(B2PLYPD3) =    -0.15727846703135D+03

 The electronic state is 1-A.
 Alpha  occ. eigenvalues --  -10.65353 -10.61475 -10.60716 -10.59356  -0.94647
 Alpha  occ. eigenvalues --   -0.86624  -0.76953  -0.71854  -0.54555  -0.51959
 Alpha  occ. eigenvalues --   -0.48012  -0.45540  -0.44249  -0.40109  -0.38173
 Alpha  occ. eigenvalues --   -0.37665  -0.33887
 Alpha virt. eigenvalues --    0.03919   0.05282   0.06916   0.08396   0.10139
 Alpha virt. eigenvalues --    0.11110   0.11984   0.13398   0.13821   0.15594
 Alpha virt. eigenvalues --    0.15810   0.16069   0.17951   0.19797   0.20775

 Mulliken charges:
               1
     1  C   -0.178445
     2  C   -0.082041
     3  H    0.060603
     4  H    0.026786
     5  H    0.029755
     6  C    0.054485
     7  H    0.068345
     8  H    0.052373
     9  C   -1.035899
    10  H    0.045989
    11  H    0.032608
    12  H    0.051153
    13  H    0.063694
    14  H    0.810594
 Sum of Mulliken charges =   0.00000

 Dipole moment (field-independent basis, Debye):
    X=              0.4549    Y=              0.2039    Z=             -0.6486  Tot=              0.8181
 Quadrupole moment (field-independent basis, Debye-Ang):
   XX=            -30.6049   YY=            -27.9276   ZZ=            -28.1663
   XY=              0.3617   XZ=             -0.2276   YZ=              0.0403

 Normal termination of Gaussian 09 at Wed Aug 26 12:01:39 2020.
