 Gaussian 09, Revision D.01,
 Gaussian 09:  ES64L-G09RevD.01 24-Apr-2013

 --------------------
 #p B2PLYPD3/Def2QZVP
 --------------------

 ----------
 butane_opt
 ----------
 Symbolic Z-matrix:
 Charge =  0 Multiplicity = 1

                         Standard orientation:
 ---------------------------------------------------------------------
 Center     Atomic      Atomic             Coordinates (Angstroms)
 Number     Number       Type             X           Y           Z
 ---------------------------------------------------------------------
      1          6           0       -2.002853   -0.161017    0.118346
      2          6           0       -0.507282    0.639395   -0.042621
      3          1           0       -2.643305    0.335992    0.018935
      4          1           0       -1.948882   -1.034788    1.033908
      5          1           0       -2.303720   -0.706335   -0.711709
      6          6           0        0.599038   -0.456267   -0.245448
      7          1           0       -0.062921    1.085257    0.851188
      8          1           0       -0.741148    1.563006   -0.876708
      9          6           0        1.951190    0.042009    0.089295
     10          1           0        0.440289   -0.981719   -1.050783
     11          1           0        0.311848   -1.146585    0.488586
     12          1           0        2.226532    0.619541   -0.593288
     13          1           0        2.718235   -0.784204    0.270902
     14          1           0        1.762516    0.665112    1.051538
 ---------------------------------------------------------------------

 SCF Done:  E(RB2PLYPD3) =  -157.933725866     A.U. after   11 cycles
 E2(B2PLYPD3) =    -0.2484026063D+00 E(B2PLYPD3) =    -0.15818212847198D+03

 The electronic state is 1-A.
 Alpha  occ. eigenvalues --  -10.63742 -10.59094 -10.59088 -10.58410  -0.91386
 Alpha  occ. eigenvalues --   -0.84495  -0.75485  -0.68061  -0.54513  -0.50705
 Alpha  occ. eigenvalues --   -0.49451  -0.44977  -0.43259  -0.40847  -0.40637
 Alpha  occ. eigenvalues --   -0.38059  -0.34997
 Alpha virt. eigenvalues --    0.05699   0.06753   0.07706   0.09314   0.10551
 Alpha virt. eigenvalues --    0.12037   0.12967   0.14580   0.14943   0.15155
 Alpha virt. eigenvalues --    0.15800   0.16715   0.18315   0.19947   0.21285

 Mulliken charges:
               1
     1  C   -0.258625
     2  C   -0.078904
     3  H    0.175250
     4  H    0.033434
     5  H    0.033176
     6  C   -0.038264
     7  H    0.052523
     8  H    0.010757
     9  C   -0.165557
    10  H    0.045495
    11  H    0.038414
    12  H    0.082130
    13  H    0.041403
    14  H    0.028767
 Sum of Mulliken charges =   0.00000

 Dipole moment (field-independent basis, Debye):
    X=             -0.0594    Y=             -0.2039    Z=             -0.2785  Tot=              0.3503
 Quadrupole moment (field-independent basis, Debye-Ang):
   XX=            -28.5434   YY=            -28.6530   ZZ=            -28.7326
   XY=             -0.2299   XZ=              0.8823   YZ=             -0.3197

 Normal termination of Gaussian 09 at Wed Aug 26 22:50:55 2020.
