 Gaussian 09, Revision D.01,
 Gaussian 09:  ES64L-G09RevD.01 24-Apr-2013

 --------------------
 #p B2PLYPD3/Def2QZVP
 --------------------

 ----------
 butane_opt
 ----------
 Symbolic Z-matrix:
 Charge =  0 Multiplicity = 1

                         Standard orientation:
 ---------------------------------------------------------------------
 Center     Atomic      Atomic             Coordinates (Angstroms)
 Number     Number       Type             X           Y           Z
 ---------------------------------------------------------------------
      1          6           0       -1.945464   -0.123371    0.022393
      2          6           0       -0.502828    0.522815   -0.069794
      3          1           0       -2.707676    0.585157    0.129589
      4          1           0       -1.956709   -0.772897    0.816370
      5          1           0       -2.191647   -0.728170   -0.775767
      6          6           0        0.559078   -0.501340    0.025674
      7          1           0       -0.433279    1.165076    0.772073
      8          1           0       -0.436208    1.236581   -0.951742
      9          6           0        1.882281    0.091990    0.009821
     10          1           0        0.594089   -1.084522   -0.766872
     11          1           0        0.310532   -1.058126    0.882740
     12          1           0        1.867568    0.475717   -0.742791
     13          1           0        2.640011   -0.637404   -0.270011
     14          1           0        2.354914    0.878020    0.977846
 ---------------------------------------------------------------------

 SCF Done:  E(RB2PLYPD3) =  -158.006232737     A.U. after   11 cycles
 E2(B2PLYPD3) =    -0.2456524280D+00 E(B2PLYPD3) =    -0.15825188516452D+03

 The electronic state is 1-A.
 Alpha  occ. eigenvalues --  -10.60185 -10.58407 -10.58098 -10.57854  -0.94059
 Alpha  occ. eigenvalues --   -0.84943  -0.74969  -0.68141  -0.55512  -0.50731
 Alpha  occ. eigenvalues --   -0.49590  -0.47904  -0.43939  -0.41059  -0.38974
 Alpha  occ. eigenvalues --   -0.38227  -0.37829
 Alpha virt. eigenvalues --    0.05931   0.06939   0.08325   0.08784   0.10886
 Alpha virt. eigenvalues --    0.11955   0.13107   0.14135   0.14936   0.15565
 Alpha virt. eigenvalues --    0.16050   0.16730   0.19646   0.20412   0.22266

 Mulliken charges:
               1
     1  C   -0.137442
     2  C   -0.043053
     3  H    0.043138
     4  H    0.041802
     5  H    0.036086
     6  C   -0.021683
     7  H    0.041162
     8  H    0.009254
     9  C   -0.275090
    10  H    0.049567
    11  H    0.034021
    12  H    0.166166
    13  H    0.030901
    14  H    0.025172
 Sum of Mulliken charges =   0.00000

 Dipole moment (field-independent basis, Debye):
    X=             -0.1152    Y=             -0.1989    Z=             -0.3177  Tot=              0.3922
 Quadrupole moment (field-independent basis, Debye-Ang):
   XX=            -29.4895   YY=            -28.5465   ZZ=            -27.8416
   XY=             -0.2938   XZ=             -0.8803   YZ=              0.3618

 Normal termination of Gaussian 09 at Wed Aug 26 21:14:09 2020.
