 Gaussian 09, Revision D.01,
 Gaussian 09:  ES64L-G09RevD.01 24-Apr-2013

 --------------------
 #p B2PLYPD3/Def2QZVP
 --------------------

 ----------
 butane_opt
 ----------
 Symbolic Z-matrix:
 Charge =  0 Multiplicity = 1

                         Standard orientation:
 ---------------------------------------------------------------------
 Center     Atomic      Atomic             Coordinates (Angstroms)
 Number     Number       Type             X           Y           Z
 ---------------------------------------------------------------------
      1          6           0        2.033801   -0.217004   -0.115493
      2          6           0        0.560321    0.656150    0.039067
      3          1           0        2.728372    0.396409   -0.202663
      4          1           0        2.271251   -1.066242   -1.043168
      5          1           0        2.036673   -0.616667    0.705314
      6          6           0       -0.652344   -0.443639    0.305200
      7          1           0        0.106693    1.116803   -0.815479
      8          1           0        0.812075    1.689168    0.980765
      9          6           0       -1.936019    0.013735   -0.201418
     10          1           0       -0.629206   -1.321961    1.534976
     11          1           0       -0.438166   -0.853676   -0.187813
     12          1           0       -2.674471    1.079767    0.762249
     13          1           0       -2.653419   -0.839102   -0.759847
     14          1           0       -1.594352    0.360059   -1.138473
 ---------------------------------------------------------------------

 SCF Done:  E(RB2PLYPD3) =  -157.550991054     A.U. after   12 cycles
 E2(B2PLYPD3) =    -0.2564675381D+00 E(B2PLYPD3) =    -0.15780745859202D+03

 The electronic state is 1-A.
 Alpha  occ. eigenvalues --  -10.66690 -10.66023 -10.61869 -10.60203  -0.95181
 Alpha  occ. eigenvalues --   -0.84291  -0.73514  -0.69330  -0.53356  -0.52494
 Alpha  occ. eigenvalues --   -0.48192  -0.44582  -0.42581  -0.39215  -0.38142
 Alpha  occ. eigenvalues --   -0.35781  -0.34892
 Alpha virt. eigenvalues --    0.02387   0.05556   0.05936   0.06539   0.08495
 Alpha virt. eigenvalues --    0.10894   0.11906   0.13105   0.13737   0.13916
 Alpha virt. eigenvalues --    0.15408   0.16702   0.17831   0.18401   0.19503

 Mulliken charges:
               1
     1  C   -0.218290
     2  C   -0.077530
     3  H    0.079651
     4  H    0.019569
     5  H    0.126896
     6  C   -0.687983
     7  H    0.077421
     8  H    0.011967
     9  C   -0.122542
    10  H    0.002393
    11  H    0.646612
    12  H    0.027152
    13  H    0.049000
    14  H    0.065684
 Sum of Mulliken charges =   0.00000

 Dipole moment (field-independent basis, Debye):
    X=              0.6222    Y=             -0.1970    Z=             -0.9247  Tot=              1.1319
 Quadrupole moment (field-independent basis, Debye-Ang):
   XX=            -30.2393   YY=            -29.9562   ZZ=            -29.0676
   XY=              0.4974   XZ=              1.2457   YZ=              0.8708

 Normal termination of Gaussian 09 at Wed Aug 26 21:27:35 2020.
