 Gaussian 09, Revision D.01,
 Gaussian 09:  ES64L-G09RevD.01 24-Apr-2013

 --------------------
 #p B2PLYPD3/Def2QZVP
 --------------------

 ----------
 butane_opt
 ----------
 Symbolic Z-matrix:
 Charge =  0 Multiplicity = 1

                         Standard orientation:
 ---------------------------------------------------------------------
 Center     Atomic      Atomic             Coordinates (Angstroms)
 Number     Number       Type             X           Y           Z
 ---------------------------------------------------------------------
      1          6           0        1.943386    0.108456   -0.042581
      2          6           0        0.575677   -0.484216    0.089491
      3          1           0        2.728671   -0.703131   -0.267994
      4          1           0        2.161176    0.806829    0.792740
      5          1           0        1.910768    0.640675   -0.872652
      6          6           0       -0.540522    0.516599    0.007836
      7          1           0        0.394420   -1.153042    1.003829
      8          1           0        0.419475   -1.089005   -0.691389
      9          6           0       -1.941671   -0.113544   -0.050411
     10          1           0       -0.450975    1.053405   -0.785255
     11          1           0       -0.460382    1.245207    0.925655
     12          1           0       -2.074087   -0.808654   -0.914215
     13          1           0       -2.715653    0.583807   -0.091082
     14          1           0       -2.134639   -0.739861    0.874349
 ---------------------------------------------------------------------

 SCF Done:  E(RB2PLYPD3) =  -158.089192757     A.U. after   10 cycles
 E2(B2PLYPD3) =    -0.2456203448D+00 E(B2PLYPD3) =    -0.15833481310220D+03

 The electronic state is 1-A.
 Alpha  occ. eigenvalues --  -10.59930 -10.59565 -10.59286 -10.59210  -0.92287
 Alpha  occ. eigenvalues --   -0.83690  -0.73391  -0.67558  -0.54887  -0.49724
 Alpha  occ. eigenvalues --   -0.48950  -0.47768  -0.43256  -0.41159  -0.39288
 Alpha  occ. eigenvalues --   -0.38357  -0.37530
 Alpha virt. eigenvalues --    0.05862   0.06900   0.08334   0.08905   0.11015
 Alpha virt. eigenvalues --    0.12151   0.13021   0.13918   0.14970   0.15306
 Alpha virt. eigenvalues --    0.15761   0.16532   0.19879   0.20138   0.21936

 Mulliken charges:
               1
     1  C   -0.159635
     2  C   -0.041709
     3  H    0.039261
     4  H    0.046307
     5  H    0.060714
     6  C   -0.059230
     7  H    0.018361
     8  H    0.047748
     9  C   -0.129331
    10  H    0.059605
    11  H    0.004197
    12  H    0.031404
    13  H    0.050771
    14  H    0.031537
 Sum of Mulliken charges =   0.00000

 Dipole moment (field-independent basis, Debye):
    X=             -0.0730    Y=              0.0972    Z=             -0.3917  Tot=              0.4101
 Quadrupole moment (field-independent basis, Debye-Ang):
   XX=            -29.5861   YY=            -28.7998   ZZ=            -28.0966
   XY=             -0.2663   XZ=             -0.2523   YZ=              0.1732

 Normal termination of Gaussian 09 at Wed Aug 26 21:02:39 2020.
