 Gaussian 09, Revision D.01,
 Gaussian 09:  ES64L-G09RevD.01 24-Apr-2013

 --------------------
 #p B2PLYPD3/Def2QZVP
 --------------------

 ----------
 butane_opt
 ----------
 Symbolic Z-matrix:
 Charge =  0 Multiplicity = 1

                         Standard orientation:
 ---------------------------------------------------------------------
 Center     Atomic      Atomic             Coordinates (Angstroms)
 Number     Number       Type             X           Y           Z
 ---------------------------------------------------------------------
      1          6           0        1.907226   -0.122075    0.058361
      2          6           0        0.570091    0.492394   -0.065655
      3          1           0        2.744744    0.554814   -0.117072
      4          1           0        2.135220   -0.718457   -0.766617
      5          1           0        2.057938   -0.733195    0.962877
      6          6           0       -0.571565   -0.473595    0.019088
      7          1           0        0.343363    1.219481   -1.098077
      8          1           0        0.471087    1.031231    0.747536
      9          6           0       -1.938647    0.121880    0.036721
     10          1           0       -0.392376   -0.984908    0.860634
     11          1           0       -0.540312   -1.177034   -0.794763
     12          1           0       -2.280645    0.940039    1.012436
     13          1           0       -2.755146   -0.733186   -0.450196
     14          1           0       -1.586506    0.489582   -0.647848
 ---------------------------------------------------------------------

 SCF Done:  E(RB2PLYPD3) =  -157.942583935     A.U. after   11 cycles
 E2(B2PLYPD3) =    -0.2492235564D+00 E(B2PLYPD3) =    -0.15819180749154D+03

 The electronic state is 1-A.
 Alpha  occ. eigenvalues --  -10.60886 -10.60443 -10.59561 -10.59240  -0.95011
 Alpha  occ. eigenvalues --   -0.86316  -0.73849  -0.67272  -0.56051  -0.49986
 Alpha  occ. eigenvalues --   -0.49070  -0.48418  -0.42550  -0.40876  -0.38872
 Alpha  occ. eigenvalues --   -0.37533  -0.35747
 Alpha virt. eigenvalues --    0.05433   0.06461   0.07837   0.08191   0.10556
 Alpha virt. eigenvalues --    0.11691   0.12778   0.13184   0.14837   0.15406
 Alpha virt. eigenvalues --    0.16019   0.16351   0.18871   0.19996   0.21803

 Mulliken charges:
               1
     1  C   -0.121048
     2  C   -0.071510
     3  H    0.037689
     4  H    0.029268
     5  H    0.047743
     6  C   -0.021586
     7  H   -0.004820
     8  H    0.077964
     9  C   -0.317596
    10  H    0.032197
    11  H    0.035709
    12  H    0.042556
    13  H    0.038926
    14  H    0.194508
 Sum of Mulliken charges =   0.00000

 Dipole moment (field-independent basis, Debye):
    X=              0.5784    Y=             -0.1972    Z=              0.0030  Tot=              0.6111
 Quadrupole moment (field-independent basis, Debye-Ang):
   XX=            -30.3276   YY=            -29.4462   ZZ=            -27.9466
   XY=              0.1843   XZ=              0.0160   YZ=              0.7481

 Normal termination of Gaussian 09 at Wed Aug 26 18:55:50 2020.
