 Gaussian 09, Revision D.01,
 Gaussian 09:  ES64L-G09RevD.01 24-Apr-2013

 --------------------
 #p B2PLYPD3/Def2QZVP
 --------------------

 ----------
 butane_opt
 ----------
 Symbolic Z-matrix:
 Charge =  0 Multiplicity = 1

                         Standard orientation:
 ---------------------------------------------------------------------
 Center     Atomic      Atomic             Coordinates (Angstroms)
 Number     Number       Type             X           Y           Z
 ---------------------------------------------------------------------
      1          6           0        1.894846    0.113064    0.014309
      2          6           0        0.543398   -0.502878    0.118647
      3          1           0        2.752477   -0.786975   -0.829823
      4          1           0        2.332511    1.245179    1.208711
      5          1           0        1.745523    0.273788   -0.558280
      6          6           0       -0.510188    0.479313   -0.094437
      7          1           0        0.323888   -0.814765    0.809292
      8          1           0        0.287236   -1.287680   -0.731443
      9          6           0       -1.879179   -0.116942   -0.000804
     10          1           0       -0.374772    1.244069   -1.175157
     11          1           0       -0.508802    0.903224    0.712097
     12          1           0       -2.152204   -0.481465   -0.722678
     13          1           0       -2.646014    0.773031   -0.142362
     14          1           0       -2.053100   -0.903754    1.203353
 ---------------------------------------------------------------------

 SCF Done:  E(RB2PLYPD3) =  -157.213258159     A.U. after   13 cycles
 E2(B2PLYPD3) =    -0.2567724857D+00 E(B2PLYPD3) =    -0.15747003064457D+03

 The electronic state is 1-A.
 Alpha  occ. eigenvalues --  -10.64250 -10.61941 -10.60645 -10.58563  -0.98340
 Alpha  occ. eigenvalues --   -0.89156  -0.79602  -0.70416  -0.56706  -0.51056
 Alpha  occ. eigenvalues --   -0.47692  -0.45005  -0.43332  -0.40461  -0.38330
 Alpha  occ. eigenvalues --   -0.37637  -0.33572
 Alpha virt. eigenvalues --   -0.00354   0.04407   0.04801   0.06399   0.09900
 Alpha virt. eigenvalues --    0.10098   0.11244   0.12354   0.13500   0.14808
 Alpha virt. eigenvalues --    0.15815   0.16771   0.18055   0.18963   0.21140

 Mulliken charges:
               1
     1  C   -0.870944
     2  C   -0.223924
     3  H    0.002850
     4  H    0.051884
     5  H    0.741560
     6  C   -0.086134
     7  H    0.269039
     8  H    0.024349
     9  C   -0.230882
    10  H    0.007539
    11  H    0.123933
    12  H    0.133262
    13  H    0.031374
    14  H    0.026094
 Sum of Mulliken charges =   0.00000

 Dipole moment (field-independent basis, Debye):
    X=             -0.9291    Y=              0.2719    Z=             -0.2518  Tot=              1.0003
 Quadrupole moment (field-independent basis, Debye-Ang):
   XX=            -33.1070   YY=            -29.8722   ZZ=            -27.2180
   XY=              0.9066   XZ=              0.5903   YZ=              0.6238

 Normal termination of Gaussian 09 at Wed Aug 26 12:23:17 2020.
