 Gaussian 09, Revision D.01,
 Gaussian 09:  ES64L-G09RevD.01 24-Apr-2013

 --------------------
 #p B2PLYPD3/Def2QZVP
 --------------------

 ----------
 butane_opt
 ----------
 Symbolic Z-matrix:
 Charge =  0 Multiplicity = 1

                         Standard orientation:
 ---------------------------------------------------------------------
 Center     Atomic      Atomic             Coordinates (Angstroms)
 Number     Number       Type             X           Y           Z
 ---------------------------------------------------------------------
      1          6           0       -1.984790    0.109374   -0.207364
      2          6           0       -0.567734   -0.453740    0.358426
      3          1           0       -2.810393   -0.874279   -0.584972
      4          1           0       -1.862720    0.392878   -1.056676
      5          1           0       -2.371401    1.017634    0.708639
      6          6           0        0.580701    0.525694    0.163344
      7          1           0       -0.403918   -1.139472   -0.522581
      8          1           0       -0.560092   -1.242437    1.396914
      9          6           0        1.972594   -0.136469   -0.167220
     10          1           0        0.597457    1.234458    0.907927
     11          1           0        0.139188    1.288993   -0.880238
     12          1           0        2.609860   -0.369658    0.480707
     13          1           0        2.629936    0.482140   -0.284181
     14          1           0        2.027456   -1.059412   -1.048662
 ---------------------------------------------------------------------

 SCF Done:  E(RB2PLYPD3) =  -157.859023526     A.U. after   11 cycles
 E2(B2PLYPD3) =    -0.2532814476D+00 E(B2PLYPD3) =    -0.15811230497390D+03

 The electronic state is 1-A.
 Alpha  occ. eigenvalues --  -10.64233 -10.63847 -10.63756 -10.59032  -0.90740
 Alpha  occ. eigenvalues --   -0.85094  -0.76204  -0.65635  -0.53737  -0.47938
 Alpha  occ. eigenvalues --   -0.47075  -0.46690  -0.42056  -0.40886  -0.37838
 Alpha  occ. eigenvalues --   -0.35460  -0.34885
 Alpha virt. eigenvalues --    0.04626   0.05965   0.06882   0.08195   0.09876
 Alpha virt. eigenvalues --    0.10598   0.11862   0.13186   0.13584   0.15076
 Alpha virt. eigenvalues --    0.15950   0.17077   0.18531   0.19489   0.19960

 Mulliken charges:
               1
     1  C   -0.209460
     2  C   -0.044342
     3  H    0.020685
     4  H    0.131230
     5  H    0.038141
     6  C   -0.027395
     7  H    0.029937
     8  H    0.034222
     9  C   -0.161750
    10  H    0.052844
    11  H   -0.013589
    12  H    0.046053
    13  H    0.075028
    14  H    0.028395
 Sum of Mulliken charges =   0.00000

 Dipole moment (field-independent basis, Debye):
    X=              0.9162    Y=              0.1684    Z=              0.0182  Tot=              0.9317
 Quadrupole moment (field-independent basis, Debye-Ang):
   XX=            -29.3124   YY=            -29.8066   ZZ=            -28.8545
   XY=              0.4206   XZ=              1.6586   YZ=              1.1720

 Normal termination of Gaussian 09 at Wed Aug 26 15:08:04 2020.
