 Gaussian 09, Revision D.01,
 Gaussian 09:  ES64L-G09RevD.01 24-Apr-2013

 --------------------
 #p B2PLYPD3/Def2QZVP
 --------------------

 ----------
 butane_opt
 ----------
 Symbolic Z-matrix:
 Charge =  0 Multiplicity = 1

                         Standard orientation:
 ---------------------------------------------------------------------
 Center     Atomic      Atomic             Coordinates (Angstroms)
 Number     Number       Type             X           Y           Z
 ---------------------------------------------------------------------
      1          6           0       -1.953962   -0.034030    0.179348
      2          6           0       -0.612771   -0.447627   -0.303691
      3          1           0       -2.722385   -0.853308    0.259708
      4          1           0       -2.560410    1.006933   -0.717436
      5          1           0       -1.625913    0.371364    1.080978
      6          6           0        0.519833    0.666115    0.012691
      7          1           0       -0.312063   -0.849137   -1.274764
      8          1           0       -0.474539   -0.878716    0.330946
      9          6           0        1.993605   -0.140618    0.040226
     10          1           0        0.365498    1.242380    1.061456
     11          1           0        0.569932    1.290744   -0.737392
     12          1           0        2.224157   -1.519351    1.061608
     13          1           0        2.570787    0.332641   -0.078016
     14          1           0        2.284703   -0.406590   -0.558530
 ---------------------------------------------------------------------

 SCF Done:  E(RB2PLYPD3) =  -157.423954934     A.U. after   12 cycles
 E2(B2PLYPD3) =    -0.2525686609D+00 E(B2PLYPD3) =    -0.15767652359446D+03

 The electronic state is 1-A.
 Alpha  occ. eigenvalues --  -10.63808 -10.63450 -10.58879 -10.58000  -0.96277
 Alpha  occ. eigenvalues --   -0.92624  -0.77374  -0.69284  -0.56508  -0.50940
 Alpha  occ. eigenvalues --   -0.49083  -0.47334  -0.44161  -0.41304  -0.38293
 Alpha  occ. eigenvalues --   -0.34860  -0.34787
 Alpha virt. eigenvalues --    0.01825   0.04864   0.07274   0.08022   0.09911
 Alpha virt. eigenvalues --    0.10501   0.11568   0.13374   0.14086   0.15058
 Alpha virt. eigenvalues --    0.15645   0.16741   0.18688   0.19355   0.20422

 Mulliken charges:
               1
     1  C   -0.148414
     2  C   -0.438559
     3  H    0.063725
     4  H   -0.024525
     5  H    0.088086
     6  C   -0.014370
     7  H    0.065103
     8  H    0.396787
     9  C   -0.662816
    10  H    0.029012
    11  H    0.072422
    12  H   -0.013032
    13  H    0.250269
    14  H    0.336311
 Sum of Mulliken charges =   0.00000

 Dipole moment (field-independent basis, Debye):
    X=              0.4361    Y=              0.0137    Z=             -0.5203  Tot=              0.6791
 Quadrupole moment (field-independent basis, Debye-Ang):
   XX=            -30.6544   YY=            -29.2392   ZZ=            -28.3381
   XY=              2.4895   XZ=             -3.0713   YZ=             -0.2088

 Normal termination of Gaussian 09 at Wed Aug 26 12:04:39 2020.
