 Gaussian 09, Revision D.01,
 Gaussian 09:  ES64L-G09RevD.01 24-Apr-2013

 --------------------
 #p B2PLYPD3/Def2QZVP
 --------------------

 ----------
 butane_opt
 ----------
 Symbolic Z-matrix:
 Charge =  0 Multiplicity = 1

                         Standard orientation:
 ---------------------------------------------------------------------
 Center     Atomic      Atomic             Coordinates (Angstroms)
 Number     Number       Type             X           Y           Z
 ---------------------------------------------------------------------
      1          6           0       -2.051825   -0.140047    0.050105
      2          6           0       -0.532734    0.602431   -0.095719
      3          1           0       -2.729048    0.422403   -0.385421
      4          1           0       -2.557887   -0.946668    1.139965
      5          1           0       -1.897521   -0.326080   -0.471076
      6          6           0        0.591637   -0.517587   -0.046797
      7          1           0       -0.053072    1.427581    0.795277
      8          1           0       -0.483905    1.140874   -0.996838
      9          6           0        1.963854    0.079018    0.031248
     10          1           0        0.615873   -1.277352   -0.880229
     11          1           0        0.428702   -1.301650    0.851474
     12          1           0        1.946128    0.258166   -0.736035
     13          1           0        2.691495   -0.685381   -0.158367
     14          1           0        2.213648    1.145224    1.208223
 ---------------------------------------------------------------------

 SCF Done:  E(RB2PLYPD3) =  -157.215465919     A.U. after   12 cycles
 E2(B2PLYPD3) =    -0.2556179740D+00 E(B2PLYPD3) =    -0.15747108389276D+03

 The electronic state is 1-A.
 Alpha  occ. eigenvalues --  -10.64742 -10.62898 -10.60425 -10.60413  -0.94496
 Alpha  occ. eigenvalues --   -0.90995  -0.76739  -0.66411  -0.52189  -0.50215
 Alpha  occ. eigenvalues --   -0.49730  -0.47472  -0.40604  -0.38833  -0.37493
 Alpha  occ. eigenvalues --   -0.36911  -0.36168
 Alpha virt. eigenvalues --    0.03414   0.05232   0.06554   0.07530   0.09576
 Alpha virt. eigenvalues --    0.09822   0.11807   0.12767   0.14477   0.15570
 Alpha virt. eigenvalues --    0.15877   0.16276   0.18158   0.18707   0.20067

 Mulliken charges:
               1
     1  C   -0.857914
     2  C   -0.070907
     3  H    0.056769
     4  H    0.078262
     5  H    0.718879
     6  C   -0.007630
     7  H    0.025266
     8  H    0.051263
     9  C   -0.419571
    10  H    0.009591
    11  H    0.020777
    12  H    0.303115
    13  H    0.058065
    14  H    0.034035
 Sum of Mulliken charges =   0.00000

 Dipole moment (field-independent basis, Debye):
    X=             -0.1477    Y=             -0.4031    Z=             -1.0457  Tot=              1.1304
 Quadrupole moment (field-independent basis, Debye-Ang):
   XX=            -29.4658   YY=            -29.3766   ZZ=            -27.7515
   XY=             -0.1695   XZ=             -0.3465   YZ=             -0.2338

 Normal termination of Gaussian 09 at Wed Aug 26 20:21:44 2020.
