 Gaussian 09, Revision D.01,
 Gaussian 09:  ES64L-G09RevD.01 24-Apr-2013

 --------------------
 #p B2PLYPD3/Def2QZVP
 --------------------

 ----------
 butane_opt
 ----------
 Symbolic Z-matrix:
 Charge =  0 Multiplicity = 1

                         Standard orientation:
 ---------------------------------------------------------------------
 Center     Atomic      Atomic             Coordinates (Angstroms)
 Number     Number       Type             X           Y           Z
 ---------------------------------------------------------------------
      1          6           0        2.009761   -0.184342    0.172132
      2          6           0        0.475479    0.597487   -0.294729
      3          1           0        2.606187    0.407850    0.567378
      4          1           0        2.640806   -0.754487   -0.746509
      5          1           0        1.464781   -0.607196    0.939631
      6          6           0       -0.607019   -0.449996   -0.142210
      7          1           0        0.252580    1.261332   -1.109644
      8          1           0        0.422564    1.154237    0.629987
      9          6           0       -1.853006    0.059912    0.174847
     10          1           0       -0.314123   -1.092306    0.570218
     11          1           0       -0.624987   -1.139103   -0.985735
     12          1           0       -1.765850    0.950444    1.217133
     13          1           0       -2.755799   -0.764229    0.137878
     14          1           0       -2.077443    0.445091   -0.680578
 ---------------------------------------------------------------------

 SCF Done:  E(RB2PLYPD3) =  -157.949653003     A.U. after   11 cycles
 E2(B2PLYPD3) =    -0.2509372986D+00 E(B2PLYPD3) =    -0.15820059030192D+03

 The electronic state is 1-A.
 Alpha  occ. eigenvalues --  -10.61569 -10.61279 -10.60953 -10.58175  -0.93694
 Alpha  occ. eigenvalues --   -0.83308  -0.74071  -0.67753  -0.55375  -0.51354
 Alpha  occ. eigenvalues --   -0.48594  -0.46601  -0.43166  -0.41940  -0.37392
 Alpha  occ. eigenvalues --   -0.37240  -0.34343
 Alpha virt. eigenvalues --    0.05235   0.06363   0.07630   0.08645   0.10730
 Alpha virt. eigenvalues --    0.11506   0.12441   0.12522   0.14475   0.15546
 Alpha virt. eigenvalues --    0.16355   0.16533   0.17224   0.19528   0.21264

 Mulliken charges:
               1
     1  C   -0.192096
     2  C   -0.131095
     3  H    0.083177
     4  H    0.048797
     5  H    0.073519
     6  C    0.000821
     7  H    0.060181
     8  H    0.046114
     9  C   -0.163164
    10  H    0.037419
    11  H    0.010269
    12  H    0.026705
    13  H    0.029195
    14  H    0.070157
 Sum of Mulliken charges =   0.00000

 Dipole moment (field-independent basis, Debye):
    X=              0.1220    Y=             -0.0009    Z=             -0.1105  Tot=              0.1646
 Quadrupole moment (field-independent basis, Debye-Ang):
   XX=            -29.8071   YY=            -29.5353   ZZ=            -28.1440
   XY=              0.8761   XZ=              1.3027   YZ=              0.5132

 Normal termination of Gaussian 09 at Wed Aug 26 15:05:18 2020.
