 Gaussian 09, Revision D.01,
 Gaussian 09:  ES64L-G09RevD.01 24-Apr-2013

 --------------------
 #p B2PLYPD3/Def2QZVP
 --------------------

 ----------
 butane_opt
 ----------
 Symbolic Z-matrix:
 Charge =  0 Multiplicity = 1

                         Standard orientation:
 ---------------------------------------------------------------------
 Center     Atomic      Atomic             Coordinates (Angstroms)
 Number     Number       Type             X           Y           Z
 ---------------------------------------------------------------------
      1          6           0       -2.041328   -0.185994    0.090727
      2          6           0       -0.508757    0.625182   -0.186070
      3          1           0       -2.706576    0.259267    0.511291
      4          1           0       -1.983312   -0.549853    0.718940
      5          1           0       -2.545005   -0.977882   -0.905991
      6          6           0        0.665277   -0.507577   -0.074109
      7          1           0       -0.604832    1.238917    0.793789
      8          1           0       -0.476962    1.538588   -1.154926
      9          6           0        1.965929    0.090248    0.063738
     10          1           0        0.672675   -0.968918   -0.890577
     11          1           0        0.490297   -1.301604    0.974098
     12          1           0        2.133597    0.422396   -0.573441
     13          1           0        2.790569   -0.740736   -0.150960
     14          1           0        1.742823    0.948667    1.312061
 ---------------------------------------------------------------------

 SCF Done:  E(RB2PLYPD3) =  -157.504012525     A.U. after   12 cycles
 E2(B2PLYPD3) =    -0.2539827033D+00 E(B2PLYPD3) =    -0.15775799522810D+03

 The electronic state is 1-A.
 Alpha  occ. eigenvalues --  -10.66501 -10.62347 -10.60833 -10.57876  -0.93265
 Alpha  occ. eigenvalues --   -0.89174  -0.76867  -0.67939  -0.55243  -0.49130
 Alpha  occ. eigenvalues --   -0.48229  -0.45855  -0.42955  -0.39591  -0.37052
 Alpha  occ. eigenvalues --   -0.36715  -0.35303
 Alpha virt. eigenvalues --    0.03164   0.05895   0.06556   0.07409   0.10099
 Alpha virt. eigenvalues --    0.10409   0.11744   0.12875   0.13077   0.14895
 Alpha virt. eigenvalues --    0.16135   0.16759   0.17611   0.18965   0.19360

 Mulliken charges:
               1
     1  C   -0.483998
     2  C   -0.076258
     3  H    0.062278
     4  H    0.369284
     5  H    0.029303
     6  C   -0.022184
     7  H    0.030195
     8  H    0.035636
     9  C   -0.457213
    10  H    0.087517
    11  H    0.016413
    12  H    0.345758
    13  H    0.040053
    14  H    0.023218
 Sum of Mulliken charges =   0.00000

 Dipole moment (field-independent basis, Debye):
    X=              0.0864    Y=             -0.0951    Z=             -0.1232  Tot=              0.1780
 Quadrupole moment (field-independent basis, Debye-Ang):
   XX=            -30.5811   YY=            -29.6592   ZZ=            -27.7015
   XY=             -0.9841   XZ=             -3.6146   YZ=              0.2839

 Normal termination of Gaussian 09 at Wed Aug 26 10:25:34 2020.
