 Gaussian 09, Revision D.01,
 Gaussian 09:  ES64L-G09RevD.01 24-Apr-2013

 --------------------
 #p B2PLYPD3/Def2QZVP
 --------------------

 ----------
 butane_opt
 ----------
 Symbolic Z-matrix:
 Charge =  0 Multiplicity = 1

                         Standard orientation:
 ---------------------------------------------------------------------
 Center     Atomic      Atomic             Coordinates (Angstroms)
 Number     Number       Type             X           Y           Z
 ---------------------------------------------------------------------
      1          6           0        1.885304   -0.059981    0.049016
      2          6           0        0.564755    0.488601    0.020260
      3          1           0        2.772977    0.788893   -0.640301
      4          1           0        1.634014   -0.408677   -0.694919
      5          1           0        2.112404   -1.068572    1.263845
      6          6           0       -0.459743   -0.610039   -0.012077
      7          1           0        0.308731    1.465541   -1.078472
      8          1           0        0.401051    0.900143    0.900179
      9          6           0       -1.910649    0.106356   -0.004588
     10          1           0       -0.343049   -1.004554    0.650049
     11          1           0       -0.263076   -1.318648   -1.007923
     12          1           0       -2.256314    1.268420    1.231314
     13          1           0       -2.686715   -0.533842   -0.402814
     14          1           0       -2.158025    0.361676   -0.536621
 ---------------------------------------------------------------------

 SCF Done:  E(RB2PLYPD3) =  -157.212918865     A.U. after   12 cycles
 E2(B2PLYPD3) =    -0.2598619965D+00 E(B2PLYPD3) =    -0.15747278086100D+03

 The electronic state is 1-A.
 Alpha  occ. eigenvalues --  -10.63590 -10.62974 -10.62215 -10.61232  -0.97040
 Alpha  occ. eigenvalues --   -0.91262  -0.81730  -0.68267  -0.56139  -0.50834
 Alpha  occ. eigenvalues --   -0.46670  -0.44634  -0.42826  -0.39094  -0.36855
 Alpha  occ. eigenvalues --   -0.35663  -0.34226
 Alpha virt. eigenvalues --    0.00803   0.01295   0.03401   0.06654   0.09489
 Alpha virt. eigenvalues --    0.09852   0.11484   0.12067   0.13615   0.14511
 Alpha virt. eigenvalues --    0.15972   0.17068   0.17659   0.19210   0.20353

 Mulliken charges:
               1
     1  C   -0.305784
     2  C   -0.048192
     3  H    0.034397
     4  H    0.212729
     5  H    0.036455
     6  C   -0.273663
     7  H   -0.002845
     8  H    0.082578
     9  C   -0.633974
    10  H    0.287690
    11  H    0.026137
    12  H    0.013972
    13  H    0.040463
    14  H    0.530039
 Sum of Mulliken charges =   0.00000

 Dipole moment (field-independent basis, Debye):
    X=             -0.3354    Y=             -0.4780    Z=             -0.6937  Tot=              0.9068
 Quadrupole moment (field-independent basis, Debye-Ang):
   XX=            -32.6007   YY=            -30.1145   ZZ=            -27.8787
   XY=             -0.1813   XZ=              1.6249   YZ=             -0.3422

 Normal termination of Gaussian 09 at Wed Aug 26 14:36:45 2020.
