 Gaussian 09, Revision D.01,
 Gaussian 09:  ES64L-G09RevD.01 24-Apr-2013

 --------------------
 #p B2PLYPD3/Def2QZVP
 --------------------

 ----------
 butane_opt
 ----------
 Symbolic Z-matrix:
 Charge =  0 Multiplicity = 1

                         Standard orientation:
 ---------------------------------------------------------------------
 Center     Atomic      Atomic             Coordinates (Angstroms)
 Number     Number       Type             X           Y           Z
 ---------------------------------------------------------------------
      1          6           0        1.918651    0.024313   -0.190319
      2          6           0        0.518405   -0.475249    0.226453
      3          1           0        2.624503   -0.800282   -0.477630
      4          1           0        2.477623    1.073413    0.802449
      5          1           0        1.479118    0.596832   -1.029962
      6          6           0       -0.459543    0.609275    0.149349
      7          1           0        0.621618   -1.266414    1.471037
      8          1           0        0.274906   -1.044569   -0.584270
      9          6           0       -1.916586   -0.162733   -0.111497
     10          1           0       -0.192497    1.341149   -0.892289
     11          1           0       -0.703647    1.105561    0.834397
     12          1           0       -2.016720   -1.177575   -1.079957
     13          1           0       -2.663555    0.630271   -0.125937
     14          1           0       -2.266912   -0.432023    0.638245
 ---------------------------------------------------------------------

 SCF Done:  E(RB2PLYPD3) =  -157.813488865     A.U. after   11 cycles
 E2(B2PLYPD3) =    -0.2552251528D+00 E(B2PLYPD3) =    -0.15806871401767D+03

 The electronic state is 1-A.
 Alpha  occ. eigenvalues --  -10.64728 -10.63883 -10.62305 -10.61122  -0.93083
 Alpha  occ. eigenvalues --   -0.83906  -0.74673  -0.66916  -0.54104  -0.51307
 Alpha  occ. eigenvalues --   -0.47508  -0.45389  -0.41535  -0.40579  -0.37445
 Alpha  occ. eigenvalues --   -0.35619  -0.34972
 Alpha virt. eigenvalues --    0.03884   0.05044   0.05439   0.07993   0.09526
 Alpha virt. eigenvalues --    0.10588   0.11333   0.13172   0.13398   0.14597
 Alpha virt. eigenvalues --    0.15833   0.16107   0.18295   0.19475   0.20343

 Mulliken charges:
               1
     1  C   -0.162094
     2  C   -0.075866
     3  H    0.072209
     4  H   -0.005892
     5  H    0.069776
     6  C   -0.093153
     7  H   -0.007036
     8  H    0.112731
     9  C   -0.208463
    10  H    0.005532
    11  H    0.118112
    12  H    0.025587
    13  H    0.027288
    14  H    0.121269
 Sum of Mulliken charges =   0.00000

 Dipole moment (field-independent basis, Debye):
    X=             -0.5824    Y=             -0.0430    Z=             -0.0962  Tot=              0.5919
 Quadrupole moment (field-independent basis, Debye-Ang):
   XX=            -31.3426   YY=            -29.6240   ZZ=            -29.2978
   XY=             -1.6931   XZ=             -1.9015   YZ=              1.1617

 Normal termination of Gaussian 09 at Wed Aug 26 19:52:09 2020.
