 Gaussian 09, Revision D.01,
 Gaussian 09:  ES64L-G09RevD.01 24-Apr-2013

 --------------------
 #p B2PLYPD3/Def2QZVP
 --------------------

 ----------
 butane_opt
 ----------
 Symbolic Z-matrix:
 Charge =  0 Multiplicity = 1

                         Standard orientation:
 ---------------------------------------------------------------------
 Center     Atomic      Atomic             Coordinates (Angstroms)
 Number     Number       Type             X           Y           Z
 ---------------------------------------------------------------------
      1          6           0        1.893423    0.118490   -0.110138
      2          6           0        0.519711   -0.530262    0.064736
      3          1           0        2.748791   -0.649476    0.026893
      4          1           0        2.221372    0.557330    0.741183
      5          1           0        2.033848    0.809996   -1.019053
      6          6           0       -0.521937    0.552673    0.151141
      7          1           0        0.543841   -1.197626    0.996857
      8          1           0        0.514779   -0.993548   -0.727755
      9          6           0       -1.949436   -0.124034   -0.079442
     10          1           0       -0.341459    1.162908   -0.679669
     11          1           0       -0.409408    1.164752    1.065359
     12          1           0       -1.887826   -0.854854   -1.053929
     13          1           0       -2.781138    0.657701   -0.249629
     14          1           0       -2.293366   -0.758385    0.741963
 ---------------------------------------------------------------------

 SCF Done:  E(RB2PLYPD3) =  -158.057919571     A.U. after   11 cycles
 E2(B2PLYPD3) =    -0.2475669471D+00 E(B2PLYPD3) =    -0.15830548651797D+03

 The electronic state is 1-A.
 Alpha  occ. eigenvalues --  -10.62136 -10.60632 -10.59732 -10.58860  -0.91872
 Alpha  occ. eigenvalues --   -0.81984  -0.72507  -0.68080  -0.55538  -0.48413
 Alpha  occ. eigenvalues --   -0.48349  -0.46573  -0.42617  -0.40475  -0.39377
 Alpha  occ. eigenvalues --   -0.38387  -0.36257
 Alpha virt. eigenvalues --    0.05744   0.06594   0.08273   0.08798   0.10765
 Alpha virt. eigenvalues --    0.12008   0.12600   0.13943   0.14297   0.15510
 Alpha virt. eigenvalues --    0.15729   0.16400   0.19565   0.19787   0.21917

 Mulliken charges:
               1
     1  C   -0.140245
     2  C   -0.091888
     3  H    0.017999
     4  H    0.036964
     5  H    0.042614
     6  C   -0.053806
     7  H    0.023331
     8  H    0.108022
     9  C   -0.159574
    10  H    0.048802
    11  H    0.044087
    12  H    0.031533
    13  H    0.040886
    14  H    0.051275
 Sum of Mulliken charges =   0.00000

 Dipole moment (field-independent basis, Debye):
    X=              0.1086    Y=              0.0711    Z=              0.1427  Tot=              0.1930
 Quadrupole moment (field-independent basis, Debye-Ang):
   XX=            -30.1676   YY=            -29.0775   ZZ=            -27.9662
   XY=             -0.1050   XZ=              0.2236   YZ=             -0.3466

 Normal termination of Gaussian 09 at Wed Aug 26 10:50:16 2020.
