 Gaussian 09, Revision D.01,
 Gaussian 09:  ES64L-G09RevD.01 24-Apr-2013

 --------------------
 #p B2PLYPD3/Def2QZVP
 --------------------

 ----------
 butane_opt
 ----------
 Symbolic Z-matrix:
 Charge =  0 Multiplicity = 1

                         Standard orientation:
 ---------------------------------------------------------------------
 Center     Atomic      Atomic             Coordinates (Angstroms)
 Number     Number       Type             X           Y           Z
 ---------------------------------------------------------------------
      1          6           0       -2.033934   -0.182772   -0.143609
      2          6           0       -0.519117    0.541664    0.175324
      3          1           0       -2.847299    0.742066   -0.211947
      4          1           0       -2.242068   -0.577729    0.595953
      5          1           0       -2.013879   -1.149881   -1.136769
      6          6           0        0.652699   -0.481313    0.236277
      7          1           0       -0.740429    1.238440    1.066905
      8          1           0       -0.274118    1.106525   -0.746761
      9          6           0        1.959903    0.072013   -0.217170
     10          1           0        0.461443   -0.689889   -0.274403
     11          1           0        0.751872   -1.367281    1.333401
     12          1           0        1.474706    0.562790   -1.114292
     13          1           0        2.754734   -0.641866   -0.471650
     14          1           0        2.317728    1.079277    0.654633
 ---------------------------------------------------------------------

 SCF Done:  E(RB2PLYPD3) =  -157.392116520     A.U. after   11 cycles
 E2(B2PLYPD3) =    -0.2533422253D+00 E(B2PLYPD3) =    -0.15764545874575D+03

 The electronic state is 1-A.
 Alpha  occ. eigenvalues --  -10.63812 -10.63590 -10.63038 -10.60843  -0.97003
 Alpha  occ. eigenvalues --   -0.82891  -0.74025  -0.69177  -0.53939  -0.50871
 Alpha  occ. eigenvalues --   -0.47518  -0.46022  -0.42045  -0.40189  -0.37888
 Alpha  occ. eigenvalues --   -0.37665  -0.35735
 Alpha virt. eigenvalues --    0.04872   0.05667   0.06668   0.08190   0.10683
 Alpha virt. eigenvalues --    0.10824   0.11723   0.12444   0.13458   0.14128
 Alpha virt. eigenvalues --    0.15879   0.16395   0.18103   0.19130   0.20662

 Mulliken charges:
               1
     1  C   -0.278992
     2  C   -0.013988
     3  H    0.045589
     4  H    0.172417
     5  H    0.025882
     6  C   -0.923511
     7  H    0.041894
     8  H    0.048420
     9  C   -0.111987
    10  H    0.825667
    11  H    0.025846
    12  H    0.043155
    13  H    0.076564
    14  H    0.023045
 Sum of Mulliken charges =   0.00000

 Dipole moment (field-independent basis, Debye):
    X=             -0.1920    Y=             -0.1127    Z=             -0.1126  Tot=              0.2495
 Quadrupole moment (field-independent basis, Debye-Ang):
   XX=            -30.1813   YY=            -29.3762   ZZ=            -28.9077
   XY=             -1.5993   XZ=             -1.3116   YZ=              0.5928

 Normal termination of Gaussian 09 at Wed Aug 26 22:50:18 2020.
