 Gaussian 09, Revision D.01,
 Gaussian 09:  ES64L-G09RevD.01 24-Apr-2013

 --------------------
 #p B2PLYPD3/Def2QZVP
 --------------------

 ----------
 butane_opt
 ----------
 Symbolic Z-matrix:
 Charge =  0 Multiplicity = 1

                         Standard orientation:
 ---------------------------------------------------------------------
 Center     Atomic      Atomic             Coordinates (Angstroms)
 Number     Number       Type             X           Y           Z
 ---------------------------------------------------------------------
      1          6           0       -1.947159   -0.089371    0.023960
      2          6           0       -0.585072    0.483742   -0.033740
      3          1           0       -2.715011    0.772419   -0.219457
      4          1           0       -2.159434   -0.876245    1.086795
      5          1           0       -1.967601   -0.523909   -0.656354
      6          6           0        0.488868   -0.584712   -0.047098
      7          1           0       -0.559846    1.088655    0.756510
      8          1           0       -0.393318    1.269755   -1.033757
      9          6           0        1.960895    0.123014    0.036295
     10          1           0        0.465701   -1.152770   -0.904709
     11          1           0        0.506750   -1.276689    0.942535
     12          1           0        2.270072    0.489374   -0.635948
     13          1           0        2.678827   -0.564825   -0.418288
     14          1           0        2.368661    1.178197    1.206164
 ---------------------------------------------------------------------

 SCF Done:  E(RB2PLYPD3) =  -157.754235207     A.U. after   11 cycles
 E2(B2PLYPD3) =    -0.2524075428D+00 E(B2PLYPD3) =    -0.15800664275004D+03

 The electronic state is 1-A.
 Alpha  occ. eigenvalues --  -10.63149 -10.61684 -10.61111 -10.59562  -0.92604
 Alpha  occ. eigenvalues --   -0.86393  -0.77007  -0.68529  -0.53511  -0.50253
 Alpha  occ. eigenvalues --   -0.49351  -0.44502  -0.41530  -0.39763  -0.38604
 Alpha  occ. eigenvalues --   -0.36990  -0.34738
 Alpha virt. eigenvalues --    0.02712   0.05657   0.06723   0.07364   0.10103
 Alpha virt. eigenvalues --    0.10735   0.11882   0.12582   0.13797   0.15742
 Alpha virt. eigenvalues --    0.15908   0.16459   0.18438   0.19651   0.20849

 Mulliken charges:
               1
     1  C   -0.343104
     2  C   -0.022040
     3  H    0.043867
     4  H    0.035965
     5  H    0.228232
     6  C   -0.042478
     7  H    0.072218
     8  H   -0.002680
     9  C   -0.303869
    10  H    0.056688
    11  H    0.039199
    12  H    0.197432
    13  H    0.021083
    14  H    0.019487
 Sum of Mulliken charges =   0.00000

 Dipole moment (field-independent basis, Debye):
    X=             -0.0834    Y=             -0.1769    Z=             -0.9308  Tot=              0.9511
 Quadrupole moment (field-independent basis, Debye-Ang):
   XX=            -31.1060   YY=            -29.2285   ZZ=            -28.1970
   XY=             -0.1234   XZ=             -1.7090   YZ=              0.5588

 Normal termination of Gaussian 09 at Wed Aug 26 21:12:13 2020.
