 Gaussian 09, Revision D.01,
 Gaussian 09:  ES64L-G09RevD.01 24-Apr-2013

 --------------------
 #p B2PLYPD3/Def2QZVP
 --------------------

 ----------
 butane_opt
 ----------
 Symbolic Z-matrix:
 Charge =  0 Multiplicity = 1

                         Standard orientation:
 ---------------------------------------------------------------------
 Center     Atomic      Atomic             Coordinates (Angstroms)
 Number     Number       Type             X           Y           Z
 ---------------------------------------------------------------------
      1          6           0       -1.924204   -0.164917    0.153047
      2          6           0       -0.543593    0.590896   -0.181860
      3          1           0       -2.730049    0.549084    0.552743
      4          1           0       -1.687311   -0.885730    1.012527
      5          1           0       -2.659118   -0.991002   -0.972827
      6          6           0        0.566814   -0.397727   -0.203481
      7          1           0       -0.151652    1.005925    0.655789
      8          1           0       -0.392387    1.644667   -1.112105
      9          6           0        1.901194    0.106976    0.111481
     10          1           0        0.633837   -0.940548   -0.973169
     11          1           0        0.201950   -1.348403    0.705705
     12          1           0        2.200633    0.268430   -0.416380
     13          1           0        2.828587   -1.116819    0.042803
     14          1           0        1.754245    1.003028    1.229798
 ---------------------------------------------------------------------

 SCF Done:  E(RB2PLYPD3) =  -157.440763680     A.U. after   12 cycles
 E2(B2PLYPD3) =    -0.2588743855D+00 E(B2PLYPD3) =    -0.15769963806539D+03

 The electronic state is 1-A.
 Alpha  occ. eigenvalues --  -10.67014 -10.64555 -10.63992 -10.61842  -0.95233
 Alpha  occ. eigenvalues --   -0.85897  -0.74869  -0.67919  -0.56969  -0.50295
 Alpha  occ. eigenvalues --   -0.45879  -0.45209  -0.41217  -0.40472  -0.37751
 Alpha  occ. eigenvalues --   -0.35758  -0.33882
 Alpha virt. eigenvalues --    0.01690   0.03556   0.04943   0.06259   0.09554
 Alpha virt. eigenvalues --    0.09750   0.11244   0.12159   0.13885   0.14043
 Alpha virt. eigenvalues --    0.15527   0.15617   0.17272   0.19006   0.20405

 Mulliken charges:
               1
     1  C   -0.160734
     2  C   -0.079740
     3  H    0.057625
     4  H    0.075031
     5  H    0.010532
     6  C    0.048450
     7  H    0.089596
     8  H    0.013467
     9  C   -0.712670
    10  H    0.066308
    11  H   -0.006600
    12  H    0.554434
    13  H   -0.005921
    14  H    0.050222
 Sum of Mulliken charges =   0.00000

 Dipole moment (field-independent basis, Debye):
    X=             -0.0381    Y=              0.4703    Z=              0.0524  Tot=              0.4748
 Quadrupole moment (field-independent basis, Debye-Ang):
   XX=            -32.5177   YY=            -30.0467   ZZ=            -29.3385
   XY=              0.4004   XZ=             -2.4366   YZ=              0.6167

 Normal termination of Gaussian 09 at Wed Aug 26 12:53:12 2020.
