 Gaussian 09, Revision D.01,
 Gaussian 09:  ES64L-G09RevD.01 24-Apr-2013

 --------------------
 #p B2PLYPD3/Def2QZVP
 --------------------

 ----------
 butane_opt
 ----------
 Symbolic Z-matrix:
 Charge =  0 Multiplicity = 1

                         Standard orientation:
 ---------------------------------------------------------------------
 Center     Atomic      Atomic             Coordinates (Angstroms)
 Number     Number       Type             X           Y           Z
 ---------------------------------------------------------------------
      1          6           0       -2.017798    0.158247   -0.126078
      2          6           0       -0.463380   -0.544345    0.041410
      3          1           0       -2.779315   -0.612220    0.496676
      4          1           0       -2.415575    1.213286   -1.093907
      5          1           0       -1.948598    0.256295    0.435978
      6          6           0        0.591529    0.400209    0.174530
      7          1           0       -0.422678   -0.987018   -0.783372
      8          1           0       -0.337562   -1.335896    1.050674
      9          6           0        1.888432   -0.068613   -0.177591
     10          1           0        0.739107    1.392497    1.518338
     11          1           0        0.396467    1.005143   -0.508708
     12          1           0        2.030753   -0.683939    0.569159
     13          1           0        2.636916    0.784183   -0.079272
     14          1           0        2.107787   -0.705323   -1.079189
 ---------------------------------------------------------------------

 SCF Done:  E(RB2PLYPD3) =  -157.240335813     A.U. after   12 cycles
 E2(B2PLYPD3) =    -0.2566752879D+00 E(B2PLYPD3) =    -0.15749701110045D+03

 The electronic state is 1-A.
 Alpha  occ. eigenvalues --  -10.62849 -10.62677 -10.62492 -10.59363  -0.96233
 Alpha  occ. eigenvalues --   -0.89841  -0.78429  -0.67889  -0.56414  -0.50342
 Alpha  occ. eigenvalues --   -0.48621  -0.47019  -0.43329  -0.40169  -0.38021
 Alpha  occ. eigenvalues --   -0.34984  -0.33482
 Alpha virt. eigenvalues --    0.02270   0.03278   0.06132   0.06906   0.09950
 Alpha virt. eigenvalues --    0.10562   0.11790   0.12417   0.13802   0.15194
 Alpha virt. eigenvalues --    0.15702   0.16351   0.17485   0.18649   0.20605

 Mulliken charges:
               1
     1  C   -0.973805
     2  C   -0.081042
     3  H    0.048057
     4  H    0.089485
     5  H    0.797754
     6  C   -0.073018
     7  H    0.104130
     8  H    0.018411
     9  C   -0.145492
    10  H   -0.047897
    11  H    0.104364
    12  H    0.065829
    13  H    0.052809
    14  H    0.040415
 Sum of Mulliken charges =   0.00000

 Dipole moment (field-independent basis, Debye):
    X=              0.3354    Y=             -0.1143    Z=             -0.4869  Tot=              0.6022
 Quadrupole moment (field-independent basis, Debye-Ang):
   XX=            -30.3343   YY=            -29.5514   ZZ=            -28.5342
   XY=             -1.2817   XZ=             -1.0254   YZ=             -1.6085

 Normal termination of Gaussian 09 at Wed Aug 26 15:27:31 2020.
