 Gaussian 09, Revision D.01,
 Gaussian 09:  ES64L-G09RevD.01 24-Apr-2013

 --------------------
 #p B2PLYPD3/Def2QZVP
 --------------------

 ----------
 butane_opt
 ----------
 Symbolic Z-matrix:
 Charge =  0 Multiplicity = 1

                         Standard orientation:
 ---------------------------------------------------------------------
 Center     Atomic      Atomic             Coordinates (Angstroms)
 Number     Number       Type             X           Y           Z
 ---------------------------------------------------------------------
      1          6           0        1.978998   -0.112233   -0.190305
      2          6           0        0.666374    0.481764    0.226539
      3          1           0        2.657712    0.661016    0.082796
      4          1           0        1.936962   -0.596453   -0.978524
      5          1           0        2.164799   -0.650491    0.460400
      6          6           0       -0.574984   -0.554819   -0.036483
      7          1           0        0.368825    0.850905   -0.372739
      8          1           0        0.515027    1.331360    1.376126
      9          6           0       -1.958689    0.139868   -0.088070
     10          1           0       -0.710914   -1.388683    0.914116
     11          1           0       -0.278086   -0.837428   -0.782828
     12          1           0       -1.962680    0.087110    0.477565
     13          1           0       -2.718233   -0.659179    0.542851
     14          1           0       -2.643604    1.474367   -1.189848
 ---------------------------------------------------------------------

 SCF Done:  E(RB2PLYPD3) =  -156.940439578     A.U. after   14 cycles
 E2(B2PLYPD3) =    -0.2590733509D+00 E(B2PLYPD3) =    -0.15719951292882D+03

 The electronic state is 1-A.
 Alpha  occ. eigenvalues --  -10.64176 -10.62234 -10.60123 -10.55750  -0.97629
 Alpha  occ. eigenvalues --   -0.92125  -0.81304  -0.71452  -0.56388  -0.51139
 Alpha  occ. eigenvalues --   -0.49169  -0.47810  -0.42752  -0.39732  -0.39266
 Alpha  occ. eigenvalues --   -0.36709  -0.30774
 Alpha virt. eigenvalues --   -0.02378   0.03838   0.06462   0.07255   0.10132
 Alpha virt. eigenvalues --    0.11049   0.12349   0.12978   0.14875   0.15227
 Alpha virt. eigenvalues --    0.15921   0.16614   0.17872   0.18469   0.19716

 Mulliken charges:
               1
     1  C   -0.185965
     2  C   -0.441588
     3  H    0.056318
     4  H    0.051388
     5  H    0.119928
     6  C   -0.143836
     7  H    0.409866
     8  H    0.010863
     9  C   -0.983915
    10  H    0.010363
    11  H    0.186826
    12  H    0.817877
    13  H    0.029738
    14  H    0.062135
 Sum of Mulliken charges =   0.00000

 Dipole moment (field-independent basis, Debye):
    X=              0.5925    Y=             -0.1886    Z=              0.2279  Tot=              0.6622
 Quadrupole moment (field-independent basis, Debye-Ang):
   XX=            -30.2286   YY=            -29.1801   ZZ=            -27.5192
   XY=             -1.1955   XZ=             -1.2836   YZ=             -1.1724

 Normal termination of Gaussian 09 at Wed Aug 26 09:42:38 2020.
