 Gaussian 09, Revision D.01,
 Gaussian 09:  ES64L-G09RevD.01 24-Apr-2013

 --------------------
 #p B2PLYPD3/Def2QZVP
 --------------------

 ----------
 butane_opt
 ----------
 Symbolic Z-matrix:
 Charge =  0 Multiplicity = 1

                         Standard orientation:
 ---------------------------------------------------------------------
 Center     Atomic      Atomic             Coordinates (Angstroms)
 Number     Number       Type             X           Y           Z
 ---------------------------------------------------------------------
      1          6           0       -1.867365    0.064096   -0.133698
      2          6           0       -0.578438   -0.413733    0.225655
      3          1           0       -2.780425   -0.870066   -0.788987
      4          1           0       -1.475304    0.393895   -0.915136
      5          1           0       -2.378521    1.224798    0.911929
      6          6           0        0.451330    0.516793    0.098291
      7          1           0       -0.248924   -1.079147   -0.452898
      8          1           0       -0.566875   -1.234727    1.425646
      9          6           0        1.999814   -0.122820   -0.120035
     10          1           0        0.619494    1.077402    0.798582
     11          1           0        0.096636    1.286543   -0.936246
     12          1           0        2.242789   -0.629886    0.741492
     13          1           0        2.824689    0.667655   -0.266130
     14          1           0        1.634398   -1.102489   -0.939531
 ---------------------------------------------------------------------

 SCF Done:  E(RB2PLYPD3) =  -157.772230046     A.U. after   12 cycles
 E2(B2PLYPD3) =    -0.2588437397D+00 E(B2PLYPD3) =    -0.15803107378520D+03

 The electronic state is 1-A.
 Alpha  occ. eigenvalues --  -10.65912 -10.64207 -10.62962 -10.62186  -0.96945
 Alpha  occ. eigenvalues --   -0.83737  -0.73428  -0.67392  -0.55404  -0.50370
 Alpha  occ. eigenvalues --   -0.48691  -0.45336  -0.43273  -0.38951  -0.36508
 Alpha  occ. eigenvalues --   -0.35767  -0.34113
 Alpha virt. eigenvalues --    0.01094   0.04858   0.05127   0.06395   0.09438
 Alpha virt. eigenvalues --    0.10051   0.11262   0.12403   0.13496   0.14075
 Alpha virt. eigenvalues --    0.16127   0.16311   0.17717   0.19065   0.19634

 Mulliken charges:
               1
     1  C   -0.210880
     2  C   -0.035936
     3  H    0.032197
     4  H    0.135527
     5  H    0.019416
     6  C   -0.079963
     7  H    0.083791
     8  H   -0.027188
     9  C   -0.164480
    10  H    0.094304
    11  H   -0.007937
    12  H    0.082309
    13  H    0.065678
    14  H    0.013162
 Sum of Mulliken charges =   0.00000

 Dipole moment (field-independent basis, Debye):
    X=              0.8150    Y=              0.1900    Z=             -0.2458  Tot=              0.8722
 Quadrupole moment (field-independent basis, Debye-Ang):
   XX=            -31.7314   YY=            -30.2008   ZZ=            -29.9098
   XY=              1.2267   XZ=              2.0674   YZ=              1.2190

 Normal termination of Gaussian 09 at Wed Aug 26 16:01:56 2020.
