 Gaussian 09, Revision D.01,
 Gaussian 09:  ES64L-G09RevD.01 24-Apr-2013

 --------------------
 #p B2PLYPD3/Def2QZVP
 --------------------

 ----------
 butane_opt
 ----------
 Symbolic Z-matrix:
 Charge =  0 Multiplicity = 1

                         Standard orientation:
 ---------------------------------------------------------------------
 Center     Atomic      Atomic             Coordinates (Angstroms)
 Number     Number       Type             X           Y           Z
 ---------------------------------------------------------------------
      1          6           0        1.939867   -0.169378    0.078777
      2          6           0        0.573772    0.519267   -0.062265
      3          1           0        2.735152    0.599912    0.133390
      4          1           0        1.998510   -0.470976   -0.700246
      5          1           0        2.017150   -0.891572    1.048621
      6          6           0       -0.575269   -0.478268   -0.178219
      7          1           0        0.449889    1.309841   -0.955107
      8          1           0        0.223097    1.010121    0.733406
      9          6           0       -1.906155    0.104266    0.096609
     10          1           0       -0.534225   -1.132359    0.568472
     11          1           0       -0.419816   -1.110039   -1.095967
     12          1           0       -1.803687    0.760752    1.120034
     13          1           0       -2.748977   -0.714869    0.217017
     14          1           0       -2.110387    0.783871   -0.679036
 ---------------------------------------------------------------------

 SCF Done:  E(RB2PLYPD3) =  -157.998816914     A.U. after   11 cycles
 E2(B2PLYPD3) =    -0.2475278733D+00 E(B2PLYPD3) =    -0.15824634478684D+03

 The electronic state is 1-A.
 Alpha  occ. eigenvalues --  -10.61427 -10.60200 -10.58783 -10.58750  -0.92685
 Alpha  occ. eigenvalues --   -0.84932  -0.73368  -0.67145  -0.55286  -0.49986
 Alpha  occ. eigenvalues --   -0.48675  -0.48217  -0.42016  -0.41374  -0.39816
 Alpha  occ. eigenvalues --   -0.37555  -0.36388
 Alpha virt. eigenvalues --    0.05754   0.06774   0.08081   0.08470   0.10937
 Alpha virt. eigenvalues --    0.12009   0.12825   0.14147   0.14298   0.15557
 Alpha virt. eigenvalues --    0.16052   0.16240   0.19435   0.19650   0.22128

 Mulliken charges:
               1
     1  C   -0.272587
     2  C   -0.061356
     3  H    0.039182
     4  H    0.176761
     5  H    0.051067
     6  C   -0.025415
     7  H    0.007624
     8  H    0.057171
     9  C   -0.157276
    10  H    0.044667
    11  H    0.009391
    12  H    0.026821
    13  H    0.048307
    14  H    0.055643
 Sum of Mulliken charges =   0.00000

 Dipole moment (field-independent basis, Debye):
    X=              0.0905    Y=             -0.1256    Z=              0.0128  Tot=              0.1553
 Quadrupole moment (field-independent basis, Debye-Ang):
   XX=            -29.8085   YY=            -29.0548   ZZ=            -28.1081
   XY=              0.4301   XZ=             -0.2151   YZ=             -0.4174

 Normal termination of Gaussian 09 at Wed Aug 26 10:27:40 2020.
