 Gaussian 09, Revision D.01,
 Gaussian 09:  ES64L-G09RevD.01 24-Apr-2013

 --------------------
 #p B2PLYPD3/Def2QZVP
 --------------------

 ----------
 butane_opt
 ----------
 Symbolic Z-matrix:
 Charge =  0 Multiplicity = 1

                         Standard orientation:
 ---------------------------------------------------------------------
 Center     Atomic      Atomic             Coordinates (Angstroms)
 Number     Number       Type             X           Y           Z
 ---------------------------------------------------------------------
      1          6           0        1.876809   -0.011596   -0.013234
      2          6           0        0.515351   -0.417056   -0.092373
      3          1           0        2.720385   -0.757246    0.624358
      4          1           0        1.498424    0.298112    0.695997
      5          1           0        2.327603    1.125552   -1.129339
      6          6           0       -0.446781    0.556816    0.027831
      7          1           0        0.533532   -1.137529    0.755791
      8          1           0        0.401586   -1.035929   -0.884481
      9          6           0       -1.912282   -0.127231    0.015385
     10          1           0       -0.518699    1.249040   -0.725326
     11          1           0       -0.238676    1.460120    1.233421
     12          1           0       -2.189816   -0.952064   -0.947920
     13          1           0       -2.541706    0.511488   -0.042302
     14          1           0       -2.191217   -0.767142    0.794139
 ---------------------------------------------------------------------

 SCF Done:  E(RB2PLYPD3) =  -157.757330246     A.U. after   11 cycles
 E2(B2PLYPD3) =    -0.2554555294D+00 E(B2PLYPD3) =    -0.15801278577567D+03

 The electronic state is 1-A.
 Alpha  occ. eigenvalues --  -10.64662 -10.62407 -10.60672 -10.60546  -0.98854
 Alpha  occ. eigenvalues --   -0.86203  -0.75839  -0.67424  -0.56952  -0.51579
 Alpha  occ. eigenvalues --   -0.50332  -0.45706  -0.43571  -0.40307  -0.37298
 Alpha  occ. eigenvalues --   -0.35257  -0.33881
 Alpha virt. eigenvalues --    0.02752   0.04524   0.05600   0.06575   0.09907
 Alpha virt. eigenvalues --    0.10359   0.12174   0.13030   0.13585   0.14680
 Alpha virt. eigenvalues --    0.16190   0.16492   0.18709   0.19446   0.20864

 Mulliken charges:
               1
     1  C   -0.305351
     2  C   -0.001570
     3  H    0.048677
     4  H    0.191594
     5  H   -0.010517
     6  C   -0.048813
     7  H    0.032634
     8  H    0.055237
     9  C   -0.161932
    10  H    0.068369
    11  H   -0.025314
    12  H    0.008803
    13  H    0.102067
    14  H    0.046114
 Sum of Mulliken charges =   0.00000

 Dipole moment (field-independent basis, Debye):
    X=             -0.9997    Y=             -0.5516    Z=              0.3301  Tot=              1.1886
 Quadrupole moment (field-independent basis, Debye-Ang):
   XX=            -31.4073   YY=            -29.4352   ZZ=            -29.2499
   XY=             -1.2342   XZ=              1.3103   YZ=             -1.2976

 Normal termination of Gaussian 09 at Wed Aug 26 15:52:23 2020.
