 Gaussian 09, Revision D.01,
 Gaussian 09:  ES64L-G09RevD.01 24-Apr-2013

 --------------------
 #p B2PLYPD3/Def2QZVP
 --------------------

 ----------
 butane_opt
 ----------
 Symbolic Z-matrix:
 Charge =  0 Multiplicity = 1

                         Standard orientation:
 ---------------------------------------------------------------------
 Center     Atomic      Atomic             Coordinates (Angstroms)
 Number     Number       Type             X           Y           Z
 ---------------------------------------------------------------------
      1          6           0        1.896600    0.021872   -0.280766
      2          6           0        0.693432   -0.417934    0.280080
      3          1           0        2.475412   -0.645535   -0.539686
      4          1           0        2.597763    0.992730    0.744716
      5          1           0        1.625429    0.346694   -1.005167
      6          6           0       -0.534404    0.615061    0.090062
      7          1           0        0.802182   -1.369993    1.535615
      8          1           0        0.270207   -1.027247   -0.386823
      9          6           0       -2.051779   -0.148633   -0.134301
     10          1           0       -0.342451    0.882616   -0.741501
     11          1           0       -0.476330    1.660344    1.025085
     12          1           0       -2.122138   -0.928054   -0.909325
     13          1           0       -2.630180    0.377757   -0.227896
     14          1           0       -2.222982   -0.711512    0.774527
 ---------------------------------------------------------------------

 SCF Done:  E(RB2PLYPD3) =  -157.669449225     A.U. after   11 cycles
 E2(B2PLYPD3) =    -0.2526210552D+00 E(B2PLYPD3) =    -0.15792207028061D+03

 The electronic state is 1-A.
 Alpha  occ. eigenvalues --  -10.64129 -10.64053 -10.59681 -10.58589  -0.95397
 Alpha  occ. eigenvalues --   -0.86643  -0.78134  -0.67538  -0.54982  -0.54235
 Alpha  occ. eigenvalues --   -0.51848  -0.49153  -0.43166  -0.39572  -0.39131
 Alpha  occ. eigenvalues --   -0.35581  -0.33298
 Alpha virt. eigenvalues --    0.03143   0.06181   0.06479   0.07205   0.08536
 Alpha virt. eigenvalues --    0.11072   0.11899   0.13330   0.13857   0.14972
 Alpha virt. eigenvalues --    0.16181   0.16909   0.18393   0.19297   0.19795

 Mulliken charges:
               1
     1  C   -0.236255
     2  C   -0.064380
     3  H    0.069800
     4  H   -0.008989
     5  H    0.162964
     6  C   -0.192464
     7  H   -0.023872
     8  H    0.087535
     9  C   -0.321097
    10  H    0.172597
    11  H    0.019455
    12  H    0.031603
    13  H    0.238600
    14  H    0.064504
 Sum of Mulliken charges =   0.00000

 Dipole moment (field-independent basis, Debye):
    X=             -0.5726    Y=             -0.3707    Z=             -1.4085  Tot=              1.5650
 Quadrupole moment (field-independent basis, Debye-Ang):
   XX=            -29.6051   YY=            -29.9314   ZZ=            -28.7489
   XY=             -0.8373   XZ=             -0.7691   YZ=              0.8323

 Normal termination of Gaussian 09 at Wed Aug 26 12:34:03 2020.
