 Gaussian 09, Revision D.01,
 Gaussian 09:  ES64L-G09RevD.01 24-Apr-2013

 --------------------
 #p B2PLYPD3/Def2QZVP
 --------------------

 ----------
 butane_opt
 ----------
 Symbolic Z-matrix:
 Charge =  0 Multiplicity = 1

                         Standard orientation:
 ---------------------------------------------------------------------
 Center     Atomic      Atomic             Coordinates (Angstroms)
 Number     Number       Type             X           Y           Z
 ---------------------------------------------------------------------
      1          6           0        1.941213    0.079609    0.198323
      2          6           0        0.589991   -0.494941   -0.370081
      3          1           0        2.766093   -0.963501    0.458160
      4          1           0        1.688204    0.457461    1.189061
      5          1           0        2.533582    0.797739   -0.510077
      6          6           0       -0.517133    0.621731   -0.086005
      7          1           0        0.474102   -0.981190    0.258957
      8          1           0        0.537637   -1.063129   -1.289134
      9          6           0       -2.000033   -0.133431    0.181210
     10          1           0       -0.620119    1.371734   -0.885222
     11          1           0       -0.117225    1.246777    0.877333
     12          1           0       -2.270793   -0.378656   -0.642657
     13          1           0       -2.629780    0.350501   -0.235867
     14          1           0       -2.445932   -1.275545    1.238761
 ---------------------------------------------------------------------

 SCF Done:  E(RB2PLYPD3) =  -157.727065822     A.U. after   11 cycles
 E2(B2PLYPD3) =    -0.2539913824D+00 E(B2PLYPD3) =    -0.15798105720400D+03

 The electronic state is 1-A.
 Alpha  occ. eigenvalues --  -10.64645 -10.63601 -10.61030 -10.58039  -0.92945
 Alpha  occ. eigenvalues --   -0.88938  -0.74027  -0.69364  -0.54630  -0.47918
 Alpha  occ. eigenvalues --   -0.46167  -0.44305  -0.42773  -0.39871  -0.37782
 Alpha  occ. eigenvalues --   -0.37071  -0.34120
 Alpha virt. eigenvalues --    0.02450   0.05453   0.07114   0.08159   0.10550
 Alpha virt. eigenvalues --    0.10884   0.11317   0.13362   0.14809   0.15245
 Alpha virt. eigenvalues --    0.16121   0.16570   0.18446   0.18825   0.20138

 Mulliken charges:
               1
     1  C   -0.158030
     2  C   -0.329750
     3  H    0.000333
     4  H    0.073611
     5  H    0.054803
     6  C   -0.044523
     7  H    0.312954
     8  H    0.053706
     9  C   -0.367532
    10  H    0.037944
    11  H    0.025993
    12  H    0.157912
    13  H    0.135650
    14  H    0.046930
 Sum of Mulliken charges =   0.00000

 Dipole moment (field-independent basis, Debye):
    X=             -0.4978    Y=              0.0332    Z=             -0.7729  Tot=              0.9200
 Quadrupole moment (field-independent basis, Debye-Ang):
   XX=            -30.4564   YY=            -29.1451   ZZ=            -28.1674
   XY=              0.8448   XZ=              2.0346   YZ=             -1.0924

 Normal termination of Gaussian 09 at Wed Aug 26 12:22:42 2020.
