 Gaussian 09, Revision D.01,
 Gaussian 09:  ES64L-G09RevD.01 24-Apr-2013

 --------------------
 #p B2PLYPD3/Def2QZVP
 --------------------

 ----------
 butane_opt
 ----------
 Symbolic Z-matrix:
 Charge =  0 Multiplicity = 1

                         Standard orientation:
 ---------------------------------------------------------------------
 Center     Atomic      Atomic             Coordinates (Angstroms)
 Number     Number       Type             X           Y           Z
 ---------------------------------------------------------------------
      1          6           0       -1.883703    0.052677    0.189038
      2          6           0       -0.591490   -0.423732   -0.234388
      3          1           0       -2.755752   -1.032868    0.349268
      4          1           0       -2.245165    0.723154   -0.769008
      5          1           0       -1.640191    0.878011    1.220959
      6          6           0        0.472955    0.589886   -0.167850
      7          1           0       -0.550472   -1.236310   -1.251331
      8          1           0       -0.183020   -1.047811    0.479447
      9          6           0        1.920478   -0.201331    0.130052
     10          1           0        0.418580    1.304141    0.885944
     11          1           0        0.292112    1.304494   -0.925907
     12          1           0        2.054921   -1.090639    1.157749
     13          1           0        2.725903    0.501005   -0.059131
     14          1           0        2.373645   -0.408180   -0.589101
 ---------------------------------------------------------------------

 SCF Done:  E(RB2PLYPD3) =  -157.841757165     A.U. after   11 cycles
 E2(B2PLYPD3) =    -0.2564771964D+00 E(B2PLYPD3) =    -0.15809823436102D+03

 The electronic state is 1-A.
 Alpha  occ. eigenvalues --  -10.66118 -10.63622 -10.61379 -10.60925  -0.92447
 Alpha  occ. eigenvalues --   -0.84871  -0.74136  -0.64824  -0.53741  -0.48379
 Alpha  occ. eigenvalues --   -0.46963  -0.44620  -0.42152  -0.38625  -0.36402
 Alpha  occ. eigenvalues --   -0.35876  -0.34678
 Alpha virt. eigenvalues --    0.04454   0.04944   0.05979   0.07751   0.09719
 Alpha virt. eigenvalues --    0.10772   0.11497   0.13523   0.14160   0.14583
 Alpha virt. eigenvalues --    0.14745   0.16110   0.17934   0.18844   0.21184

 Mulliken charges:
               1
     1  C   -0.197725
     2  C    0.007922
     3  H    0.038304
     4  H    0.041639
     5  H    0.051882
     6  C   -0.053040
     7  H    0.008557
     8  H    0.052861
     9  C   -0.240255
    10  H    0.009498
    11  H    0.056519
    12  H    0.063737
    13  H    0.038872
    14  H    0.121229
 Sum of Mulliken charges =   0.00000

 Dipole moment (field-independent basis, Debye):
    X=              0.7973    Y=             -0.0433    Z=             -0.3998  Tot=              0.8930
 Quadrupole moment (field-independent basis, Debye-Ang):
   XX=            -30.5323   YY=            -29.5297   ZZ=            -29.3039
   XY=              0.0236   XZ=             -0.3512   YZ=             -0.9906

 Normal termination of Gaussian 09 at Wed Aug 26 23:45:22 2020.
