 Gaussian 09, Revision D.01,
 Gaussian 09:  ES64L-G09RevD.01 24-Apr-2013

 --------------------
 #p B2PLYPD3/Def2QZVP
 --------------------

 ----------
 butane_opt
 ----------
 Symbolic Z-matrix:
 Charge =  0 Multiplicity = 1

                         Standard orientation:
 ---------------------------------------------------------------------
 Center     Atomic      Atomic             Coordinates (Angstroms)
 Number     Number       Type             X           Y           Z
 ---------------------------------------------------------------------
      1          6           0       -1.951530    0.091388   -0.126261
      2          6           0       -0.548375   -0.409875    0.177037
      3          1           0       -2.799576   -0.931437   -0.404486
      4          1           0       -1.671005    0.634848   -1.100292
      5          1           0       -1.785550    0.848941    0.722574
      6          6           0        0.474861    0.557666    0.111958
      7          1           0       -0.471105   -1.053929   -0.617803
      8          1           0       -0.561449   -1.369577    1.225661
      9          6           0        1.933083   -0.132216   -0.132255
     10          1           0        0.229602    1.565152    1.133627
     11          1           0        0.507999    0.842671   -0.506855
     12          1           0        2.594618   -0.926066    1.020933
     13          1           0        2.718528    0.470189   -0.702188
     14          1           0        1.789703   -0.722569   -0.954048
 ---------------------------------------------------------------------

 SCF Done:  E(RB2PLYPD3) =  -157.602064039     A.U. after   12 cycles
 E2(B2PLYPD3) =    -0.2577807240D+00 E(B2PLYPD3) =    -0.15785984476254D+03

 The electronic state is 1-A.
 Alpha  occ. eigenvalues --  -10.65378 -10.64280 -10.62493 -10.62114  -0.96933
 Alpha  occ. eigenvalues --   -0.84653  -0.74038  -0.67447  -0.57303  -0.49093
 Alpha  occ. eigenvalues --   -0.48935  -0.45296  -0.41832  -0.38821  -0.37710
 Alpha  occ. eigenvalues --   -0.35425  -0.34721
 Alpha virt. eigenvalues --    0.03440   0.04186   0.05857   0.07457   0.09220
 Alpha virt. eigenvalues --    0.10186   0.11256   0.11961   0.13647   0.15259
 Alpha virt. eigenvalues --    0.15365   0.16292   0.17926   0.18861   0.19199

 Mulliken charges:
               1
     1  C   -0.160313
     2  C    0.010892
     3  H    0.062079
     4  H    0.043820
     5  H    0.054958
     6  C   -0.627657
     7  H    0.042379
     8  H   -0.007680
     9  C   -0.151451
    10  H    0.014722
    11  H    0.567811
    12  H    0.026504
    13  H    0.043513
    14  H    0.080422
 Sum of Mulliken charges =   0.00000

 Dipole moment (field-independent basis, Debye):
    X=              0.0971    Y=             -0.1034    Z=             -1.3470  Tot=              1.3545
 Quadrupole moment (field-independent basis, Debye-Ang):
   XX=            -31.9667   YY=            -30.3496   ZZ=            -28.8400
   XY=              1.4514   XZ=             -0.8877   YZ=              0.3675

 Normal termination of Gaussian 09 at Wed Aug 26 14:07:07 2020.
