 Gaussian 09, Revision D.01,
 Gaussian 09:  ES64L-G09RevD.01 24-Apr-2013

 --------------------
 #p B2PLYPD3/Def2QZVP
 --------------------

 ----------
 butane_opt
 ----------
 Symbolic Z-matrix:
 Charge =  0 Multiplicity = 1

                         Standard orientation:
 ---------------------------------------------------------------------
 Center     Atomic      Atomic             Coordinates (Angstroms)
 Number     Number       Type             X           Y           Z
 ---------------------------------------------------------------------
      1          6           0       -1.953870    0.009836   -0.195873
      2          6           0       -0.604482   -0.482706    0.277495
      3          1           0       -2.587040   -0.641126   -0.683876
      4          1           0       -1.834067    0.441900   -1.125712
      5          1           0       -2.328479    1.006726    0.853113
      6          6           0        0.492890    0.648721    0.191109
      7          1           0       -0.475597   -1.120649   -0.485698
      8          1           0       -0.717948   -1.227292    1.324241
      9          6           0        2.063012   -0.192327   -0.141613
     10          1           0        0.612078    1.277435    0.928172
     11          1           0        0.218204    1.457603   -0.809254
     12          1           0        2.433452   -0.698975    0.535327
     13          1           0        2.715222    0.400298   -0.415411
     14          1           0        1.978874   -0.797067   -0.907604
 ---------------------------------------------------------------------

 SCF Done:  E(RB2PLYPD3) =  -157.892339948     A.U. after   11 cycles
 E2(B2PLYPD3) =    -0.2506605981D+00 E(B2PLYPD3) =    -0.15814300054598D+03

 The electronic state is 1-A.
 Alpha  occ. eigenvalues --  -10.64200 -10.62539 -10.62184 -10.56173  -0.90179
 Alpha  occ. eigenvalues --   -0.84376  -0.76019  -0.67981  -0.52074  -0.50481
 Alpha  occ. eigenvalues --   -0.49957  -0.47121  -0.44062  -0.40634  -0.37584
 Alpha  occ. eigenvalues --   -0.37153  -0.33955
 Alpha virt. eigenvalues --    0.04469   0.06527   0.06940   0.08226   0.10259
 Alpha virt. eigenvalues --    0.11204   0.11864   0.13582   0.13954   0.15618
 Alpha virt. eigenvalues --    0.16828   0.17070   0.18844   0.19150   0.20505

 Mulliken charges:
               1
     1  C   -0.158181
     2  C   -0.058440
     3  H    0.053671
     4  H    0.057090
     5  H    0.008343
     6  C   -0.094855
     7  H    0.073251
     8  H    0.028046
     9  C   -0.127632
    10  H    0.074922
    11  H    0.006291
    12  H    0.055628
    13  H    0.048924
    14  H    0.032942
 Sum of Mulliken charges =   0.00000

 Dipole moment (field-independent basis, Debye):
    X=              0.4888    Y=             -0.3934    Z=             -0.5693  Tot=              0.8472
 Quadrupole moment (field-independent basis, Debye-Ang):
   XX=            -30.2470   YY=            -28.8727   ZZ=            -27.8072
   XY=              0.8777   XZ=              1.5950   YZ=              0.7697

 Normal termination of Gaussian 09 at Wed Aug 26 20:24:15 2020.
