 Gaussian 09, Revision D.01,
 Gaussian 09:  ES64L-G09RevD.01 24-Apr-2013

 --------------------
 #p B2PLYPD3/Def2QZVP
 --------------------

 ----------
 butane_opt
 ----------
 Symbolic Z-matrix:
 Charge =  0 Multiplicity = 1

                         Standard orientation:
 ---------------------------------------------------------------------
 Center     Atomic      Atomic             Coordinates (Angstroms)
 Number     Number       Type             X           Y           Z
 ---------------------------------------------------------------------
      1          6           0        2.012056    0.047633   -0.078818
      2          6           0        0.576027   -0.389913    0.234940
      3          1           0        2.898582   -0.936718   -0.627673
      4          1           0        2.521195    0.985995    0.752652
      5          1           0        1.392295    0.281270   -0.923219
      6          6           0       -0.521131    0.615947   -0.046182
      7          1           0        0.732249   -0.945910    1.270680
      8          1           0        0.450831   -1.126909   -0.588778
      9          6           0       -2.020534   -0.155021    0.032037
     10          1           0       -0.446250    1.105823   -1.106536
     11          1           0       -0.387193    1.269731    0.614268
     12          1           0       -2.309009   -1.313282   -0.917504
     13          1           0       -2.839196    0.480332   -0.176529
     14          1           0       -2.292014   -0.512203    0.850779
 ---------------------------------------------------------------------

 SCF Done:  E(RB2PLYPD3) =  -157.852645996     A.U. after   11 cycles
 E2(B2PLYPD3) =    -0.2560299807D+00 E(B2PLYPD3) =    -0.15810867597679D+03

 The electronic state is 1-A.
 Alpha  occ. eigenvalues --  -10.64710 -10.63398 -10.63100 -10.63058  -0.93095
 Alpha  occ. eigenvalues --   -0.83071  -0.74783  -0.64129  -0.56113  -0.50222
 Alpha  occ. eigenvalues --   -0.47887  -0.45528  -0.43275  -0.39674  -0.37554
 Alpha  occ. eigenvalues --   -0.36329  -0.32125
 Alpha virt. eigenvalues --    0.03935   0.04143   0.07557   0.08031   0.09164
 Alpha virt. eigenvalues --    0.09892   0.11625   0.12819   0.13643   0.14670
 Alpha virt. eigenvalues --    0.15605   0.16334   0.18329   0.19548   0.20205

 Mulliken charges:
               1
     1  C   -0.194696
     2  C   -0.072052
     3  H    0.035698
     4  H    0.041215
     5  H    0.047929
     6  C   -0.067279
     7  H    0.031418
     8  H    0.080097
     9  C   -0.162952
    10  H    0.038807
    11  H    0.088699
    12  H   -0.008640
    13  H    0.050257
    14  H    0.091498
 Sum of Mulliken charges =   0.00000

 Dipole moment (field-independent basis, Debye):
    X=             -0.7142    Y=              0.4587    Z=              0.3389  Tot=              0.9140
 Quadrupole moment (field-independent basis, Debye-Ang):
   XX=            -31.3701   YY=            -29.9946   ZZ=            -29.1772
   XY=             -1.2216   XZ=             -0.0804   YZ=              0.9837

 Normal termination of Gaussian 09 at Wed Aug 26 14:06:17 2020.
