 Gaussian 09, Revision D.01,
 Gaussian 09:  ES64L-G09RevD.01 24-Apr-2013

 --------------------
 #p B2PLYPD3/Def2QZVP
 --------------------

 ----------
 butane_opt
 ----------
 Symbolic Z-matrix:
 Charge =  0 Multiplicity = 1

                         Standard orientation:
 ---------------------------------------------------------------------
 Center     Atomic      Atomic             Coordinates (Angstroms)
 Number     Number       Type             X           Y           Z
 ---------------------------------------------------------------------
      1          6           0       -1.857297    0.081182    0.212172
      2          6           0       -0.588755   -0.435655   -0.296058
      3          1           0       -2.773451   -0.856336    0.097425
      4          1           0       -1.959308    0.625375   -0.518504
      5          1           0       -1.744020    0.579570    1.192748
      6          6           0        0.511551    0.566495   -0.146751
      7          1           0       -0.501597   -1.028152   -1.208778
      8          1           0       -0.468395   -0.932822    0.452437
      9          6           0        1.966065   -0.155054    0.115192
     10          1           0        0.069305    1.145522    0.784623
     11          1           0        0.379835    1.397296   -0.865509
     12          1           0        1.981116   -1.236598    1.118508
     13          1           0        2.773511    0.385365    0.206370
     14          1           0        2.053614   -0.421028   -0.566651
 ---------------------------------------------------------------------

 SCF Done:  E(RB2PLYPD3) =  -157.749659868     A.U. after   11 cycles
 E2(B2PLYPD3) =    -0.2504702207D+00 E(B2PLYPD3) =    -0.15800013008900D+03

 The electronic state is 1-A.
 Alpha  occ. eigenvalues --  -10.62361 -10.59685 -10.59621 -10.57032  -0.94716
 Alpha  occ. eigenvalues --   -0.87124  -0.75467  -0.68042  -0.57447  -0.52097
 Alpha  occ. eigenvalues --   -0.47859  -0.47267  -0.45513  -0.39285  -0.37825
 Alpha  occ. eigenvalues --   -0.37034  -0.35446
 Alpha virt. eigenvalues --    0.04928   0.05992   0.07993   0.08301   0.10732
 Alpha virt. eigenvalues --    0.11755   0.12355   0.13618   0.14784   0.15279
 Alpha virt. eigenvalues --    0.15855   0.16703   0.18843   0.19750   0.21444

 Mulliken charges:
               1
     1  C   -0.211044
     2  C   -0.146087
     3  H    0.016961
     4  H    0.108086
     5  H    0.073418
     6  C   -0.023779
     7  H    0.032720
     8  H    0.145473
     9  C   -0.477920
    10  H    0.001697
    11  H    0.030616
    12  H    0.020024
    13  H    0.058094
    14  H    0.371742
 Sum of Mulliken charges =   0.00000

 Dipole moment (field-independent basis, Debye):
    X=              0.3463    Y=              0.0960    Z=             -0.4225  Tot=              0.5547
 Quadrupole moment (field-independent basis, Debye-Ang):
   XX=            -29.8102   YY=            -29.1260   ZZ=            -27.9450
   XY=              0.2867   XZ=             -0.7537   YZ=             -0.1034

 Normal termination of Gaussian 09 at Wed Aug 26 15:47:47 2020.
