 Gaussian 09, Revision D.01,
 Gaussian 09:  ES64L-G09RevD.01 24-Apr-2013

 --------------------
 #p B2PLYPD3/Def2QZVP
 --------------------

 ----------
 butane_opt
 ----------
 Symbolic Z-matrix:
 Charge =  0 Multiplicity = 1

                         Standard orientation:
 ---------------------------------------------------------------------
 Center     Atomic      Atomic             Coordinates (Angstroms)
 Number     Number       Type             X           Y           Z
 ---------------------------------------------------------------------
      1          6           0       -2.029208   -0.121417   -0.073890
      2          6           0       -0.536151    0.616708    0.033018
      3          1           0       -2.547687    0.299838   -0.323725
      4          1           0       -2.483339   -0.598376    0.716518
      5          1           0       -1.988542   -0.998385   -0.934021
      6          6           0        0.657164   -0.446627    0.239642
      7          1           0       -0.172450    1.275253    0.814907
      8          1           0       -0.458598    1.103874   -0.681924
      9          6           0        1.869308    0.041667   -0.144154
     10          1           0        0.549267   -0.955020   -0.427243
     11          1           0        0.669584   -1.390961    1.411762
     12          1           0        1.678753    0.225181   -0.825574
     13          1           0        2.681540   -0.659870   -0.903631
     14          1           0        2.304790    1.156476    0.825239
 ---------------------------------------------------------------------

 SCF Done:  E(RB2PLYPD3) =  -157.395850618     A.U. after   12 cycles
 E2(B2PLYPD3) =    -0.2529617463D+00 E(B2PLYPD3) =    -0.15764881236463D+03

 The electronic state is 1-A.
 Alpha  occ. eigenvalues --  -10.61836 -10.61317 -10.60896 -10.58584  -0.98536
 Alpha  occ. eigenvalues --   -0.88485  -0.79629  -0.71117  -0.56957  -0.53765
 Alpha  occ. eigenvalues --   -0.48420  -0.46887  -0.45840  -0.41007  -0.39247
 Alpha  occ. eigenvalues --   -0.35403  -0.33331
 Alpha virt. eigenvalues --    0.02758   0.05752   0.06543   0.07562   0.10011
 Alpha virt. eigenvalues --    0.10955   0.11896   0.13652   0.14509   0.14851
 Alpha virt. eigenvalues --    0.16237   0.17516   0.18000   0.18836   0.19879

 Mulliken charges:
               1
     1  C   -0.473337
     2  C   -0.120143
     3  H    0.361868
     4  H    0.061224
     5  H    0.025667
     6  C   -0.196187
     7  H    0.046673
     8  H    0.132300
     9  C   -0.578489
    10  H    0.235589
    11  H   -0.007471
    12  H    0.471162
    13  H    0.035974
    14  H    0.005171
 Sum of Mulliken charges =   0.00000

 Dipole moment (field-independent basis, Debye):
    X=             -0.8033    Y=              0.2786    Z=             -1.2877  Tot=              1.5431
 Quadrupole moment (field-independent basis, Debye-Ang):
   XX=            -30.0676   YY=            -29.5237   ZZ=            -28.0739
   XY=             -0.2323   XZ=             -1.3926   YZ=              0.6846

 Normal termination of Gaussian 09 at Wed Aug 26 15:38:23 2020.
