 Gaussian 09, Revision D.01,
 Gaussian 09:  ES64L-G09RevD.01 24-Apr-2013

 --------------------
 #p B2PLYPD3/Def2QZVP
 --------------------

 ----------
 butane_opt
 ----------
 Symbolic Z-matrix:
 Charge =  0 Multiplicity = 1

                         Standard orientation:
 ---------------------------------------------------------------------
 Center     Atomic      Atomic             Coordinates (Angstroms)
 Number     Number       Type             X           Y           Z
 ---------------------------------------------------------------------
      1          6           0       -1.934137    0.087864    0.044663
      2          6           0       -0.615684   -0.448081    0.031819
      3          1           0       -2.860858   -0.871747   -0.002739
      4          1           0       -2.097163    0.611078   -0.830071
      5          1           0       -1.911373    0.611816    0.738553
      6          6           0        0.545450    0.514722    0.064376
      7          1           0       -0.634306   -1.333004   -1.006579
      8          1           0       -0.380676   -0.645847    0.563393
      9          6           0        2.017401   -0.140348   -0.032794
     10          1           0        0.438865    1.395290    0.925151
     11          1           0        0.143494    1.188874   -0.818641
     12          1           0        2.598912   -1.144968    1.118525
     13          1           0        2.591324    0.405986   -0.748577
     14          1           0        2.033610   -0.302427   -0.587405
 ---------------------------------------------------------------------

 SCF Done:  E(RB2PLYPD3) =  -156.827901743     A.U. after   12 cycles
 E2(B2PLYPD3) =    -0.2559341201D+00 E(B2PLYPD3) =    -0.15708383586338D+03

 The electronic state is 1-A.
 Alpha  occ. eigenvalues --  -10.64614 -10.62963 -10.58685 -10.58353  -0.98635
 Alpha  occ. eigenvalues --   -0.94800  -0.80460  -0.70094  -0.57337  -0.51783
 Alpha  occ. eigenvalues --   -0.48354  -0.45784  -0.43679  -0.38846  -0.38213
 Alpha  occ. eigenvalues --   -0.35768  -0.33719
 Alpha virt. eigenvalues --    0.01678   0.04860   0.06633   0.07071   0.10324
 Alpha virt. eigenvalues --    0.11022   0.11797   0.12397   0.14611   0.15190
 Alpha virt. eigenvalues --    0.16274   0.16771   0.17804   0.18923   0.20157

 Mulliken charges:
               1
     1  C   -0.138453
     2  C   -0.742356
     3  H    0.027160
     4  H    0.047630
     5  H    0.126473
     6  C   -0.033226
     7  H    0.005186
     8  H    0.679431
     9  C   -0.838650
    10  H    0.030544
    11  H    0.003542
    12  H    0.068511
    13  H    0.032668
    14  H    0.731540
 Sum of Mulliken charges =   0.00000

 Dipole moment (field-independent basis, Debye):
    X=              0.1354    Y=              0.0311    Z=             -0.3769  Tot=              0.4016
 Quadrupole moment (field-independent basis, Debye-Ang):
   XX=            -29.7709   YY=            -29.6580   ZZ=            -27.2468
   XY=             -1.4297   XZ=             -0.8753   YZ=             -0.6129

 Normal termination of Gaussian 09 at Wed Aug 26 13:22:33 2020.
