 Gaussian 09, Revision D.01,
 Gaussian 09:  ES64L-G09RevD.01 24-Apr-2013

 --------------------
 #p B2PLYPD3/Def2QZVP
 --------------------

 ----------
 butane_opt
 ----------
 Symbolic Z-matrix:
 Charge =  0 Multiplicity = 1

                         Standard orientation:
 ---------------------------------------------------------------------
 Center     Atomic      Atomic             Coordinates (Angstroms)
 Number     Number       Type             X           Y           Z
 ---------------------------------------------------------------------
      1          6           0       -1.881201    0.005779    0.106670
      2          6           0       -0.565360   -0.405101   -0.163734
      3          1           0       -2.829703   -0.853136    0.159897
      4          1           0       -1.824846    0.768908   -0.666927
      5          1           0       -1.861520    0.684123    1.187380
      6          6           0        0.483421    0.627870   -0.186132
      7          1           0       -0.399716   -0.906815   -1.043800
      8          1           0       -0.468593   -1.130759    0.794413
      9          6           0        1.982526   -0.177017    0.099289
     10          1           0        0.172055    1.012741    0.522814
     11          1           0        0.249934    1.234378   -1.063225
     12          1           0        1.416435   -0.680883    0.829252
     13          1           0        2.724708    0.580075    1.056025
     14          1           0        2.704931   -1.017817   -0.912389
 ---------------------------------------------------------------------

 SCF Done:  E(RB2PLYPD3) =  -157.827165410     A.U. after   11 cycles
 E2(B2PLYPD3) =    -0.2570680931D+00 E(B2PLYPD3) =    -0.15808423350311D+03

 The electronic state is 1-A.
 Alpha  occ. eigenvalues --  -10.67626 -10.63436 -10.60098 -10.60039  -0.95962
 Alpha  occ. eigenvalues --   -0.82487  -0.71825  -0.66650  -0.57640  -0.49991
 Alpha  occ. eigenvalues --   -0.47111  -0.45625  -0.41529  -0.39103  -0.38263
 Alpha  occ. eigenvalues --   -0.36165  -0.33971
 Alpha virt. eigenvalues --    0.02630   0.04823   0.07743   0.08036   0.09038
 Alpha virt. eigenvalues --    0.09781   0.11642   0.12911   0.13609   0.15057
 Alpha virt. eigenvalues --    0.15927   0.16394   0.17477   0.18864   0.19555

 Mulliken charges:
               1
     1  C   -0.156381
     2  C   -0.035309
     3  H    0.064662
     4  H    0.041156
     5  H    0.022564
     6  C   -0.183269
     7  H    0.055470
     8  H   -0.009081
     9  C   -0.227633
    10  H    0.186355
    11  H    0.039127
    12  H    0.105694
    13  H    0.024245
    14  H    0.072399
 Sum of Mulliken charges =   0.00000

 Dipole moment (field-independent basis, Debye):
    X=             -0.5109    Y=             -0.2424    Z=             -0.0824  Tot=              0.5714
 Quadrupole moment (field-independent basis, Debye-Ang):
   XX=            -32.0412   YY=            -30.3302   ZZ=            -28.3587
   XY=             -0.0196   XZ=             -0.5498   YZ=              0.6654

 Normal termination of Gaussian 09 at Wed Aug 26 22:57:26 2020.
