 Gaussian 09, Revision D.01,
 Gaussian 09:  ES64L-G09RevD.01 24-Apr-2013

 --------------------
 #p B2PLYPD3/Def2QZVP
 --------------------

 ----------
 butane_opt
 ----------
 Symbolic Z-matrix:
 Charge =  0 Multiplicity = 1

                         Standard orientation:
 ---------------------------------------------------------------------
 Center     Atomic      Atomic             Coordinates (Angstroms)
 Number     Number       Type             X           Y           Z
 ---------------------------------------------------------------------
      1          6           0        1.928547   -0.217939   -0.109777
      2          6           0        0.484194    0.598425    0.047600
      3          1           0        2.572580    0.637249    0.097524
      4          1           0        2.111882   -1.101827   -0.965117
      5          1           0        2.274244   -0.551036    0.581642
      6          6           0       -0.635337   -0.431435    0.272194
      7          1           0        0.310869    1.092843   -0.948770
      8          1           0        0.490595    1.360678    0.773752
      9          6           0       -1.860579    0.061669   -0.108407
     10          1           0       -0.287529   -0.985787    1.280201
     11          1           0       -0.613598   -0.898324   -0.508191
     12          1           0       -2.281962    0.740875    0.639196
     13          1           0       -2.691892   -0.856962   -0.529893
     14          1           0       -1.386137    0.497977   -1.030005
 ---------------------------------------------------------------------

 SCF Done:  E(RB2PLYPD3) =  -157.883283620     A.U. after   11 cycles
 E2(B2PLYPD3) =    -0.2512381328D+00 E(B2PLYPD3) =    -0.15813452175287D+03

 The electronic state is 1-A.
 Alpha  occ. eigenvalues --  -10.61818 -10.61643 -10.59210 -10.58129  -0.95753
 Alpha  occ. eigenvalues --   -0.85217  -0.74371  -0.66357  -0.57470  -0.50085
 Alpha  occ. eigenvalues --   -0.49335  -0.45415  -0.44214  -0.40612  -0.39122
 Alpha  occ. eigenvalues --   -0.36542  -0.33808
 Alpha virt. eigenvalues --    0.05383   0.06367   0.08118   0.08309   0.10477
 Alpha virt. eigenvalues --    0.11345   0.12428   0.13948   0.14302   0.15341
 Alpha virt. eigenvalues --    0.15804   0.16095   0.19037   0.19507   0.20693

 Mulliken charges:
               1
     1  C   -0.259853
     2  C   -0.018262
     3  H    0.022539
     4  H    0.050608
     5  H    0.137221
     6  C   -0.146572
     7  H    0.031076
     8  H    0.040261
     9  C   -0.157824
    10  H    0.027076
    11  H    0.142229
    12  H    0.050408
    13  H    0.021851
    14  H    0.059242
 Sum of Mulliken charges =   0.00000

 Dipole moment (field-independent basis, Debye):
    X=              0.3710    Y=              0.0497    Z=              0.2446  Tot=              0.4472
 Quadrupole moment (field-independent basis, Debye-Ang):
   XX=            -31.0515   YY=            -28.8489   ZZ=            -28.2766
   XY=             -0.1808   XZ=              1.0813   YZ=              1.2530

 Normal termination of Gaussian 09 at Wed Aug 26 10:09:08 2020.
