 Gaussian 09, Revision D.01,
 Gaussian 09:  ES64L-G09RevD.01 24-Apr-2013

 --------------------
 #p B2PLYPD3/Def2QZVP
 --------------------

 ----------
 butane_opt
 ----------
 Symbolic Z-matrix:
 Charge =  0 Multiplicity = 1

                         Standard orientation:
 ---------------------------------------------------------------------
 Center     Atomic      Atomic             Coordinates (Angstroms)
 Number     Number       Type             X           Y           Z
 ---------------------------------------------------------------------
      1          6           0        1.996018   -0.135847   -0.018262
      2          6           0        0.530673    0.560699    0.010324
      3          1           0        2.759848    0.557573   -0.071189
      4          1           0        2.176634   -0.742068   -0.818816
      5          1           0        2.221080   -0.829887    0.899928
      6          6           0       -0.613220   -0.498817    0.088014
      7          1           0        0.355644    1.265834   -0.946106
      8          1           0        0.532090    1.123567    0.852070
      9          6           0       -1.902935    0.098014   -0.024627
     10          1           0       -0.689545   -1.082708    0.846114
     11          1           0       -0.439512   -1.162668   -0.780272
     12          1           0       -2.466794    0.922929    0.880001
     13          1           0       -2.704730   -0.736167   -0.382859
     14          1           0       -1.807933    0.539301   -0.811564
 ---------------------------------------------------------------------

 SCF Done:  E(RB2PLYPD3) =  -158.003538922     A.U. after   11 cycles
 E2(B2PLYPD3) =    -0.2474947985D+00 E(B2PLYPD3) =    -0.15825103372077D+03

 The electronic state is 1-A.
 Alpha  occ. eigenvalues --  -10.61968 -10.60214 -10.59754 -10.58815  -0.92610
 Alpha  occ. eigenvalues --   -0.83632  -0.73257  -0.68428  -0.55212  -0.48685
 Alpha  occ. eigenvalues --   -0.48322  -0.47073  -0.42805  -0.41101  -0.39203
 Alpha  occ. eigenvalues --   -0.39018  -0.35767
 Alpha virt. eigenvalues --    0.05673   0.06431   0.08122   0.08529   0.10445
 Alpha virt. eigenvalues --    0.11581   0.12788   0.13400   0.14584   0.15398
 Alpha virt. eigenvalues --    0.16158   0.16579   0.19280   0.20289   0.21757

 Mulliken charges:
               1
     1  C   -0.133136
     2  C   -0.067910
     3  H    0.046871
     4  H    0.042104
     5  H    0.029083
     6  C   -0.027126
     7  H    0.018412
     8  H    0.059121
     9  C   -0.207417
    10  H    0.058551
    11  H    0.026818
    12  H    0.027531
    13  H    0.025032
    14  H    0.102066
 Sum of Mulliken charges =   0.00000

 Dipole moment (field-independent basis, Debye):
    X=              0.2900    Y=             -0.0697    Z=             -0.2261  Tot=              0.3743
 Quadrupole moment (field-independent basis, Debye-Ang):
   XX=            -30.0884   YY=            -28.7138   ZZ=            -28.1750
   XY=              0.2119   XZ=              0.0227   YZ=              0.1746

 Normal termination of Gaussian 09 at Wed Aug 26 14:07:35 2020.
