 Gaussian 09, Revision D.01,
 Gaussian 09:  ES64L-G09RevD.01 24-Apr-2013

 --------------------
 #p B2PLYPD3/Def2QZVP
 --------------------

 ----------
 butane_opt
 ----------
 Symbolic Z-matrix:
 Charge =  0 Multiplicity = 1

                         Standard orientation:
 ---------------------------------------------------------------------
 Center     Atomic      Atomic             Coordinates (Angstroms)
 Number     Number       Type             X           Y           Z
 ---------------------------------------------------------------------
      1          6           0       -1.965389    0.126466    0.026369
      2          6           0       -0.574186   -0.512097   -0.025459
      3          1           0       -2.797040   -0.672426   -0.064910
      4          1           0       -2.071989    0.690354   -0.772922
      5          1           0       -2.129547    0.767600    0.882935
      6          6           0        0.593511    0.514953    0.009627
      7          1           0       -0.465249   -1.236327   -0.981053
      8          1           0       -0.454419   -1.060899    0.833008
      9          6           0        1.960289   -0.129392    0.009854
     10          1           0        0.520668    1.155183    0.876740
     11          1           0        0.382402    1.273290   -0.919258
     12          1           0        2.121767   -0.905116    0.964102
     13          1           0        2.728882    0.611923   -0.156564
     14          1           0        2.079172   -0.623163   -0.784423
 ---------------------------------------------------------------------

 SCF Done:  E(RB2PLYPD3) =  -158.066868074     A.U. after   11 cycles
 E2(B2PLYPD3) =    -0.2467768101D+00 E(B2PLYPD3) =    -0.15831364488413D+03

 The electronic state is 1-A.
 Alpha  occ. eigenvalues --  -10.61689 -10.60976 -10.59549 -10.59124  -0.90814
 Alpha  occ. eigenvalues --   -0.84031  -0.73496  -0.66327  -0.53749  -0.49286
 Alpha  occ. eigenvalues --   -0.48865  -0.46980  -0.43238  -0.41527  -0.39296
 Alpha  occ. eigenvalues --   -0.37794  -0.36607
 Alpha virt. eigenvalues --    0.05797   0.06705   0.08037   0.08481   0.10708
 Alpha virt. eigenvalues --    0.12111   0.12886   0.13635   0.14935   0.15048
 Alpha virt. eigenvalues --    0.15843   0.16415   0.19580   0.19948   0.21790

 Mulliken charges:
               1
     1  C   -0.144949
     2  C   -0.055089
     3  H    0.034421
     4  H    0.058536
     5  H    0.043714
     6  C   -0.033148
     7  H    0.014804
     8  H    0.052084
     9  C   -0.148837
    10  H    0.041935
    11  H   -0.000875
    12  H    0.029930
    13  H    0.041825
    14  H    0.065650
 Sum of Mulliken charges =   0.00000

 Dipole moment (field-independent basis, Debye):
    X=              0.0459    Y=              0.0523    Z=             -0.0773  Tot=              0.1041
 Quadrupole moment (field-independent basis, Debye-Ang):
   XX=            -29.5313   YY=            -29.0326   ZZ=            -28.2053
   XY=             -0.0355   XZ=             -0.3869   YZ=              0.0347

 Normal termination of Gaussian 09 at Wed Aug 26 22:50:56 2020.
