 Gaussian 09, Revision D.01,
 Gaussian 09:  ES64L-G09RevD.01 24-Apr-2013

 --------------------
 #p B2PLYPD3/Def2QZVP
 --------------------

 ----------
 butane_opt
 ----------
 Symbolic Z-matrix:
 Charge =  0 Multiplicity = 1

                         Standard orientation:
 ---------------------------------------------------------------------
 Center     Atomic      Atomic             Coordinates (Angstroms)
 Number     Number       Type             X           Y           Z
 ---------------------------------------------------------------------
      1          6           0        1.982519   -0.153978    0.028617
      2          6           0        0.496642    0.589640   -0.178831
      3          1           0        2.737247    0.446139   -0.206044
      4          1           0        1.940564   -0.466500   -0.551954
      5          1           0        2.423477   -0.835284    1.252234
      6          6           0       -0.535425   -0.529210    0.011254
      7          1           0        0.323532    0.997364   -0.950049
      8          1           0        0.553792    1.379431    0.538779
      9          6           0       -1.976051    0.057791    0.084353
     10          1           0       -0.336219   -1.053094    0.927129
     11          1           0       -0.689807   -1.097644   -0.735398
     12          1           0       -2.336267    1.344867    1.272243
     13          1           0       -2.715294   -0.850363   -0.528999
     14          1           0       -1.707134    0.349625   -0.690299
 ---------------------------------------------------------------------

 SCF Done:  E(RB2PLYPD3) =  -157.442136905     A.U. after   12 cycles
 E2(B2PLYPD3) =    -0.2560887914D+00 E(B2PLYPD3) =    -0.15769822569614D+03

 The electronic state is 1-A.
 Alpha  occ. eigenvalues --  -10.64129 -10.60345 -10.59751 -10.59099  -0.94846
 Alpha  occ. eigenvalues --   -0.88626  -0.77651  -0.69402  -0.56372  -0.52345
 Alpha  occ. eigenvalues --   -0.47811  -0.47242  -0.42827  -0.39502  -0.37416
 Alpha  occ. eigenvalues --   -0.35619  -0.34837
 Alpha virt. eigenvalues --   -0.00630   0.04752   0.06501   0.08178   0.09851
 Alpha virt. eigenvalues --    0.10234   0.11596   0.12484   0.14411   0.15734
 Alpha virt. eigenvalues --    0.16099   0.16768   0.18026   0.18747   0.20883

 Mulliken charges:
               1
     1  C   -0.664870
     2  C   -0.096034
     3  H    0.058578
     4  H    0.519359
     5  H    0.049417
     6  C   -0.061643
     7  H    0.098954
     8  H    0.036790
     9  C   -0.320484
    10  H    0.054125
    11  H    0.073209
    12  H    0.022802
    13  H    0.020808
    14  H    0.208990
 Sum of Mulliken charges =   0.00000

 Dipole moment (field-independent basis, Debye):
    X=              0.8877    Y=             -0.0016    Z=             -1.0308  Tot=              1.3603
 Quadrupole moment (field-independent basis, Debye-Ang):
   XX=            -32.1462   YY=            -28.8475   ZZ=            -27.5455
   XY=              0.8301   XZ=              1.1136   YZ=              0.7608

 Normal termination of Gaussian 09 at Wed Aug 26 12:41:20 2020.
