 Gaussian 09, Revision D.01,
 Gaussian 09:  ES64L-G09RevD.01 24-Apr-2013

 --------------------
 #p B2PLYPD3/Def2QZVP
 --------------------

 ----------
 butane_opt
 ----------
 Symbolic Z-matrix:
 Charge =  0 Multiplicity = 1

                         Standard orientation:
 ---------------------------------------------------------------------
 Center     Atomic      Atomic             Coordinates (Angstroms)
 Number     Number       Type             X           Y           Z
 ---------------------------------------------------------------------
      1          6           0        1.975137    0.085387   -0.122106
      2          6           0        0.581574   -0.469808    0.176060
      3          1           0        2.719351   -0.755367   -0.213979
      4          1           0        2.173750    0.759620    0.808259
      5          1           0        2.013406    0.523529   -0.897066
      6          6           0       -0.527927    0.571712    0.128714
      7          1           0        0.539483   -0.813315    0.903451
      8          1           0        0.472240   -1.246564   -0.662568
      9          6           0       -2.055766   -0.187584   -0.138554
     10          1           0       -0.234222    1.041285   -0.863711
     11          1           0       -0.660658    1.354351    1.028990
     12          1           0       -1.588534   -0.430460   -0.660772
     13          1           0       -2.758027    0.530592   -0.625019
     14          1           0       -2.514898   -0.961916    0.917727
 ---------------------------------------------------------------------

 SCF Done:  E(RB2PLYPD3) =  -157.730361846     A.U. after   11 cycles
 E2(B2PLYPD3) =    -0.2503778031D+00 E(B2PLYPD3) =    -0.15798073964956D+03

 The electronic state is 1-A.
 Alpha  occ. eigenvalues --  -10.63574 -10.60023 -10.59037 -10.58208  -0.93172
 Alpha  occ. eigenvalues --   -0.85903  -0.76131  -0.68014  -0.55802  -0.50577
 Alpha  occ. eigenvalues --   -0.49236  -0.48363  -0.44356  -0.41427  -0.38651
 Alpha  occ. eigenvalues --   -0.38078  -0.32894
 Alpha virt. eigenvalues --    0.05501   0.06180   0.07926   0.08755   0.10508
 Alpha virt. eigenvalues --    0.11455   0.11858   0.12683   0.14277   0.15860
 Alpha virt. eigenvalues --    0.16129   0.16615   0.18208   0.19367   0.21182

 Mulliken charges:
               1
     1  C   -0.163822
     2  C   -0.221117
     3  H    0.038015
     4  H    0.041483
     5  H    0.093513
     6  C   -0.076161
     7  H    0.208636
     8  H    0.023672
     9  C   -0.528035
    10  H    0.033552
    11  H    0.040022
    12  H    0.388454
    13  H    0.069147
    14  H    0.052640
 Sum of Mulliken charges =   0.00000

 Dipole moment (field-independent basis, Debye):
    X=              0.4102    Y=             -0.0721    Z=             -0.1563  Tot=              0.4448
 Quadrupole moment (field-independent basis, Debye-Ang):
   XX=            -30.3870   YY=            -29.4814   ZZ=            -27.3853
   XY=             -0.9491   XZ=             -0.8386   YZ=             -0.5231

 Normal termination of Gaussian 09 at Wed Aug 26 19:00:11 2020.
