 Gaussian 09, Revision D.01,
 Gaussian 09:  ES64L-G09RevD.01 24-Apr-2013

 --------------------
 #p B2PLYPD3/Def2QZVP
 --------------------

 ----------
 butane_opt
 ----------
 Symbolic Z-matrix:
 Charge =  0 Multiplicity = 1

                         Standard orientation:
 ---------------------------------------------------------------------
 Center     Atomic      Atomic             Coordinates (Angstroms)
 Number     Number       Type             X           Y           Z
 ---------------------------------------------------------------------
      1          6           0        1.846844   -0.033054    0.098237
      2          6           0        0.607255    0.419652   -0.217417
      3          1           0        2.833563    0.891886   -0.030484
      4          1           0        2.065866   -0.480827   -0.579706
      5          1           0        2.088569   -0.842565    1.246905
      6          6           0       -0.537378   -0.576568    0.130267
      7          1           0        0.434132    1.004538   -1.309205
      8          1           0        0.277810    0.816835    0.450419
      9          6           0       -1.880138    0.170366    0.012537
     10          1           0       -0.510127   -0.819339    0.825078
     11          1           0       -0.427163   -1.543652   -0.820461
     12          1           0       -2.558388    1.622778    1.144202
     13          1           0       -2.666273   -0.662705   -0.558850
     14          1           0       -1.757489    0.130677   -0.509640
 ---------------------------------------------------------------------

 SCF Done:  E(RB2PLYPD3) =  -156.720592573     A.U. after   13 cycles
 E2(B2PLYPD3) =    -0.2624953836D+00 E(B2PLYPD3) =    -0.15698308795659D+03

 The electronic state is 1-A.
 Alpha  occ. eigenvalues --  -10.65269 -10.61955 -10.61868 -10.59048  -0.99852
 Alpha  occ. eigenvalues --   -0.92426  -0.80695  -0.72289  -0.55570  -0.50933
 Alpha  occ. eigenvalues --   -0.49585  -0.44725  -0.42035  -0.41134  -0.38775
 Alpha  occ. eigenvalues --   -0.35383  -0.31528
 Alpha virt. eigenvalues --   -0.04660   0.04327   0.04791   0.06641   0.09239
 Alpha virt. eigenvalues --    0.10662   0.10937   0.12350   0.13910   0.15312
 Alpha virt. eigenvalues --    0.15503   0.16501   0.18247   0.18647   0.20093

 Mulliken charges:
               1
     1  C   -0.251594
     2  C   -0.235378
     3  H    0.015569
     4  H    0.176736
     5  H    0.030619
     6  C   -0.337193
     7  H    0.042854
     8  H    0.260149
     9  C   -1.047827
    10  H    0.367199
    11  H    0.007138
    12  H    0.058143
    13  H    0.050573
    14  H    0.863011
 Sum of Mulliken charges =   0.00000

 Dipole moment (field-independent basis, Debye):
    X=              0.2051    Y=             -0.0698    Z=             -0.4939  Tot=              0.5393
 Quadrupole moment (field-independent basis, Debye-Ang):
   XX=            -32.2523   YY=            -29.6402   ZZ=            -27.4153
   XY=             -1.1278   XZ=             -0.2238   YZ=              0.7049

 Normal termination of Gaussian 09 at Wed Aug 26 21:35:25 2020.
