 Gaussian 09, Revision D.01,
 Gaussian 09:  ES64L-G09RevD.01 24-Apr-2013

 --------------------
 #p B2PLYPD3/Def2QZVP
 --------------------

 ----------
 butane_opt
 ----------
 Symbolic Z-matrix:
 Charge =  0 Multiplicity = 1

                         Standard orientation:
 ---------------------------------------------------------------------
 Center     Atomic      Atomic             Coordinates (Angstroms)
 Number     Number       Type             X           Y           Z
 ---------------------------------------------------------------------
      1          6           0       -1.987629   -0.188971   -0.059628
      2          6           0       -0.572817    0.573671    0.113212
      3          1           0       -2.661048    0.554144   -0.538673
      4          1           0       -2.288380   -0.513040    0.655585
      5          1           0       -1.968328   -1.229036   -1.034299
      6          6           0        0.624257   -0.331865    0.268778
      7          1           0       -0.373871    1.460795    0.803038
      8          1           0       -0.184884    0.892136   -0.777846
      9          6           0        1.898610    0.024476   -0.218495
     10          1           0        0.571992   -0.962305   -0.348492
     11          1           0        0.688125   -1.294180    1.531332
     12          1           0        1.544128    0.431475   -1.111514
     13          1           0        2.680607   -0.831579   -0.493418
     14          1           0        2.217129    1.027728    0.691087
 ---------------------------------------------------------------------

 SCF Done:  E(RB2PLYPD3) =  -157.802834171     A.U. after   11 cycles
 E2(B2PLYPD3) =    -0.2535791870D+00 E(B2PLYPD3) =    -0.15805641335801D+03

 The electronic state is 1-A.
 Alpha  occ. eigenvalues --  -10.63988 -10.62742 -10.62713 -10.61542  -0.96227
 Alpha  occ. eigenvalues --   -0.85490  -0.75855  -0.66329  -0.55308  -0.52081
 Alpha  occ. eigenvalues --   -0.50801  -0.46638  -0.44196  -0.41825  -0.38652
 Alpha  occ. eigenvalues --   -0.35009  -0.32137
 Alpha virt. eigenvalues --    0.04326   0.04932   0.05958   0.07928   0.10122
 Alpha virt. eigenvalues --    0.11126   0.11752   0.12585   0.13092   0.15027
 Alpha virt. eigenvalues --    0.15759   0.16455   0.18034   0.19436   0.19672

 Mulliken charges:
               1
     1  C   -0.250291
     2  C   -0.061629
     3  H    0.059874
     4  H    0.182741
     5  H    0.006204
     6  C   -0.117752
     7  H    0.049211
     8  H    0.069131
     9  C   -0.166648
    10  H    0.163616
    11  H   -0.077050
    12  H    0.063586
    13  H    0.075215
    14  H    0.003793
 Sum of Mulliken charges =   0.00000

 Dipole moment (field-independent basis, Debye):
    X=             -0.5336    Y=              0.2755    Z=             -1.1538  Tot=              1.3007
 Quadrupole moment (field-independent basis, Debye-Ang):
   XX=            -29.8836   YY=            -30.1484   ZZ=            -30.0091
   XY=             -1.4365   XZ=             -1.7220   YZ=              1.5034

 Normal termination of Gaussian 09 at Wed Aug 26 09:56:25 2020.
