 Gaussian 09, Revision D.01,
 Gaussian 09:  ES64L-G09RevD.01 24-Apr-2013

 --------------------
 #p B2PLYPD3/Def2QZVP
 --------------------

 ----------
 butane_opt
 ----------
 Symbolic Z-matrix:
 Charge =  0 Multiplicity = 1

                         Standard orientation:
 ---------------------------------------------------------------------
 Center     Atomic      Atomic             Coordinates (Angstroms)
 Number     Number       Type             X           Y           Z
 ---------------------------------------------------------------------
      1          6           0        1.970386    0.102902   -0.128308
      2          6           0        0.529299   -0.425377    0.330860
      3          1           0        2.756370   -0.941307   -0.785664
      4          1           0        2.381022    1.276031    0.744012
      5          1           0        1.471983    0.360639   -0.946932
      6          6           0       -0.619754    0.468333   -0.047147
      7          1           0        0.241634   -0.959266    1.607003
      8          1           0        0.458882   -1.089511   -0.296740
      9          6           0       -1.893090   -0.170641   -0.114766
     10          1           0       -0.246388    0.784466   -0.939978
     11          1           0       -0.640928    1.445377    0.755905
     12          1           0       -1.777266   -1.001724   -0.860111
     13          1           0       -2.632996    0.623275   -0.246913
     14          1           0       -1.933354   -0.349284    0.725589
 ---------------------------------------------------------------------

 SCF Done:  E(RB2PLYPD3) =  -157.802932332     A.U. after   11 cycles
 E2(B2PLYPD3) =    -0.2556308147D+00 E(B2PLYPD3) =    -0.15805856314660D+03

 The electronic state is 1-A.
 Alpha  occ. eigenvalues --  -10.67103 -10.62609 -10.61114 -10.57677  -0.95689
 Alpha  occ. eigenvalues --   -0.86562  -0.72409  -0.66422  -0.56761  -0.50635
 Alpha  occ. eigenvalues --   -0.48666  -0.47235  -0.41143  -0.39748  -0.38645
 Alpha  occ. eigenvalues --   -0.36437  -0.34941
 Alpha virt. eigenvalues --    0.01566   0.05624   0.06881   0.07715   0.09208
 Alpha virt. eigenvalues --    0.10181   0.12099   0.12841   0.13962   0.14949
 Alpha virt. eigenvalues --    0.15672   0.16437   0.18117   0.19111   0.20148

 Mulliken charges:
               1
     1  C   -0.211194
     2  C   -0.139147
     3  H    0.038299
     4  H    0.047388
     5  H    0.113569
     6  C   -0.027269
     7  H   -0.019613
     8  H    0.133196
     9  C   -0.226449
    10  H    0.050511
    11  H   -0.006660
    12  H    0.052815
    13  H    0.050410
    14  H    0.144143
 Sum of Mulliken charges =   0.00000

 Dipole moment (field-independent basis, Debye):
    X=             -0.6309    Y=              0.0103    Z=             -0.7607  Tot=              0.9884
 Quadrupole moment (field-independent basis, Debye-Ang):
   XX=            -31.9964   YY=            -29.7814   ZZ=            -28.9231
   XY=             -0.5846   XZ=             -1.1671   YZ=              1.9082

 Normal termination of Gaussian 09 at Wed Aug 26 21:03:12 2020.
