 Gaussian 09, Revision D.01,
 Gaussian 09:  ES64L-G09RevD.01 24-Apr-2013

 --------------------
 #p B2PLYPD3/Def2QZVP
 --------------------

 ----------
 butane_opt
 ----------
 Symbolic Z-matrix:
 Charge =  0 Multiplicity = 1

                         Standard orientation:
 ---------------------------------------------------------------------
 Center     Atomic      Atomic             Coordinates (Angstroms)
 Number     Number       Type             X           Y           Z
 ---------------------------------------------------------------------
      1          6           0        1.929903    0.029509   -0.046541
      2          6           0        0.670325   -0.440237    0.168337
      3          1           0        2.652527   -0.639426   -0.853316
      4          1           0        2.380269    0.964485    0.839786
      5          1           0        1.547268    0.444773   -0.792202
      6          6           0       -0.515170    0.581991    0.004370
      7          1           0        0.488026   -1.301619    1.165448
      8          1           0        0.714462   -0.938457   -0.505821
      9          6           0       -2.017297   -0.163814   -0.067771
     10          1           0       -0.363260    1.035442   -0.840220
     11          1           0       -0.622309    1.582755    0.987178
     12          1           0       -2.113457   -0.705662   -0.820866
     13          1           0       -2.632655    0.365485   -0.378751
     14          1           0       -2.457431   -0.852473    0.848395
 ---------------------------------------------------------------------

 SCF Done:  E(RB2PLYPD3) =  -157.743103124     A.U. after   11 cycles
 E2(B2PLYPD3) =    -0.2522768888D+00 E(B2PLYPD3) =    -0.15799538001249D+03

 The electronic state is 1-A.
 Alpha  occ. eigenvalues --  -10.64672 -10.62091 -10.60352 -10.58192  -0.98175
 Alpha  occ. eigenvalues --   -0.86781  -0.75658  -0.67905  -0.55136  -0.50009
 Alpha  occ. eigenvalues --   -0.49884  -0.46947  -0.43642  -0.40565  -0.39162
 Alpha  occ. eigenvalues --   -0.36260  -0.34142
 Alpha virt. eigenvalues --    0.04479   0.05977   0.07696   0.07839   0.09907
 Alpha virt. eigenvalues --    0.10835   0.12171   0.12843   0.13740   0.15364
 Alpha virt. eigenvalues --    0.15937   0.17813   0.18249   0.19292   0.20330

 Mulliken charges:
               1
     1  C   -0.210174
     2  C   -0.218323
     3  H    0.040513
     4  H    0.029779
     5  H    0.113786
     6  C   -0.074479
     7  H   -0.011973
     8  H    0.251964
     9  C   -0.196987
    10  H    0.084974
    11  H    0.004030
    12  H    0.040787
    13  H    0.099919
    14  H    0.046183
 Sum of Mulliken charges =   0.00000

 Dipole moment (field-independent basis, Debye):
    X=             -0.4565    Y=              0.0330    Z=             -1.4729  Tot=              1.5424
 Quadrupole moment (field-independent basis, Debye-Ang):
   XX=            -29.8690   YY=            -29.8617   ZZ=            -28.0852
   XY=              0.0477   XZ=             -0.4028   YZ=              0.6104

 Normal termination of Gaussian 09 at Wed Aug 26 22:17:55 2020.
