 Gaussian 09, Revision D.01,
 Gaussian 09:  ES64L-G09RevD.01 24-Apr-2013

 --------------------
 #p B2PLYPD3/Def2QZVP
 --------------------

 ----------
 butane_opt
 ----------
 Symbolic Z-matrix:
 Charge =  0 Multiplicity = 1

                         Standard orientation:
 ---------------------------------------------------------------------
 Center     Atomic      Atomic             Coordinates (Angstroms)
 Number     Number       Type             X           Y           Z
 ---------------------------------------------------------------------
      1          6           0       -2.009488    0.053418   -0.134310
      2          6           0       -0.640923   -0.443067    0.189520
      3          1           0       -2.804877   -0.673710   -0.469703
      4          1           0       -1.720476    0.693498   -1.139429
      5          1           0       -2.321730    0.700025    0.703817
      6          6           0        0.597676    0.548501    0.212378
      7          1           0       -0.417079   -0.827514   -0.453741
      8          1           0       -0.521634   -1.079691    1.153112
      9          6           0        2.019548   -0.193432   -0.119436
     10          1           0        0.674914    1.348307    1.008526
     11          1           0        0.335495    1.100862   -0.679847
     12          1           0        2.598750   -0.628739    0.733822
     13          1           0        2.618235    0.511316   -0.846152
     14          1           0        1.757524   -0.936876   -0.899321
 ---------------------------------------------------------------------

 SCF Done:  E(RB2PLYPD3) =  -157.959660096     A.U. after   11 cycles
 E2(B2PLYPD3) =    -0.2488546045D+00 E(B2PLYPD3) =    -0.15820851470023D+03

 The electronic state is 1-A.
 Alpha  occ. eigenvalues --  -10.62414 -10.61954 -10.61929 -10.57844  -0.92325
 Alpha  occ. eigenvalues --   -0.82071  -0.72862  -0.67857  -0.54876  -0.49729
 Alpha  occ. eigenvalues --   -0.48248  -0.46453  -0.42140  -0.40447  -0.39764
 Alpha  occ. eigenvalues --   -0.39029  -0.34822
 Alpha virt. eigenvalues --    0.05530   0.06649   0.08571   0.08793   0.10992
 Alpha virt. eigenvalues --    0.11850   0.11898   0.12789   0.14847   0.15043
 Alpha virt. eigenvalues --    0.15736   0.17621   0.18300   0.19311   0.20961

 Mulliken charges:
               1
     1  C   -0.139809
     2  C   -0.362879
     3  H    0.060345
     4  H    0.016477
     5  H    0.058635
     6  C   -0.042509
     7  H    0.335833
     8  H    0.027434
     9  C   -0.173618
    10  H    0.036190
    11  H    0.030771
    12  H    0.066987
    13  H    0.044005
    14  H    0.042139
 Sum of Mulliken charges =   0.00000

 Dipole moment (field-independent basis, Debye):
    X=              0.0222    Y=             -0.1743    Z=             -0.2340  Tot=              0.2926
 Quadrupole moment (field-independent basis, Debye-Ang):
   XX=            -29.5069   YY=            -29.7044   ZZ=            -27.9931
   XY=              0.3825   XZ=              0.0587   YZ=              0.3872

 Normal termination of Gaussian 09 at Wed Aug 26 10:52:57 2020.
