 Gaussian 09, Revision D.01,
 Gaussian 09:  ES64L-G09RevD.01 24-Apr-2013

 --------------------
 #p B2PLYPD3/Def2QZVP
 --------------------

 ----------
 butane_opt
 ----------
 Symbolic Z-matrix:
 Charge =  0 Multiplicity = 1

                         Standard orientation:
 ---------------------------------------------------------------------
 Center     Atomic      Atomic             Coordinates (Angstroms)
 Number     Number       Type             X           Y           Z
 ---------------------------------------------------------------------
      1          6           0        1.954878    0.031327    0.101015
      2          6           0        0.574299   -0.515007   -0.124074
      3          1           0        2.662264   -0.472981   -0.133066
      4          1           0        2.167730    1.092517    1.337354
      5          1           0        1.844798    0.276394   -0.391060
      6          6           0       -0.500438    0.553163   -0.077708
      7          1           0        0.458303   -0.813644    0.453111
      8          1           0        0.857874   -1.203755   -1.148477
      9          6           0       -2.049602   -0.112584    0.141915
     10          1           0       -0.460675    1.471475   -1.179672
     11          1           0       -0.206404    0.894422    0.647640
     12          1           0       -1.913396   -0.342186   -0.390949
     13          1           0       -2.658017    0.425264   -0.574810
     14          1           0       -2.627296   -1.068890    1.133036
 ---------------------------------------------------------------------

 SCF Done:  E(RB2PLYPD3) =  -156.328079077     A.U. after   12 cycles
 E2(B2PLYPD3) =    -0.2564948705D+00 E(B2PLYPD3) =    -0.15658457394755D+03

 The electronic state is 1-A.
 Alpha  occ. eigenvalues --  -10.63638 -10.60946 -10.59833 -10.59321  -1.00416
 Alpha  occ. eigenvalues --   -0.93443  -0.85199  -0.73388  -0.57722  -0.52817
 Alpha  occ. eigenvalues --   -0.47641  -0.45895  -0.42831  -0.41778  -0.39969
 Alpha  occ. eigenvalues --   -0.36232  -0.34617
 Alpha virt. eigenvalues --    0.03043   0.03858   0.04829   0.07241   0.09898
 Alpha virt. eigenvalues --    0.10779   0.11451   0.12662   0.14653   0.15370
 Alpha virt. eigenvalues --    0.15756   0.16702   0.17612   0.18626   0.20140

 Mulliken charges:
               1
     1  C   -0.819731
     2  C   -0.630414
     3  H    0.080120
     4  H   -0.006609
     5  H    0.692958
     6  C   -0.159332
     7  H    0.603360
     8  H    0.034616
     9  C   -0.911873
    10  H    0.012426
    11  H    0.215803
    12  H    0.753162
    13  H    0.049388
    14  H    0.086126
 Sum of Mulliken charges =   0.00000

 Dipole moment (field-independent basis, Debye):
    X=              0.0575    Y=             -0.8110    Z=             -0.8259  Tot=              1.1589
 Quadrupole moment (field-independent basis, Debye-Ang):
   XX=            -29.5237   YY=            -29.2540   ZZ=            -27.1818
   XY=              0.3846   XZ=             -0.7126   YZ=             -0.6346

 Normal termination of Gaussian 09 at Wed Aug 26 13:31:30 2020.
