 Gaussian 09, Revision D.01,
 Gaussian 09:  ES64L-G09RevD.01 24-Apr-2013

 --------------------
 #p B2PLYPD3/Def2QZVP
 --------------------

 ----------
 butane_opt
 ----------
 Symbolic Z-matrix:
 Charge =  0 Multiplicity = 1

                         Standard orientation:
 ---------------------------------------------------------------------
 Center     Atomic      Atomic             Coordinates (Angstroms)
 Number     Number       Type             X           Y           Z
 ---------------------------------------------------------------------
      1          6           0       -2.064893    0.086738    0.055685
      2          6           0       -0.461220   -0.558607   -0.088674
      3          1           0       -2.739710   -0.466713   -0.515661
      4          1           0       -1.792350    0.365585   -0.572054
      5          1           0       -2.733401    1.282868    1.338579
      6          6           0        0.606463    0.522068   -0.100595
      7          1           0       -0.452481   -1.370551   -0.953849
      8          1           0       -0.531883   -1.267456    0.954948
      9          6           0        1.941722   -0.053477    0.169860
     10          1           0        0.427110    0.771793    0.521471
     11          1           0        0.701305    1.490639   -1.281952
     12          1           0        2.302652   -0.693329    1.137267
     13          1           0        2.571864    0.567294   -0.052399
     14          1           0        2.114463   -0.660464   -0.794007
 ---------------------------------------------------------------------

 SCF Done:  E(RB2PLYPD3) =  -157.372616046     A.U. after   13 cycles
 E2(B2PLYPD3) =    -0.2596769926D+00 E(B2PLYPD3) =    -0.15763229303821D+03

 The electronic state is 1-A.
 Alpha  occ. eigenvalues --  -10.66262 -10.61676 -10.61421 -10.59971  -0.95857
 Alpha  occ. eigenvalues --   -0.88095  -0.77875  -0.68508  -0.53588  -0.50370
 Alpha  occ. eigenvalues --   -0.49494  -0.44618  -0.43283  -0.39250  -0.38547
 Alpha  occ. eigenvalues --   -0.35226  -0.32660
 Alpha virt. eigenvalues --   -0.01678   0.03320   0.05773   0.07049   0.10090
 Alpha virt. eigenvalues --    0.10635   0.11581   0.12579   0.12998   0.15441
 Alpha virt. eigenvalues --    0.15931   0.16449   0.17821   0.19172   0.20075

 Mulliken charges:
               1
     1  C   -0.597229
     2  C   -0.051411
     3  H    0.072164
     4  H    0.453733
     5  H    0.022353
     6  C   -0.639522
     7  H    0.047290
     8  H    0.040285
     9  C   -0.128280
    10  H    0.593446
    11  H    0.020373
    12  H    0.057637
    13  H    0.090109
    14  H    0.019051
 Sum of Mulliken charges =   0.00000

 Dipole moment (field-independent basis, Debye):
    X=              0.7801    Y=             -0.0844    Z=             -0.5307  Tot=              0.9473
 Quadrupole moment (field-independent basis, Debye-Ang):
   XX=            -30.6378   YY=            -29.8621   ZZ=            -28.0760
   XY=              0.7669   XZ=              1.3382   YZ=              0.4150

 Normal termination of Gaussian 09 at Wed Aug 26 14:53:30 2020.
