 Gaussian 09, Revision D.01,
 Gaussian 09:  ES64L-G09RevD.01 24-Apr-2013

 --------------------
 #p B2PLYPD3/Def2QZVP
 --------------------

 ----------
 butane_opt
 ----------
 Symbolic Z-matrix:
 Charge =  0 Multiplicity = 1

                         Standard orientation:
 ---------------------------------------------------------------------
 Center     Atomic      Atomic             Coordinates (Angstroms)
 Number     Number       Type             X           Y           Z
 ---------------------------------------------------------------------
      1          6           0       -1.991587   -0.169643   -0.155247
      2          6           0       -0.582705    0.621351    0.069788
      3          1           0       -2.595607    0.428182   -0.189054
      4          1           0       -2.452354   -0.657139    0.870629
      5          1           0       -2.095178   -0.943400   -0.994903
      6          6           0        0.643637   -0.485640    0.318035
      7          1           0       -0.525705    1.587445    0.973224
      8          1           0       -0.189051    0.988289   -0.895953
      9          6           0        1.936579    0.120466   -0.181116
     10          1           0        0.305354   -1.228128   -0.486532
     11          1           0        0.754921   -1.146044    1.388924
     12          1           0        1.446808    0.487048   -0.835345
     13          1           0        2.777201   -0.873583   -0.708440
     14          1           0        2.538071    0.838121    0.568689
 ---------------------------------------------------------------------

 SCF Done:  E(RB2PLYPD3) =  -157.883639149     A.U. after   11 cycles
 E2(B2PLYPD3) =    -0.2533602041D+00 E(B2PLYPD3) =    -0.15813699935310D+03

 The electronic state is 1-A.
 Alpha  occ. eigenvalues --  -10.65806 -10.63830 -10.61748 -10.60716  -0.90918
 Alpha  occ. eigenvalues --   -0.84369  -0.72450  -0.64726  -0.53490  -0.50287
 Alpha  occ. eigenvalues --   -0.46518  -0.46130  -0.41775  -0.40073  -0.38888
 Alpha  occ. eigenvalues --   -0.37608  -0.34148
 Alpha virt. eigenvalues --    0.04909   0.06002   0.07202   0.08154   0.09888
 Alpha virt. eigenvalues --    0.10269   0.12527   0.13056   0.14886   0.15276
 Alpha virt. eigenvalues --    0.15795   0.16241   0.18529   0.18688   0.20176

 Mulliken charges:
               1
     1  C   -0.233527
     2  C   -0.092045
     3  H    0.161597
     4  H    0.023481
     5  H    0.051960
     6  C   -0.064819
     7  H    0.026837
     8  H    0.065544
     9  C   -0.227666
    10  H    0.051157
    11  H    0.029546
    12  H    0.133786
    13  H    0.016356
    14  H    0.057790
 Sum of Mulliken charges =   0.00000

 Dipole moment (field-independent basis, Debye):
    X=             -0.6331    Y=              0.2526    Z=             -0.2965  Tot=              0.7434
 Quadrupole moment (field-independent basis, Debye-Ang):
   XX=            -30.0174   YY=            -29.6476   ZZ=            -29.0564
   XY=              0.3104   XZ=              0.8840   YZ=              0.9661

 Normal termination of Gaussian 09 at Wed Aug 26 11:47:14 2020.
