 Gaussian 09, Revision D.01,
 Gaussian 09:  ES64L-G09RevD.01 24-Apr-2013

 --------------------
 #p B2PLYPD3/Def2QZVP
 --------------------

 ----------
 butane_opt
 ----------
 Symbolic Z-matrix:
 Charge =  0 Multiplicity = 1

                         Standard orientation:
 ---------------------------------------------------------------------
 Center     Atomic      Atomic             Coordinates (Angstroms)
 Number     Number       Type             X           Y           Z
 ---------------------------------------------------------------------
      1          6           0       -1.987037   -0.139981   -0.194586
      2          6           0       -0.524905    0.664249    0.221853
      3          1           0       -2.571653    0.483585   -0.679843
      4          1           0       -2.576788   -0.978160    0.853235
      5          1           0       -2.049428   -0.705235   -0.884869
      6          6           0        0.559564   -0.497637    0.135703
      7          1           0       -0.205267    1.590176    1.321605
      8          1           0       -0.358052    0.757640   -0.264393
      9          6           0        1.956760    0.019947   -0.159001
     10          1           0        0.469324   -0.980404   -0.449582
     11          1           0        0.536878   -1.279685    1.110297
     12          1           0        1.733784    1.060210   -1.329007
     13          1           0        2.812023   -0.729646   -0.206009
     14          1           0        2.182888    0.502054    0.504751
 ---------------------------------------------------------------------

 SCF Done:  E(RB2PLYPD3) =  -156.853943318     A.U. after   12 cycles
 E2(B2PLYPD3) =    -0.2546110000D+00 E(B2PLYPD3) =    -0.15710855431770D+03

 The electronic state is 1-A.
 Alpha  occ. eigenvalues --  -10.65593 -10.62154 -10.61849 -10.59505  -0.96800
 Alpha  occ. eigenvalues --   -0.86249  -0.80272  -0.74216  -0.54447  -0.50274
 Alpha  occ. eigenvalues --   -0.47871  -0.45394  -0.44677  -0.40607  -0.38676
 Alpha  occ. eigenvalues --   -0.36487  -0.34643
 Alpha virt. eigenvalues --    0.03439   0.04517   0.05375   0.07755   0.10394
 Alpha virt. eigenvalues --    0.10527   0.11674   0.12283   0.14067   0.14525
 Alpha virt. eigenvalues --    0.15842   0.16803   0.17585   0.18774   0.21051

 Mulliken charges:
               1
     1  C   -0.175237
     2  C   -1.038874
     3  H    0.059382
     4  H    0.020387
     5  H    0.105468
     6  C   -0.307072
     7  H    0.075420
     8  H    0.945450
     9  C   -0.244285
    10  H    0.337080
    11  H    0.020042
    12  H   -0.023853
    13  H    0.061128
    14  H    0.164964
 Sum of Mulliken charges =   0.00000

 Dipole moment (field-independent basis, Debye):
    X=              0.2430    Y=             -0.2652    Z=             -0.1597  Tot=              0.3936
 Quadrupole moment (field-independent basis, Debye-Ang):
   XX=            -29.7419   YY=            -28.7762   ZZ=            -28.3346
   XY=             -0.4682   XZ=              3.2591   YZ=              0.8255

 Normal termination of Gaussian 09 at Wed Aug 26 23:50:45 2020.
