 Gaussian 09, Revision D.01,
 Gaussian 09:  ES64L-G09RevD.01 24-Apr-2013

 --------------------
 #p B2PLYPD3/Def2QZVP
 --------------------

 ----------
 butane_opt
 ----------
 Symbolic Z-matrix:
 Charge =  0 Multiplicity = 1

                         Standard orientation:
 ---------------------------------------------------------------------
 Center     Atomic      Atomic             Coordinates (Angstroms)
 Number     Number       Type             X           Y           Z
 ---------------------------------------------------------------------
      1          6           0        2.038974   -0.151407   -0.201718
      2          6           0        0.526166    0.584536    0.194598
      3          1           0        2.753535    0.321758   -0.676695
      4          1           0        1.697170   -0.677729   -0.889353
      5          1           0        2.502972   -0.666237    0.722687
      6          6           0       -0.589356   -0.521256    0.239647
      7          1           0        0.344209    1.195266   -0.692825
      8          1           0        0.742343    1.464393    1.269210
      9          6           0       -1.961387    0.073878   -0.211239
     10          1           0       -0.605845   -1.353436    1.285444
     11          1           0       -0.405739   -1.153542   -0.480096
     12          1           0       -2.174095    0.905762    0.750736
     13          1           0       -2.730649   -0.492898   -0.306710
     14          1           0       -2.210284    0.542152   -1.110124
 ---------------------------------------------------------------------

 SCF Done:  E(RB2PLYPD3) =  -157.932380237     A.U. after   11 cycles
 E2(B2PLYPD3) =    -0.2512157459D+00 E(B2PLYPD3) =    -0.15818359598303D+03

 The electronic state is 1-A.
 Alpha  occ. eigenvalues --  -10.65538 -10.63592 -10.60400 -10.58587  -0.89775
 Alpha  occ. eigenvalues --   -0.83277  -0.75471  -0.66759  -0.52441  -0.50406
 Alpha  occ. eigenvalues --   -0.48657  -0.46788  -0.43511  -0.39477  -0.38158
 Alpha  occ. eigenvalues --   -0.37102  -0.34504
 Alpha virt. eigenvalues --    0.05049   0.06563   0.07217   0.07743   0.10863
 Alpha virt. eigenvalues --    0.11727   0.12193   0.12822   0.14235   0.15751
 Alpha virt. eigenvalues --    0.16262   0.16809   0.18224   0.19429   0.20606

 Mulliken charges:
               1
     1  C   -0.184538
     2  C   -0.091767
     3  H    0.047440
     4  H    0.085998
     5  H    0.048357
     6  C   -0.062208
     7  H    0.072996
     8  H    0.017021
     9  C   -0.141349
    10  H    0.023268
    11  H    0.077907
    12  H    0.024199
    13  H    0.048651
    14  H    0.034026
 Sum of Mulliken charges =   0.00000

 Dipole moment (field-independent basis, Debye):
    X=             -0.0729    Y=             -0.4436    Z=             -0.9186  Tot=              1.0228
 Quadrupole moment (field-independent basis, Debye-Ang):
   XX=            -28.8819   YY=            -29.8602   ZZ=            -28.1656
   XY=              0.7740   XZ=              1.0053   YZ=             -0.2569

 Normal termination of Gaussian 09 at Wed Aug 26 11:56:48 2020.
