 Gaussian 09, Revision D.01,
 Gaussian 09:  ES64L-G09RevD.01 24-Apr-2013

 --------------------
 #p B2PLYPD3/Def2QZVP
 --------------------

 ----------
 butane_opt
 ----------
 Symbolic Z-matrix:
 Charge =  0 Multiplicity = 1

                         Standard orientation:
 ---------------------------------------------------------------------
 Center     Atomic      Atomic             Coordinates (Angstroms)
 Number     Number       Type             X           Y           Z
 ---------------------------------------------------------------------
      1          6           0        2.004112   -0.144100   -0.114299
      2          6           0        0.514382    0.587601    0.160332
      3          1           0        2.718523    0.630665   -0.186922
      4          1           0        1.911943   -0.703884   -0.950485
      5          1           0        2.412127   -0.890801    0.819373
      6          6           0       -0.580338   -0.489674    0.060988
      7          1           0        0.422109    1.215174   -0.701860
      8          1           0        0.457214    1.170205    1.057731
      9          6           0       -1.957564    0.060879   -0.094104
     10          1           0       -0.657376   -1.306501    0.971425
     11          1           0       -0.349203   -1.153371   -0.886597
     12          1           0       -2.024171    0.654463    0.817172
     13          1           0       -2.671274   -0.610507    0.015051
     14          1           0       -2.103447    0.906330   -1.032394
 ---------------------------------------------------------------------

 SCF Done:  E(RB2PLYPD3) =  -158.054546586     A.U. after   11 cycles
 E2(B2PLYPD3) =    -0.2486317183D+00 E(B2PLYPD3) =    -0.15830317830400D+03

 The electronic state is 1-A.
 Alpha  occ. eigenvalues --  -10.62774 -10.61631 -10.61170 -10.60203  -0.90335
 Alpha  occ. eigenvalues --   -0.82411  -0.73050  -0.65411  -0.53024  -0.50739
 Alpha  occ. eigenvalues --   -0.49164  -0.45678  -0.43450  -0.40344  -0.38711
 Alpha  occ. eigenvalues --   -0.36780  -0.36195
 Alpha virt. eigenvalues --    0.05698   0.06632   0.07674   0.08457   0.10518
 Alpha virt. eigenvalues --    0.11928   0.12544   0.13858   0.14510   0.14998
 Alpha virt. eigenvalues --    0.15252   0.16404   0.19078   0.20125   0.21514

 Mulliken charges:
               1
     1  C   -0.170272
     2  C   -0.066538
     3  H    0.055914
     4  H    0.078020
     5  H    0.021621
     6  C   -0.027687
     7  H    0.052096
     8  H    0.046959
     9  C   -0.144128
    10  H    0.019361
    11  H    0.010268
    12  H    0.037725
    13  H    0.064575
    14  H    0.022087
 Sum of Mulliken charges =   0.00000

 Dipole moment (field-independent basis, Debye):
    X=             -0.0862    Y=              0.1672    Z=              0.0007  Tot=              0.1881
 Quadrupole moment (field-independent basis, Debye-Ang):
   XX=            -30.0635   YY=            -28.9785   ZZ=            -28.5591
   XY=              1.0173   XZ=             -0.7212   YZ=             -0.1157

 Normal termination of Gaussian 09 at Wed Aug 26 13:14:55 2020.
