 Gaussian 09, Revision D.01,
 Gaussian 09:  ES64L-G09RevD.01 24-Apr-2013

 --------------------
 #p B2PLYPD3/Def2QZVP
 --------------------

 ----------
 butane_opt
 ----------
 Symbolic Z-matrix:
 Charge =  0 Multiplicity = 1

                         Standard orientation:
 ---------------------------------------------------------------------
 Center     Atomic      Atomic             Coordinates (Angstroms)
 Number     Number       Type             X           Y           Z
 ---------------------------------------------------------------------
      1          6           0       -1.843030    0.072741    0.118527
      2          6           0       -0.596212   -0.466697   -0.131988
      3          1           0       -2.748485   -0.859664   -0.166241
      4          1           0       -2.021707    0.266492   -0.557248
      5          1           0       -2.004914    0.982816    1.206423
      6          6           0        0.522628    0.634868   -0.029381
      7          1           0       -0.563728   -1.200728   -1.103570
      8          1           0       -0.329292   -0.792305    0.537595
      9          6           0        1.897841   -0.184204    0.078265
     10          1           0        0.279050    0.984337    0.637119
     11          1           0        0.532850    1.511938   -0.969665
     12          1           0        2.494682   -1.308192    1.114346
     13          1           0        2.706773    0.533188   -0.426636
     14          1           0        1.767408   -0.458134   -0.484659
 ---------------------------------------------------------------------

 SCF Done:  E(RB2PLYPD3) =  -157.115262470     A.U. after   12 cycles
 E2(B2PLYPD3) =    -0.2550475766D+00 E(B2PLYPD3) =    -0.15737031004646D+03

 The electronic state is 1-A.
 Alpha  occ. eigenvalues --  -10.61756 -10.61041 -10.60460 -10.58097  -0.97905
 Alpha  occ. eigenvalues --   -0.90094  -0.80518  -0.72692  -0.54989  -0.49973
 Alpha  occ. eigenvalues --   -0.48782  -0.46152  -0.43681  -0.40642  -0.40284
 Alpha  occ. eigenvalues --   -0.37386  -0.33311
 Alpha virt. eigenvalues --    0.01683   0.04564   0.05844   0.07039   0.10330
 Alpha virt. eigenvalues --    0.11092   0.11684   0.12649   0.13743   0.15739
 Alpha virt. eigenvalues --    0.16090   0.16210   0.17917   0.18365   0.20457

 Mulliken charges:
               1
     1  C   -0.536982
     2  C   -0.321877
     3  H    0.005887
     4  H    0.421083
     5  H    0.061845
     6  C   -0.252343
     7  H    0.028422
     8  H    0.346078
     9  C   -0.835564
    10  H    0.286532
    11  H    0.023959
    12  H    0.047541
    13  H    0.073229
    14  H    0.652189
 Sum of Mulliken charges =   0.00000

 Dipole moment (field-independent basis, Debye):
    X=             -0.0847    Y=              0.1332    Z=             -0.5560  Tot=              0.5780
 Quadrupole moment (field-independent basis, Debye-Ang):
   XX=            -31.7290   YY=            -28.7030   ZZ=            -27.6855
   XY=             -0.9511   XZ=              0.1331   YZ=              0.3406

 Normal termination of Gaussian 09 at Wed Aug 26 14:08:27 2020.
