 Gaussian 09, Revision D.01,
 Gaussian 09:  ES64L-G09RevD.01 24-Apr-2013

 --------------------
 #p B2PLYPD3/Def2QZVP
 --------------------

 ----------
 butane_opt
 ----------
 Symbolic Z-matrix:
 Charge =  0 Multiplicity = 1

                         Standard orientation:
 ---------------------------------------------------------------------
 Center     Atomic      Atomic             Coordinates (Angstroms)
 Number     Number       Type             X           Y           Z
 ---------------------------------------------------------------------
      1          6           0       -2.055252   -0.138726    0.059809
      2          6           0       -0.476737    0.660276   -0.088295
      3          1           0       -2.795861    0.471344   -0.341349
      4          1           0       -2.150275   -1.311654    1.244947
      5          1           0       -2.343264   -0.638509   -0.635193
      6          6           0        0.594351   -0.467176   -0.113252
      7          1           0       -0.496005    1.406475    1.037088
      8          1           0       -0.443437    1.170645   -0.780735
      9          6           0        1.956528    0.032708    0.072911
     10          1           0        0.468659   -1.241686   -1.156617
     11          1           0        0.611401   -0.983517    0.722476
     12          1           0        2.239451    0.618227   -0.799993
     13          1           0        2.758141   -0.687428    0.055568
     14          1           0        2.037856    0.673606    1.066771
 ---------------------------------------------------------------------

 SCF Done:  E(RB2PLYPD3) =  -157.814006645     A.U. after   11 cycles
 E2(B2PLYPD3) =    -0.2536056865D+00 E(B2PLYPD3) =    -0.15806761233136D+03

 The electronic state is 1-A.
 Alpha  occ. eigenvalues --  -10.63718 -10.62914 -10.61603 -10.60299  -0.91457
 Alpha  occ. eigenvalues --   -0.83983  -0.76811  -0.68181  -0.52983  -0.50321
 Alpha  occ. eigenvalues --   -0.49247  -0.45072  -0.41055  -0.38851  -0.38153
 Alpha  occ. eigenvalues --   -0.36730  -0.34190
 Alpha virt. eigenvalues --    0.01653   0.05864   0.06489   0.07770   0.09973
 Alpha virt. eigenvalues --    0.10498   0.11979   0.12723   0.13786   0.15089
 Alpha virt. eigenvalues --    0.15547   0.16601   0.18607   0.19160   0.20732

 Mulliken charges:
               1
     1  C   -0.205620
     2  C   -0.168618
     3  H    0.043914
     4  H    0.014534
     5  H    0.101920
     6  C   -0.052432
     7  H    0.021829
     8  H    0.165157
     9  C   -0.129979
    10  H    0.010159
    11  H    0.085494
    12  H    0.027530
    13  H    0.043116
    14  H    0.042997
 Sum of Mulliken charges =   0.00000

 Dipole moment (field-independent basis, Debye):
    X=              0.2912    Y=              0.0331    Z=             -0.8353  Tot=              0.8852
 Quadrupole moment (field-independent basis, Debye-Ang):
   XX=            -30.1486   YY=            -29.5131   ZZ=            -28.5004
   XY=             -0.6605   XZ=              2.4739   YZ=             -0.5925

 Normal termination of Gaussian 09 at Wed Aug 26 18:35:03 2020.
