 Gaussian 09, Revision D.01,
 Gaussian 09:  ES64L-G09RevD.01 24-Apr-2013

 --------------------
 #p B2PLYPD3/Def2QZVP
 --------------------

 ----------
 butane_opt
 ----------
 Symbolic Z-matrix:
 Charge =  0 Multiplicity = 1

                         Standard orientation:
 ---------------------------------------------------------------------
 Center     Atomic      Atomic             Coordinates (Angstroms)
 Number     Number       Type             X           Y           Z
 ---------------------------------------------------------------------
      1          6           0        1.982217   -0.153508    0.065446
      2          6           0        0.497091    0.652226    0.041766
      3          1           0        2.670043    0.483839   -0.589159
      4          1           0        2.098412   -0.199248   -0.546330
      5          1           0        2.673464   -1.399862    1.227062
      6          6           0       -0.636617   -0.505997   -0.196014
      7          1           0        0.411532    1.621617   -0.900943
      8          1           0        0.343098    0.900506    0.806819
      9          6           0       -1.949291    0.047157    0.133437
     10          1           0       -0.315702   -0.867016    0.310124
     11          1           0       -0.497962   -1.362757   -1.309463
     12          1           0       -1.706562    0.643868    1.127630
     13          1           0       -2.827776   -0.654587    0.092385
     14          1           0       -2.208950    0.594371   -0.485932
 ---------------------------------------------------------------------

 SCF Done:  E(RB2PLYPD3) =  -157.034875413     A.U. after   14 cycles
 E2(B2PLYPD3) =    -0.2583649361D+00 E(B2PLYPD3) =    -0.15729324034956D+03

 The electronic state is 1-A.
 Alpha  occ. eigenvalues --  -10.63579 -10.63199 -10.59645 -10.58850  -0.96596
 Alpha  occ. eigenvalues --   -0.92401  -0.80863  -0.73784  -0.52914  -0.51800
 Alpha  occ. eigenvalues --   -0.47756  -0.46084  -0.44012  -0.38662  -0.37232
 Alpha  occ. eigenvalues --   -0.36267  -0.32347
 Alpha virt. eigenvalues --   -0.02376   0.04720   0.06399   0.07298   0.09557
 Alpha virt. eigenvalues --    0.10642   0.12686   0.12896   0.15063   0.15395
 Alpha virt. eigenvalues --    0.15688   0.16461   0.17848   0.18477   0.19514

 Mulliken charges:
               1
     1  C   -0.822757
     2  C   -0.259459
     3  H    0.043039
     4  H    0.678744
     5  H    0.064553
     6  C   -0.586074
     7  H    0.024332
     8  H    0.255219
     9  C   -0.142144
    10  H    0.541200
    11  H    0.006565
    12  H    0.036565
    13  H    0.035401
    14  H    0.124817
 Sum of Mulliken charges =   0.00000

 Dipole moment (field-independent basis, Debye):
    X=             -0.2470    Y=              0.1025    Z=             -0.3523  Tot=              0.4423
 Quadrupole moment (field-independent basis, Debye-Ang):
   XX=            -29.3137   YY=            -29.4619   ZZ=            -27.8841
   XY=             -1.3417   XZ=             -1.0814   YZ=             -1.4326

 Normal termination of Gaussian 09 at Wed Aug 26 15:47:55 2020.
