 Gaussian 09, Revision D.01,
 Gaussian 09:  ES64L-G09RevD.01 24-Apr-2013

 --------------------
 #p B2PLYPD3/Def2QZVP
 --------------------

 ----------
 butane_opt
 ----------
 Symbolic Z-matrix:
 Charge =  0 Multiplicity = 1

                         Standard orientation:
 ---------------------------------------------------------------------
 Center     Atomic      Atomic             Coordinates (Angstroms)
 Number     Number       Type             X           Y           Z
 ---------------------------------------------------------------------
      1          6           0        2.022899   -0.137520    0.045109
      2          6           0        0.552091    0.619341   -0.086118
      3          1           0        2.778452    0.459123   -0.208157
      4          1           0        1.913388   -0.459865   -0.586401
      5          1           0        2.296237   -1.236429    1.229261
      6          6           0       -0.549469   -0.547929   -0.140008
      7          1           0        0.309118    1.396381   -1.130169
      8          1           0        0.539569    1.219116    0.848108
      9          6           0       -1.926699    0.078392    0.075592
     10          1           0       -0.682582   -1.187693    0.803423
     11          1           0       -0.608591   -1.057330   -0.883289
     12          1           0       -2.217262    1.160680    1.443976
     13          1           0       -2.766349   -0.651426   -0.370616
     14          1           0       -2.154910    0.283743   -0.513591
 ---------------------------------------------------------------------

 SCF Done:  E(RB2PLYPD3) =  -157.278834418     A.U. after   13 cycles
 E2(B2PLYPD3) =    -0.2582759067D+00 E(B2PLYPD3) =    -0.15753711032487D+03

 The electronic state is 1-A.
 Alpha  occ. eigenvalues --  -10.65363 -10.61971 -10.60768 -10.60088  -0.94005
 Alpha  occ. eigenvalues --   -0.88867  -0.78882  -0.69303  -0.55320  -0.52020
 Alpha  occ. eigenvalues --   -0.48156  -0.44123  -0.40934  -0.37294  -0.36733
 Alpha  occ. eigenvalues --   -0.36494  -0.34748
 Alpha virt. eigenvalues --    0.00450   0.02485   0.05668   0.07017   0.09505
 Alpha virt. eigenvalues --    0.09896   0.11192   0.12384   0.13645   0.15594
 Alpha virt. eigenvalues --    0.16336   0.16652   0.17866   0.19108   0.20242

 Mulliken charges:
               1
     1  C   -0.565411
     2  C   -0.073174
     3  H    0.069008
     4  H    0.448381
     5  H    0.026666
     6  C   -0.043915
     7  H    0.028530
     8  H    0.057658
     9  C   -0.670292
    10  H    0.055463
    11  H    0.087120
    12  H    0.028212
    13  H    0.018082
    14  H    0.533673
 Sum of Mulliken charges =   0.00000

 Dipole moment (field-independent basis, Debye):
    X=              0.0136    Y=              0.0067    Z=             -1.1786  Tot=              1.1787
 Quadrupole moment (field-independent basis, Debye-Ang):
   XX=            -31.0385   YY=            -29.5976   ZZ=            -27.8016
   XY=              0.6046   XZ=              1.1120   YZ=              0.5472

 Normal termination of Gaussian 09 at Wed Aug 26 14:07:01 2020.
