 Gaussian 09, Revision D.01,
 Gaussian 09:  ES64L-G09RevD.01 24-Apr-2013

 --------------------
 #p B2PLYPD3/Def2QZVP
 --------------------

 ----------
 butane_opt
 ----------
 Symbolic Z-matrix:
 Charge =  0 Multiplicity = 1

                         Standard orientation:
 ---------------------------------------------------------------------
 Center     Atomic      Atomic             Coordinates (Angstroms)
 Number     Number       Type             X           Y           Z
 ---------------------------------------------------------------------
      1          6           0       -1.969103   -0.142501    0.056165
      2          6           0       -0.563002    0.539999   -0.093628
      3          1           0       -2.763181    0.564283   -0.072256
      4          1           0       -2.178468   -0.998576    1.104156
      5          1           0       -2.307843   -0.566283   -0.593148
      6          6           0        0.565718   -0.473813   -0.071255
      7          1           0       -0.413885    1.221969    0.805318
      8          1           0       -0.414822    1.285775   -1.004076
      9          6           0        1.987432    0.074190    0.057926
     10          1           0        0.442019   -1.071031   -1.000168
     11          1           0        0.517974   -1.171507    0.810878
     12          1           0        1.879324    0.492947   -0.636884
     13          1           0        2.839180   -0.788537   -0.273020
     14          1           0        2.273430    1.043712    1.163953
 ---------------------------------------------------------------------

 SCF Done:  E(RB2PLYPD3) =  -157.835559156     A.U. after   11 cycles
 E2(B2PLYPD3) =    -0.2514300985D+00 E(B2PLYPD3) =    -0.15808698925443D+03

 The electronic state is 1-A.
 Alpha  occ. eigenvalues --  -10.63289 -10.61758 -10.61447 -10.60236  -0.92111
 Alpha  occ. eigenvalues --   -0.85559  -0.75779  -0.66289  -0.53636  -0.49328
 Alpha  occ. eigenvalues --   -0.48392  -0.45903  -0.41506  -0.39504  -0.38837
 Alpha  occ. eigenvalues --   -0.37239  -0.36096
 Alpha virt. eigenvalues --    0.04424   0.05481   0.07247   0.07717   0.10042
 Alpha virt. eigenvalues --    0.11328   0.11921   0.12780   0.13999   0.15399
 Alpha virt. eigenvalues --    0.15842   0.15960   0.18722   0.19974   0.21213

 Mulliken charges:
               1
     1  C   -0.230785
     2  C   -0.020188
     3  H    0.033823
     4  H    0.027403
     5  H    0.128676
     6  C   -0.025643
     7  H    0.039222
     8  H    0.015309
     9  C   -0.373546
    10  H    0.036600
    11  H    0.033915
    12  H    0.260585
    13  H    0.049752
    14  H    0.024879
 Sum of Mulliken charges =   0.00000

 Dipole moment (field-independent basis, Debye):
    X=             -0.4000    Y=             -0.0059    Z=             -0.8162  Tot=              0.9090
 Quadrupole moment (field-independent basis, Debye-Ang):
   XX=            -30.0736   YY=            -29.2410   ZZ=            -28.6958
   XY=             -0.2222   XZ=              0.3556   YZ=              0.1058

 Normal termination of Gaussian 09 at Wed Aug 26 10:20:17 2020.
