 Gaussian 09, Revision D.01,
 Gaussian 09:  ES64L-G09RevD.01 24-Apr-2013

 --------------------
 #p B2PLYPD3/Def2QZVP
 --------------------

 ----------
 butane_opt
 ----------
 Symbolic Z-matrix:
 Charge =  0 Multiplicity = 1

                         Standard orientation:
 ---------------------------------------------------------------------
 Center     Atomic      Atomic             Coordinates (Angstroms)
 Number     Number       Type             X           Y           Z
 ---------------------------------------------------------------------
      1          6           0       -2.003242   -0.128772    0.000259
      2          6           0       -0.517339    0.523188   -0.047546
      3          1           0       -2.711972    0.647432   -0.176172
      4          1           0       -2.287736   -0.917515    1.036924
      5          1           0       -2.141515   -0.648551   -0.864762
      6          6           0        0.587822   -0.562270    0.012032
      7          1           0       -0.665116    1.399977    0.935003
      8          1           0       -0.358430    1.318280   -0.855840
      9          6           0        1.908958    0.091163   -0.016257
     10          1           0        0.740650   -0.992419   -0.637378
     11          1           0        0.542546   -1.301262    0.991443
     12          1           0        1.780039    0.493157   -0.673063
     13          1           0        2.598040   -0.618508   -0.539088
     14          1           0        2.646304    1.079552    1.092006
 ---------------------------------------------------------------------

 SCF Done:  E(RB2PLYPD3) =  -157.711097507     A.U. after   11 cycles
 E2(B2PLYPD3) =    -0.2532215909D+00 E(B2PLYPD3) =    -0.15796431909743D+03

 The electronic state is 1-A.
 Alpha  occ. eigenvalues --  -10.65035 -10.61958 -10.60897 -10.60222  -0.96083
 Alpha  occ. eigenvalues --   -0.84041  -0.74546  -0.68914  -0.54162  -0.51278
 Alpha  occ. eigenvalues --   -0.48525  -0.46366  -0.41829  -0.39231  -0.38551
 Alpha  occ. eigenvalues --   -0.36386  -0.35196
 Alpha virt. eigenvalues --    0.03161   0.05113   0.07223   0.07635   0.09097
 Alpha virt. eigenvalues --    0.11358   0.11884   0.12278   0.13702   0.15645
 Alpha virt. eigenvalues --    0.15836   0.16855   0.18360   0.19248   0.20369

 Mulliken charges:
               1
     1  C   -0.152111
     2  C   -0.020746
     3  H    0.049406
     4  H    0.043231
     5  H    0.048307
     6  C   -0.293656
     7  H    0.014411
     8  H    0.025697
     9  C   -0.428176
    10  H    0.298650
    11  H    0.042187
    12  H    0.323067
    13  H    0.039189
    14  H    0.010544
 Sum of Mulliken charges =   0.00000

 Dipole moment (field-independent basis, Debye):
    X=             -0.3590    Y=             -0.2085    Z=             -1.1344  Tot=              1.2080
 Quadrupole moment (field-independent basis, Debye-Ang):
   XX=            -31.2247   YY=            -28.9795   ZZ=            -28.5931
   XY=             -0.9853   XZ=             -1.0636   YZ=             -0.1945

 Normal termination of Gaussian 09 at Wed Aug 26 14:59:24 2020.
