 Gaussian 09, Revision D.01,
 Gaussian 09:  ES64L-G09RevD.01 24-Apr-2013

 --------------------
 #p B2PLYPD3/Def2QZVP
 --------------------

 ----------
 butane_opt
 ----------
 Symbolic Z-matrix:
 Charge =  0 Multiplicity = 1

                         Standard orientation:
 ---------------------------------------------------------------------
 Center     Atomic      Atomic             Coordinates (Angstroms)
 Number     Number       Type             X           Y           Z
 ---------------------------------------------------------------------
      1          6           0       -1.950411   -0.118430   -0.250629
      2          6           0       -0.592287    0.461627    0.260564
      3          1           0       -2.739606    0.802471   -0.593318
      4          1           0       -2.292648   -0.892716    0.705484
      5          1           0       -1.617814   -0.397237   -0.933425
      6          6           0        0.515692   -0.554179    0.184103
      7          1           0       -0.494132    1.412842    1.523433
      8          1           0       -0.183538    0.723181   -0.446712
      9          6           0        1.919663    0.160272   -0.174165
     10          1           0        0.127077   -0.895397   -0.475266
     11          1           0        0.714979   -1.277536    1.016802
     12          1           0        2.071785    0.886765   -1.005960
     13          1           0        2.731484   -0.522301   -0.516484
     14          1           0        2.326475    0.464186    0.606211
 ---------------------------------------------------------------------

 SCF Done:  E(RB2PLYPD3) =  -157.720148478     A.U. after   11 cycles
 E2(B2PLYPD3) =    -0.2516119023D+00 E(B2PLYPD3) =    -0.15797176037988D+03

 The electronic state is 1-A.
 Alpha  occ. eigenvalues --  -10.62102 -10.61877 -10.60006 -10.59332  -0.97696
 Alpha  occ. eigenvalues --   -0.84916  -0.77893  -0.68744  -0.56389  -0.52103
 Alpha  occ. eigenvalues --   -0.48687  -0.45693  -0.45319  -0.41749  -0.38781
 Alpha  occ. eigenvalues --   -0.37363  -0.33880
 Alpha virt. eigenvalues --    0.04579   0.06241   0.06819   0.08666   0.10790
 Alpha virt. eigenvalues --    0.11186   0.12268   0.12812   0.14345   0.15098
 Alpha virt. eigenvalues --    0.16375   0.17196   0.18016   0.19013   0.21145

 Mulliken charges:
               1
     1  C   -0.376291
     2  C   -0.226369
     3  H    0.056817
     4  H    0.068906
     5  H    0.258377
     6  C   -0.265578
     7  H   -0.027129
     8  H    0.238021
     9  C   -0.122134
    10  H    0.229683
    11  H    0.041452
    12  H    0.030192
    13  H    0.013469
    14  H    0.080584
 Sum of Mulliken charges =   0.00000

 Dipole moment (field-independent basis, Debye):
    X=              0.3936    Y=             -0.4839    Z=             -0.7277  Tot=              0.9584
 Quadrupole moment (field-independent basis, Debye-Ang):
   XX=            -28.9666   YY=            -30.3107   ZZ=            -28.2081
   XY=              0.2141   XZ=              0.5317   YZ=             -1.1712

 Normal termination of Gaussian 09 at Wed Aug 26 10:34:09 2020.
