 Gaussian 09, Revision D.01,
 Gaussian 09:  ES64L-G09RevD.01 24-Apr-2013

 --------------------
 #p B2PLYPD3/Def2QZVP
 --------------------

 ----------
 butane_opt
 ----------
 Symbolic Z-matrix:
 Charge =  0 Multiplicity = 1

                         Standard orientation:
 ---------------------------------------------------------------------
 Center     Atomic      Atomic             Coordinates (Angstroms)
 Number     Number       Type             X           Y           Z
 ---------------------------------------------------------------------
      1          6           0       -2.013430    0.137812    0.062605
      2          6           0       -0.565993   -0.614424   -0.096978
      3          1           0       -2.654436   -0.450709   -0.424305
      4          1           0       -1.892421    0.329514   -0.444981
      5          1           0       -2.627229    1.295768    1.237306
      6          6           0        0.598105    0.477682   -0.170569
      7          1           0       -0.252644   -1.165471   -0.955636
      8          1           0       -0.508209   -1.271794    0.754872
      9          6           0        1.898073   -0.072349    0.136342
     10          1           0        0.661043    1.175682    0.564448
     11          1           0        0.691595    1.227660   -1.072230
     12          1           0        1.973686   -1.100830    1.252797
     13          1           0        2.665080    0.800014    0.134181
     14          1           0        2.443003   -0.412168   -0.634854
 ---------------------------------------------------------------------

 SCF Done:  E(RB2PLYPD3) =  -157.198596896     A.U. after   12 cycles
 E2(B2PLYPD3) =    -0.2569764127D+00 E(B2PLYPD3) =    -0.15745557330870D+03

 The electronic state is 1-A.
 Alpha  occ. eigenvalues --  -10.62792 -10.62628 -10.61789 -10.60794  -0.95285
 Alpha  occ. eigenvalues --   -0.89541  -0.76102  -0.67935  -0.53734  -0.49918
 Alpha  occ. eigenvalues --   -0.49388  -0.45573  -0.41418  -0.38716  -0.37582
 Alpha  occ. eigenvalues --   -0.36136  -0.34739
 Alpha virt. eigenvalues --   -0.00284   0.04538   0.06305   0.07443   0.10063
 Alpha virt. eigenvalues --    0.10515   0.11272   0.12792   0.13382   0.15468
 Alpha virt. eigenvalues --    0.15879   0.16760   0.17474   0.19578   0.20614

 Mulliken charges:
               1
     1  C   -0.908430
     2  C   -0.068178
     3  H    0.059685
     4  H    0.755277
     5  H    0.055344
     6  C   -0.019048
     7  H    0.069109
     8  H    0.054580
     9  C   -0.164665
    10  H    0.057903
    11  H    0.010310
    12  H    0.022018
    13  H    0.027555
    14  H    0.048541
 Sum of Mulliken charges =   0.00000

 Dipole moment (field-independent basis, Debye):
    X=              0.0972    Y=              0.2750    Z=             -0.9015  Tot=              0.9475
 Quadrupole moment (field-independent basis, Debye-Ang):
   XX=            -30.0377   YY=            -28.5496   ZZ=            -28.5304
   XY=              0.4248   XZ=             -0.6667   YZ=              0.3350

 Normal termination of Gaussian 09 at Wed Aug 26 21:49:46 2020.
