 Gaussian 09, Revision D.01,
 Gaussian 09:  ES64L-G09RevD.01 24-Apr-2013

 --------------------
 #p B2PLYPD3/Def2QZVP
 --------------------

 ----------
 butane_opt
 ----------
 Symbolic Z-matrix:
 Charge =  0 Multiplicity = 1

                         Standard orientation:
 ---------------------------------------------------------------------
 Center     Atomic      Atomic             Coordinates (Angstroms)
 Number     Number       Type             X           Y           Z
 ---------------------------------------------------------------------
      1          6           0       -1.990063    0.097829   -0.133658
      2          6           0       -0.497434   -0.500680    0.344860
      3          1           0       -2.783872   -0.712319   -0.810742
      4          1           0       -1.603052    0.355224   -0.949009
      5          1           0       -2.507026    0.952999    0.673321
      6          6           0        0.562679    0.546085    0.008410
      7          1           0       -0.427839   -1.014224   -0.222192
      8          1           0       -0.636860   -1.065572    1.178994
      9          6           0        1.927953   -0.152019   -0.116699
     10          1           0        0.717255    1.449086    0.910063
     11          1           0        0.165091    0.996416   -0.813919
     12          1           0        2.325370   -0.502249    0.571809
     13          1           0        2.607054    0.580875   -0.148318
     14          1           0        2.125068   -0.987525   -1.007482
 ---------------------------------------------------------------------

 SCF Done:  E(RB2PLYPD3) =  -157.788487698     A.U. after   11 cycles
 E2(B2PLYPD3) =    -0.2498510515D+00 E(B2PLYPD3) =    -0.15803833874976D+03

 The electronic state is 1-A.
 Alpha  occ. eigenvalues --  -10.62979 -10.62390 -10.58322 -10.57184  -0.93515
 Alpha  occ. eigenvalues --   -0.85403  -0.74564  -0.71341  -0.54889  -0.50007
 Alpha  occ. eigenvalues --   -0.49127  -0.47533  -0.43638  -0.42140  -0.38136
 Alpha  occ. eigenvalues --   -0.36942  -0.35223
 Alpha virt. eigenvalues --    0.05194   0.06189   0.07839   0.08897   0.10778
 Alpha virt. eigenvalues --    0.10941   0.12554   0.13671   0.14520   0.15239
 Alpha virt. eigenvalues --    0.16520   0.17143   0.18653   0.19396   0.20596

 Mulliken charges:
               1
     1  C   -0.243905
     2  C   -0.397313
     3  H    0.018679
     4  H    0.113219
     5  H    0.059984
     6  C    0.001822
     7  H    0.349102
     8  H    0.055231
     9  C   -0.171713
    10  H   -0.002418
    11  H    0.074823
    12  H    0.090295
    13  H    0.035332
    14  H    0.016864
 Sum of Mulliken charges =   0.00000

 Dipole moment (field-independent basis, Debye):
    X=              0.7639    Y=             -0.0866    Z=             -0.1204  Tot=              0.7782
 Quadrupole moment (field-independent basis, Debye-Ang):
   XX=            -30.2360   YY=            -28.7986   ZZ=            -28.1336
   XY=             -0.2309   XZ=              0.9854   YZ=              0.6440

 Normal termination of Gaussian 09 at Wed Aug 26 13:32:10 2020.
