 Gaussian 09, Revision D.01,
 Gaussian 09:  ES64L-G09RevD.01 24-Apr-2013

 --------------------
 #p B2PLYPD3/Def2QZVP
 --------------------

 ----------
 butane_opt
 ----------
 Symbolic Z-matrix:
 Charge =  0 Multiplicity = 1

                         Standard orientation:
 ---------------------------------------------------------------------
 Center     Atomic      Atomic             Coordinates (Angstroms)
 Number     Number       Type             X           Y           Z
 ---------------------------------------------------------------------
      1          6           0        2.006511   -0.179287   -0.191060
      2          6           0        0.540063    0.633007    0.188161
      3          1           0        2.793381    0.424065   -0.494201
      4          1           0        1.806695   -0.933743   -0.995646
      5          1           0        2.325363   -0.914558    0.861828
      6          6           0       -0.643568   -0.451964    0.187012
      7          1           0        0.307746    0.924224   -0.538185
      8          1           0        0.603366    1.827416    1.184146
      9          6           0       -1.916418    0.035255   -0.188851
     10          1           0       -0.437180   -1.305646    1.320000
     11          1           0       -0.591739   -1.006415   -0.462736
     12          1           0       -2.487962    0.450912    0.489823
     13          1           0       -2.556701   -0.559828   -0.160835
     14          1           0       -1.682498    0.871504   -1.175761
 ---------------------------------------------------------------------

 SCF Done:  E(RB2PLYPD3) =  -157.703240091     A.U. after   11 cycles
 E2(B2PLYPD3) =    -0.2533398723D+00 E(B2PLYPD3) =    -0.15795657996293D+03

 The electronic state is 1-A.
 Alpha  occ. eigenvalues --  -10.63607 -10.63520 -10.61367 -10.58600  -0.94901
 Alpha  occ. eigenvalues --   -0.84942  -0.75712  -0.71060  -0.53525  -0.52458
 Alpha  occ. eigenvalues --   -0.48264  -0.44996  -0.43008  -0.38557  -0.38249
 Alpha  occ. eigenvalues --   -0.36889  -0.34549
 Alpha virt. eigenvalues --    0.04055   0.05622   0.06144   0.07088   0.10432
 Alpha virt. eigenvalues --    0.11086   0.12457   0.13291   0.13946   0.15216
 Alpha virt. eigenvalues --    0.15494   0.16000   0.17845   0.18614   0.20670

 Mulliken charges:
               1
     1  C   -0.161302
     2  C   -0.352771
     3  H    0.075480
     4  H    0.052347
     5  H    0.032910
     6  C   -0.153425
     7  H    0.324013
     8  H    0.018986
     9  C   -0.175688
    10  H   -0.021623
    11  H    0.203263
    12  H    0.036096
    13  H    0.086351
    14  H    0.035364
 Sum of Mulliken charges =   0.00000

 Dipole moment (field-independent basis, Debye):
    X=             -0.4843    Y=             -0.0529    Z=             -0.8543  Tot=              0.9834
 Quadrupole moment (field-independent basis, Debye-Ang):
   XX=            -28.0799   YY=            -29.5789   ZZ=            -29.5047
   XY=              0.7073   XZ=             -1.0949   YZ=              0.0436

 Normal termination of Gaussian 09 at Wed Aug 26 16:39:45 2020.
