 Gaussian 09, Revision D.01,
 Gaussian 09:  ES64L-G09RevD.01 24-Apr-2013

 --------------------
 #p B2PLYPD3/Def2QZVP
 --------------------

 ----------
 butane_opt
 ----------
 Symbolic Z-matrix:
 Charge =  0 Multiplicity = 1

                         Standard orientation:
 ---------------------------------------------------------------------
 Center     Atomic      Atomic             Coordinates (Angstroms)
 Number     Number       Type             X           Y           Z
 ---------------------------------------------------------------------
      1          6           0       -1.909112   -0.129558    0.207566
      2          6           0       -0.540399    0.457329   -0.215198
      3          1           0       -2.889864    0.995449    0.315204
      4          1           0       -1.671279   -0.703036    1.109416
      5          1           0       -2.327490   -0.868702   -0.711356
      6          6           0        0.510812   -0.530331   -0.180008
      7          1           0       -0.138150    0.840015    0.495578
      8          1           0       -0.930464    1.286976   -1.182616
      9          6           0        1.940616    0.129618    0.096808
     10          1           0        0.558131   -1.046779   -0.969778
     11          1           0        0.283448   -1.078085    0.729983
     12          1           0        2.337107    0.457470   -0.618459
     13          1           0        2.676892   -0.391458    0.142016
     14          1           0        2.090173    0.945801    1.235010
 ---------------------------------------------------------------------

 SCF Done:  E(RB2PLYPD3) =  -157.811711990     A.U. after   11 cycles
 E2(B2PLYPD3) =    -0.2520546584D+00 E(B2PLYPD3) =    -0.15806376664828D+03

 The electronic state is 1-A.
 Alpha  occ. eigenvalues --  -10.65367 -10.60475 -10.60037 -10.58982  -0.95032
 Alpha  occ. eigenvalues --   -0.85669  -0.75648  -0.67932  -0.57040  -0.49631
 Alpha  occ. eigenvalues --   -0.48667  -0.45907  -0.42462  -0.40654  -0.38343
 Alpha  occ. eigenvalues --   -0.36178  -0.35553
 Alpha virt. eigenvalues --    0.04285   0.05438   0.07403   0.08443   0.09595
 Alpha virt. eigenvalues --    0.11025   0.11922   0.13063   0.14011   0.15296
 Alpha virt. eigenvalues --    0.15472   0.16292   0.19064   0.19497   0.21066

 Mulliken charges:
               1
     1  C   -0.178591
     2  C   -0.120743
     3  H    0.015846
     4  H    0.067498
     5  H    0.042068
     6  C   -0.057131
     7  H    0.136910
     8  H    0.020040
     9  C   -0.195080
    10  H    0.060484
    11  H    0.052713
    12  H    0.078434
    13  H    0.069438
    14  H    0.008114
 Sum of Mulliken charges =   0.00000

 Dipole moment (field-independent basis, Debye):
    X=              0.8840    Y=             -0.6185    Z=             -0.2284  Tot=              1.1028
 Quadrupole moment (field-independent basis, Debye-Ang):
   XX=            -29.9635   YY=            -30.0687   ZZ=            -28.4967
   XY=             -0.5391   XZ=             -0.1341   YZ=              0.2394

 Normal termination of Gaussian 09 at Wed Aug 26 10:22:29 2020.
