 Gaussian 09, Revision D.01,
 Gaussian 09:  ES64L-G09RevD.01 24-Apr-2013

 --------------------
 #p B2PLYPD3/Def2QZVP
 --------------------

 ----------
 butane_opt
 ----------
 Symbolic Z-matrix:
 Charge =  0 Multiplicity = 1

                         Standard orientation:
 ---------------------------------------------------------------------
 Center     Atomic      Atomic             Coordinates (Angstroms)
 Number     Number       Type             X           Y           Z
 ---------------------------------------------------------------------
      1          6           0        1.935565   -0.055638    0.053154
      2          6           0        0.646614    0.462410   -0.178416
      3          1           0        2.708283    0.794111   -0.008211
      4          1           0        2.104745   -0.580400   -0.767675
      5          1           0        2.099216   -0.798803    1.271936
      6          6           0       -0.554079   -0.667642    0.068529
      7          1           0        0.593037    0.993521   -1.164069
      8          1           0        0.320533    1.318971    0.759919
      9          6           0       -2.017470    0.152541    0.013365
     10          1           0       -0.337592   -1.147441    0.884986
     11          1           0       -0.615674   -1.325917   -0.729950
     12          1           0       -2.439555    1.362902    1.171901
     13          1           0       -2.634496   -0.514833   -0.556550
     14          1           0       -1.862273    0.547867   -0.602079
 ---------------------------------------------------------------------

 SCF Done:  E(RB2PLYPD3) =  -157.732600067     A.U. after   11 cycles
 E2(B2PLYPD3) =    -0.2543001566D+00 E(B2PLYPD3) =    -0.15798690022323D+03

 The electronic state is 1-A.
 Alpha  occ. eigenvalues --  -10.63478 -10.62287 -10.61600 -10.61417  -0.91754
 Alpha  occ. eigenvalues --   -0.86843  -0.75715  -0.65753  -0.53784  -0.49817
 Alpha  occ. eigenvalues --   -0.48305  -0.47431  -0.43591  -0.40215  -0.36852
 Alpha  occ. eigenvalues --   -0.35634  -0.34401
 Alpha virt. eigenvalues --    0.01064   0.04861   0.06860   0.07781   0.09666
 Alpha virt. eigenvalues --    0.10375   0.11099   0.12476   0.13626   0.15280
 Alpha virt. eigenvalues --    0.15587   0.16495   0.18446   0.18682   0.20190

 Mulliken charges:
               1
     1  C   -0.165071
     2  C   -0.062625
     3  H    0.052461
     4  H    0.075032
     5  H    0.016884
     6  C   -0.036095
     7  H    0.046273
     8  H    0.008167
     9  C   -0.520619
    10  H    0.073240
    11  H    0.035466
    12  H    0.023159
    13  H    0.052947
    14  H    0.400781
 Sum of Mulliken charges =   0.00000

 Dipole moment (field-independent basis, Debye):
    X=              0.4766    Y=             -0.2583    Z=             -1.1712  Tot=              1.2906
 Quadrupole moment (field-independent basis, Debye-Ang):
   XX=            -32.1364   YY=            -29.2819   ZZ=            -28.0786
   XY=              0.6660   XZ=              0.7818   YZ=              0.1726

 Normal termination of Gaussian 09 at Wed Aug 26 12:06:07 2020.
