 Gaussian 09, Revision D.01,
 Gaussian 09:  ES64L-G09RevD.01 24-Apr-2013

 --------------------
 #p B2PLYPD3/Def2QZVP
 --------------------

 ----------
 butane_opt
 ----------
 Symbolic Z-matrix:
 Charge =  0 Multiplicity = 1

                         Standard orientation:
 ---------------------------------------------------------------------
 Center     Atomic      Atomic             Coordinates (Angstroms)
 Number     Number       Type             X           Y           Z
 ---------------------------------------------------------------------
      1          6           0        1.992773    0.077008   -0.110963
      2          6           0        0.689615   -0.438989    0.095672
      3          1           0        2.856048   -0.801049   -0.018284
      4          1           0        1.939042    0.502402    0.688081
      5          1           0        1.786831    1.066365   -1.210011
      6          6           0       -0.564225    0.557665    0.136120
      7          1           0        0.425661   -1.429157    1.106050
      8          1           0        0.476654   -0.958046   -0.704270
      9          6           0       -2.022357   -0.198030   -0.158043
     10          1           0       -0.512163    0.972865   -0.508540
     11          1           0       -0.420243    1.605509    1.236212
     12          1           0       -2.033061   -0.573251   -1.000309
     13          1           0       -2.622042    0.378781   -0.080996
     14          1           0       -2.471563   -0.750348    0.715354
 ---------------------------------------------------------------------

 SCF Done:  E(RB2PLYPD3) =  -157.639814719     A.U. after   11 cycles
 E2(B2PLYPD3) =    -0.2531572963D+00 E(B2PLYPD3) =    -0.15789297201501D+03

 The electronic state is 1-A.
 Alpha  occ. eigenvalues --  -10.62705 -10.62696 -10.62541 -10.57293  -0.93739
 Alpha  occ. eigenvalues --   -0.87716  -0.78194  -0.67894  -0.54916  -0.53367
 Alpha  occ. eigenvalues --   -0.49019  -0.45643  -0.42003  -0.41010  -0.39769
 Alpha  occ. eigenvalues --   -0.35351  -0.34135
 Alpha virt. eigenvalues --    0.03459   0.04798   0.06591   0.06840   0.10210
 Alpha virt. eigenvalues --    0.11369   0.11942   0.13427   0.13909   0.15084
 Alpha virt. eigenvalues --    0.15279   0.16159   0.17720   0.19174   0.21234

 Mulliken charges:
               1
     1  C   -0.205328
     2  C   -0.055486
     3  H    0.066127
     4  H    0.139606
     5  H    0.014104
     6  C   -0.377624
     7  H   -0.014845
     8  H    0.076086
     9  C   -0.235874
    10  H    0.347244
    11  H   -0.018353
    12  H    0.067396
    13  H    0.163132
    14  H    0.033816
 Sum of Mulliken charges =   0.00000

 Dipole moment (field-independent basis, Debye):
    X=             -0.4787    Y=             -0.1309    Z=             -0.6715  Tot=              0.8350
 Quadrupole moment (field-independent basis, Debye-Ang):
   XX=            -28.2299   YY=            -30.1550   ZZ=            -28.9032
   XY=             -0.9993   XZ=              1.0257   YZ=             -0.2676

 Normal termination of Gaussian 09 at Wed Aug 26 12:06:47 2020.
