 Gaussian 09, Revision D.01,
 Gaussian 09:  ES64L-G09RevD.01 24-Apr-2013

 --------------------
 #p B2PLYPD3/Def2QZVP
 --------------------

 ----------
 butane_opt
 ----------
 Symbolic Z-matrix:
 Charge =  0 Multiplicity = 1

                         Standard orientation:
 ---------------------------------------------------------------------
 Center     Atomic      Atomic             Coordinates (Angstroms)
 Number     Number       Type             X           Y           Z
 ---------------------------------------------------------------------
      1          6           0        2.007943    0.042967   -0.139611
      2          6           0        0.619365   -0.408399    0.207656
      3          1           0        2.793603   -0.744601   -0.229352
      4          1           0        1.916631    0.780304    0.651136
      5          1           0        2.002895    0.456119   -1.221488
      6          6           0       -0.615484    0.636498    0.153341
      7          1           0        0.761045   -1.033458    1.270998
      8          1           0        0.379186   -0.940229   -0.433761
      9          6           0       -1.993640   -0.161487   -0.149838
     10          1           0       -0.109992    0.861326   -0.605737
     11          1           0       -0.607874    1.444940    1.021902
     12          1           0       -1.733382   -0.955403   -0.995399
     13          1           0       -2.681812    0.408506   -0.895242
     14          1           0       -2.829410   -0.934982    1.007648
 ---------------------------------------------------------------------

 SCF Done:  E(RB2PLYPD3) =  -157.867704796     A.U. after   11 cycles
 E2(B2PLYPD3) =    -0.2549469349D+00 E(B2PLYPD3) =    -0.15812265173061D+03

 The electronic state is 1-A.
 Alpha  occ. eigenvalues --  -10.67495 -10.62585 -10.61163 -10.60116  -0.93329
 Alpha  occ. eigenvalues --   -0.82413  -0.72200  -0.67605  -0.55915  -0.52685
 Alpha  occ. eigenvalues --   -0.45755  -0.45397  -0.42016  -0.39137  -0.38396
 Alpha  occ. eigenvalues --   -0.37521  -0.33337
 Alpha virt. eigenvalues --    0.02554   0.05658   0.07854   0.08636   0.08950
 Alpha virt. eigenvalues --    0.11091   0.11841   0.12755   0.12982   0.14910
 Alpha virt. eigenvalues --    0.16090   0.17110   0.17968   0.18761   0.19767

 Mulliken charges:
               1
     1  C   -0.145477
     2  C   -0.184527
     3  H    0.062529
     4  H    0.073203
     5  H    0.014265
     6  C   -0.143636
     7  H    0.007000
     8  H    0.159316
     9  C   -0.161301
    10  H    0.150033
    11  H    0.042777
    12  H    0.034660
    13  H    0.057537
    14  H    0.033622
 Sum of Mulliken charges =   0.00000

 Dipole moment (field-independent basis, Debye):
    X=              0.3271    Y=             -0.0809    Z=             -0.7012  Tot=              0.7780
 Quadrupole moment (field-independent basis, Debye-Ang):
   XX=            -31.0547   YY=            -30.3679   ZZ=            -28.2816
   XY=             -0.9032   XZ=              0.2216   YZ=              0.8574

 Normal termination of Gaussian 09 at Wed Aug 26 10:46:15 2020.
