 Gaussian 09, Revision D.01,
 Gaussian 09:  ES64L-G09RevD.01 24-Apr-2013

 --------------------
 #p B2PLYPD3/Def2QZVP
 --------------------

 ----------
 butane_opt
 ----------
 Symbolic Z-matrix:
 Charge =  0 Multiplicity = 1

                         Standard orientation:
 ---------------------------------------------------------------------
 Center     Atomic      Atomic             Coordinates (Angstroms)
 Number     Number       Type             X           Y           Z
 ---------------------------------------------------------------------
      1          6           0        1.976371    0.110513   -0.165395
      2          6           0        0.668257   -0.492770    0.219921
      3          1           0        2.749320   -0.615973   -0.396407
      4          1           0        2.050663    0.614149    0.646711
      5          1           0        1.849356    0.853118   -1.308343
      6          6           0       -0.554600    0.561743    0.228086
      7          1           0        0.608505   -1.213589    1.394923
      8          1           0        0.351275   -1.074724   -0.536476
      9          6           0       -2.017519   -0.141695   -0.130430
     10          1           0       -0.277812    1.045782   -0.641042
     11          1           0       -0.540294    1.416566    1.209445
     12          1           0       -1.553833   -1.165891   -1.229754
     13          1           0       -2.979644    0.683081   -0.719783
     14          1           0       -2.692587   -0.769268    0.667634
 ---------------------------------------------------------------------

 SCF Done:  E(RB2PLYPD3) =  -157.871193449     A.U. after   11 cycles
 E2(B2PLYPD3) =    -0.2574644806D+00 E(B2PLYPD3) =    -0.15812865792914D+03

 The electronic state is 1-A.
 Alpha  occ. eigenvalues --  -10.69891 -10.65013 -10.63305 -10.61759  -0.91072
 Alpha  occ. eigenvalues --   -0.81112  -0.69977  -0.65027  -0.54601  -0.49599
 Alpha  occ. eigenvalues --   -0.45839  -0.44392  -0.40589  -0.39054  -0.38583
 Alpha  occ. eigenvalues --   -0.35625  -0.34683
 Alpha virt. eigenvalues --    0.03090   0.05521   0.05827   0.06902   0.08801
 Alpha virt. eigenvalues --    0.10475   0.10831   0.12579   0.13322   0.14629
 Alpha virt. eigenvalues --    0.15082   0.16328   0.17919   0.18893   0.20275

 Mulliken charges:
               1
     1  C   -0.161751
     2  C   -0.085976
     3  H    0.068216
     4  H    0.098699
     5  H    0.006991
     6  C   -0.047177
     7  H    0.002045
     8  H    0.091180
     9  C   -0.202786
    10  H    0.094817
    11  H    0.018859
    12  H   -0.008562
    13  H    0.048766
    14  H    0.076677
 Sum of Mulliken charges =   0.00000

 Dipole moment (field-independent basis, Debye):
    X=              0.2992    Y=              0.1407    Z=              0.1622  Tot=              0.3683
 Quadrupole moment (field-independent basis, Debye-Ang):
   XX=            -29.8994   YY=            -30.8474   ZZ=            -29.7508
   XY=             -0.8672   XZ=             -1.1199   YZ=              0.0060

 Normal termination of Gaussian 09 at Wed Aug 26 21:35:08 2020.
