 Gaussian 09, Revision D.01,
 Gaussian 09:  ES64L-G09RevD.01 24-Apr-2013

 --------------------
 #p B2PLYPD3/Def2QZVP
 --------------------

 ----------
 butane_opt
 ----------
 Symbolic Z-matrix:
 Charge =  0 Multiplicity = 1

                         Standard orientation:
 ---------------------------------------------------------------------
 Center     Atomic      Atomic             Coordinates (Angstroms)
 Number     Number       Type             X           Y           Z
 ---------------------------------------------------------------------
      1          6           0       -1.908927   -0.172703   -0.098532
      2          6           0       -0.532828    0.587816    0.020637
      3          1           0       -2.636466    0.375911    0.509687
      4          1           0       -1.971848   -0.563312    0.541220
      5          1           0       -2.280198   -1.022650   -1.111304
      6          6           0        0.539225   -0.474895    0.080619
      7          1           0       -0.485239    1.289380    0.997803
      8          1           0       -0.320234    1.279916   -0.891986
      9          6           0        1.870186    0.117527   -0.094981
     10          1           0        0.588636   -0.730299   -0.431733
     11          1           0        0.513332   -1.331376    1.093477
     12          1           0        2.061427    0.506794   -0.894583
     13          1           0        2.896978   -0.891146    0.000557
     14          1           0        1.827679    0.740313    0.740404
 ---------------------------------------------------------------------

 SCF Done:  E(RB2PLYPD3) =  -157.221470362     A.U. after   12 cycles
 E2(B2PLYPD3) =    -0.2518165940D+00 E(B2PLYPD3) =    -0.15747328695577D+03

 The electronic state is 1-A.
 Alpha  occ. eigenvalues --  -10.63941 -10.60113 -10.59377 -10.59066  -0.97259
 Alpha  occ. eigenvalues --   -0.88872  -0.75715  -0.72196  -0.57889  -0.49669
 Alpha  occ. eigenvalues --   -0.48814  -0.47326  -0.41990  -0.39694  -0.39379
 Alpha  occ. eigenvalues --   -0.37924  -0.34726
 Alpha virt. eigenvalues --    0.04635   0.05443   0.07042   0.07597   0.10533
 Alpha virt. eigenvalues --    0.11632   0.12028   0.12556   0.14719   0.15324
 Alpha virt. eigenvalues --    0.16173   0.17025   0.17831   0.19267   0.20748

 Mulliken charges:
               1
     1  C   -0.494419
     2  C    0.065463
     3  H    0.026164
     4  H    0.366234
     5  H    0.058580
     6  C   -0.844616
     7  H    0.017794
     8  H    0.037952
     9  C   -0.138151
    10  H    0.719132
    11  H    0.043609
    12  H    0.086474
    13  H   -0.012100
    14  H    0.067884
 Sum of Mulliken charges =   0.00000

 Dipole moment (field-independent basis, Debye):
    X=             -0.3983    Y=             -0.0059    Z=              0.1435  Tot=              0.4234
 Quadrupole moment (field-independent basis, Debye-Ang):
   XX=            -31.8974   YY=            -28.9189   ZZ=            -27.2361
   XY=              1.1483   XZ=             -2.1044   YZ=              0.4078

 Normal termination of Gaussian 09 at Wed Aug 26 23:30:01 2020.
