 Gaussian 09, Revision D.01,
 Gaussian 09:  ES64L-G09RevD.01 24-Apr-2013

 --------------------
 #p B2PLYPD3/Def2QZVP
 --------------------

 ----------
 butane_opt
 ----------
 Symbolic Z-matrix:
 Charge =  0 Multiplicity = 1

                         Standard orientation:
 ---------------------------------------------------------------------
 Center     Atomic      Atomic             Coordinates (Angstroms)
 Number     Number       Type             X           Y           Z
 ---------------------------------------------------------------------
      1          6           0        1.869019   -0.085728    0.059304
      2          6           0        0.607791    0.505109    0.052245
      3          1           0        2.859477    0.772787   -0.320051
      4          1           0        2.041930   -0.750001   -0.874152
      5          1           0        2.149846   -0.770522    0.936888
      6          6           0       -0.494380   -0.657434    0.031884
      7          1           0        0.720812    1.617286   -1.195088
      8          1           0        0.760828    0.958436    0.718882
      9          6           0       -2.053713    0.153009   -0.040759
     10          1           0       -0.297705   -1.255540    0.962959
     11          1           0       -0.443417   -1.220939   -0.865785
     12          1           0       -2.666970    1.255593    1.261584
     13          1           0       -2.739451   -0.488308   -0.734974
     14          1           0       -1.957648    0.391473   -0.506308
 ---------------------------------------------------------------------

 SCF Done:  E(RB2PLYPD3) =  -156.983846193     A.U. after   12 cycles
 E2(B2PLYPD3) =    -0.2603567165D+00 E(B2PLYPD3) =    -0.15724420290992D+03

 The electronic state is 1-A.
 Alpha  occ. eigenvalues --  -10.65913 -10.65545 -10.63573 -10.62858  -0.94831
 Alpha  occ. eigenvalues --   -0.90761  -0.76255  -0.69210  -0.53637  -0.50336
 Alpha  occ. eigenvalues --   -0.47332  -0.47070  -0.43742  -0.39937  -0.36752
 Alpha  occ. eigenvalues --   -0.35098  -0.32965
 Alpha virt. eigenvalues --   -0.00861   0.01809   0.05487   0.06761   0.09722
 Alpha virt. eigenvalues --    0.10191   0.10692   0.11866   0.13814   0.15343
 Alpha virt. eigenvalues --    0.15575   0.16069   0.17320   0.18062   0.19233

 Mulliken charges:
               1
     1  C   -0.153571
     2  C   -0.219956
     3  H    0.030405
     4  H    0.023746
     5  H    0.054566
     6  C   -0.018912
     7  H   -0.044396
     8  H    0.250992
     9  C   -0.944378
    10  H    0.061487
    11  H    0.075699
    12  H    0.036445
    13  H    0.066747
    14  H    0.781125
 Sum of Mulliken charges =   0.00000

 Dipole moment (field-independent basis, Debye):
    X=              0.3629    Y=             -0.7852    Z=              0.0062  Tot=              0.8650
 Quadrupole moment (field-independent basis, Debye-Ang):
   XX=            -32.3077   YY=            -29.9911   ZZ=            -28.0449
   XY=             -0.5015   XZ=              1.5822   YZ=              1.0124

 Normal termination of Gaussian 09 at Wed Aug 26 20:08:54 2020.
