 Gaussian 09, Revision D.01,
 Gaussian 09:  ES64L-G09RevD.01 24-Apr-2013

 --------------------
 #p B2PLYPD3/Def2QZVP
 --------------------

 ----------
 butane_opt
 ----------
 Symbolic Z-matrix:
 Charge =  0 Multiplicity = 1

                         Standard orientation:
 ---------------------------------------------------------------------
 Center     Atomic      Atomic             Coordinates (Angstroms)
 Number     Number       Type             X           Y           Z
 ---------------------------------------------------------------------
      1          6           0        1.967081   -0.205505   -0.171572
      2          6           0        0.584364    0.692604    0.125644
      3          1           0        2.652459    0.369835   -0.228029
      4          1           0        2.408853   -0.864966   -0.855219
      5          1           0        2.211323   -0.780927    0.633021
      6          6           0       -0.627401   -0.447036    0.248055
      7          1           0        0.246685    0.936982   -0.453183
      8          1           0        0.422044    1.486529    0.939728
      9          6           0       -1.924954    0.082051   -0.185980
     10          1           0       -0.763351   -1.256525    1.421059
     11          1           0       -0.397503   -0.972187   -0.375021
     12          1           0       -2.308005    0.720022    0.501678
     13          1           0       -2.788360   -0.834054   -0.560848
     14          1           0       -1.678684    0.462601   -1.120068
 ---------------------------------------------------------------------

 SCF Done:  E(RB2PLYPD3) =  -157.679959769     A.U. after   11 cycles
 E2(B2PLYPD3) =    -0.2495033951D+00 E(B2PLYPD3) =    -0.15792946316433D+03

 The electronic state is 1-A.
 Alpha  occ. eigenvalues --  -10.60703 -10.60578 -10.60509 -10.57667  -0.93841
 Alpha  occ. eigenvalues --   -0.85449  -0.79518  -0.70062  -0.54792  -0.50811
 Alpha  occ. eigenvalues --   -0.49252  -0.47759  -0.44262  -0.42488  -0.40098
 Alpha  occ. eigenvalues --   -0.37205  -0.33704
 Alpha virt. eigenvalues --    0.05162   0.06482   0.07601   0.08673   0.11077
 Alpha virt. eigenvalues --    0.11393   0.12523   0.13825   0.14848   0.15351
 Alpha virt. eigenvalues --    0.16169   0.17057   0.17996   0.19319   0.20055

 Mulliken charges:
               1
     1  C   -0.157091
     2  C   -0.549002
     3  H    0.079447
     4  H    0.026203
     5  H    0.051421
     6  C   -0.212908
     7  H    0.497950
     8  H    0.072814
     9  C   -0.155141
    10  H   -0.015632
    11  H    0.214972
    12  H    0.071458
    13  H    0.021345
    14  H    0.054164
 Sum of Mulliken charges =   0.00000

 Dipole moment (field-independent basis, Debye):
    X=              0.4352    Y=              0.4366    Z=             -0.5612  Tot=              0.8337
 Quadrupole moment (field-independent basis, Debye-Ang):
   XX=            -28.0669   YY=            -28.4778   ZZ=            -28.7914
   XY=             -1.0482   XZ=             -0.3025   YZ=              1.0126

 Normal termination of Gaussian 09 at Wed Aug 26 19:20:47 2020.
