 Gaussian 09, Revision D.01,
 Gaussian 09:  ES64L-G09RevD.01 24-Apr-2013

 --------------------
 #p B2PLYPD3/Def2QZVP
 --------------------

 ----------
 butane_opt
 ----------
 Symbolic Z-matrix:
 Charge =  0 Multiplicity = 1

                         Standard orientation:
 ---------------------------------------------------------------------
 Center     Atomic      Atomic             Coordinates (Angstroms)
 Number     Number       Type             X           Y           Z
 ---------------------------------------------------------------------
      1          6           0        1.884152    0.068385   -0.001984
      2          6           0        0.598289   -0.393377    0.005948
      3          1           0        2.826138   -0.976532   -0.060758
      4          1           0        1.710512    0.540319    0.772749
      5          1           0        2.055199    0.936293   -1.007808
      6          6           0       -0.538379    0.583318    0.080972
      7          1           0        0.498812   -1.124395    1.007311
      8          1           0        0.283900   -1.018812   -0.972124
      9          6           0       -1.906607   -0.158837   -0.114113
     10          1           0       -0.169054    1.073657   -0.546250
     11          1           0       -0.635316    1.352452    1.113082
     12          1           0       -1.921031   -0.742203   -0.849507
     13          1           0       -2.725815    0.497113   -0.307939
     14          1           0       -2.148071   -1.134824    1.026309
 ---------------------------------------------------------------------

 SCF Done:  E(RB2PLYPD3) =  -157.829428803     A.U. after   11 cycles
 E2(B2PLYPD3) =    -0.2536378508D+00 E(B2PLYPD3) =    -0.15808306665431D+03

 The electronic state is 1-A.
 Alpha  occ. eigenvalues --  -10.62914 -10.62828 -10.62695 -10.61312  -0.96168
 Alpha  occ. eigenvalues --   -0.85630  -0.75226  -0.64786  -0.55901  -0.51769
 Alpha  occ. eigenvalues --   -0.49728  -0.45023  -0.42836  -0.41188  -0.37174
 Alpha  occ. eigenvalues --   -0.36355  -0.34061
 Alpha virt. eigenvalues --    0.03756   0.04761   0.07087   0.07380   0.09779
 Alpha virt. eigenvalues --    0.10444   0.11998   0.12972   0.14189   0.14733
 Alpha virt. eigenvalues --    0.14991   0.15729   0.18838   0.19951   0.20427

 Mulliken charges:
               1
     1  C   -0.213583
     2  C   -0.019979
     3  H    0.057354
     4  H    0.125476
     5  H    0.006360
     6  C   -0.138513
     7  H    0.018423
     8  H    0.019608
     9  C   -0.153794
    10  H    0.154617
    11  H    0.003255
    12  H    0.081754
    13  H    0.059895
    14  H   -0.000873
 Sum of Mulliken charges =   0.00000

 Dipole moment (field-independent basis, Debye):
    X=             -0.1429    Y=              0.2020    Z=             -0.4796  Tot=              0.5396
 Quadrupole moment (field-independent basis, Debye-Ang):
   XX=            -31.1408   YY=            -29.8943   ZZ=            -29.1350
   XY=             -1.0776   XZ=              1.2525   YZ=              0.0255

 Normal termination of Gaussian 09 at Wed Aug 26 18:53:05 2020.
