 Gaussian 09, Revision D.01,
 Gaussian 09:  ES64L-G09RevD.01 24-Apr-2013

 --------------------
 #p B2PLYPD3/Def2QZVP
 --------------------

 ----------
 butane_opt
 ----------
 Symbolic Z-matrix:
 Charge =  0 Multiplicity = 1

                         Standard orientation:
 ---------------------------------------------------------------------
 Center     Atomic      Atomic             Coordinates (Angstroms)
 Number     Number       Type             X           Y           Z
 ---------------------------------------------------------------------
      1          6           0        1.922226   -0.192547   -0.092313
      2          6           0        0.441237    0.616247    0.159779
      3          1           0        2.794050    0.822669   -0.704468
      4          1           0        1.793963   -0.484508   -0.862638
      5          1           0        2.627535   -1.141442    0.997389
      6          6           0       -0.552129   -0.482051    0.001360
      7          1           0        0.244685    1.112144   -0.371088
      8          1           0        0.380919    1.330942    1.122595
      9          6           0       -1.858712    0.023374   -0.148450
     10          1           0       -0.452358   -1.123388    0.870010
     11          1           0       -0.487909   -0.945599   -0.764910
     12          1           0       -1.975952    0.677674    0.800574
     13          1           0       -2.558073   -0.699790    0.249364
     14          1           0       -2.082593    0.661162   -0.859087
 ---------------------------------------------------------------------

 SCF Done:  E(RB2PLYPD3) =  -157.666336475     A.U. after   12 cycles
 E2(B2PLYPD3) =    -0.2529258113D+00 E(B2PLYPD3) =    -0.15791926228583D+03

 The electronic state is 1-A.
 Alpha  occ. eigenvalues --  -10.65731 -10.59586 -10.58348 -10.57158  -0.95906
 Alpha  occ. eigenvalues --   -0.84707  -0.76164  -0.71467  -0.57937  -0.52436
 Alpha  occ. eigenvalues --   -0.49514  -0.46043  -0.42392  -0.40426  -0.37874
 Alpha  occ. eigenvalues --   -0.37216  -0.33612
 Alpha virt. eigenvalues --    0.01905   0.05725   0.07057   0.08431   0.09253
 Alpha virt. eigenvalues --    0.10740   0.12349   0.13238   0.14026   0.15333
 Alpha virt. eigenvalues --    0.15687   0.16723   0.18459   0.19535   0.20546

 Mulliken charges:
               1
     1  C   -0.380877
     2  C   -0.362277
     3  H   -0.015973
     4  H    0.264854
     5  H    0.065268
     6  C   -0.031511
     7  H    0.346686
     8  H    0.039656
     9  C   -0.178673
    10  H    0.039461
    11  H    0.086648
    12  H    0.007324
    13  H    0.059770
    14  H    0.059645
 Sum of Mulliken charges =   0.00000

 Dipole moment (field-independent basis, Debye):
    X=             -0.8088    Y=             -0.2288    Z=             -0.3740  Tot=              0.9200
 Quadrupole moment (field-independent basis, Debye-Ang):
   XX=            -32.6503   YY=            -28.5409   ZZ=            -27.7501
   XY=             -1.0511   XZ=              0.1585   YZ=             -1.0066

 Normal termination of Gaussian 09 at Wed Aug 26 23:26:23 2020.
