 Gaussian 09, Revision D.01,
 Gaussian 09:  ES64L-G09RevD.01 24-Apr-2013

 --------------------
 #p B2PLYPD3/Def2QZVP
 --------------------

 ----------
 butane_opt
 ----------
 Symbolic Z-matrix:
 Charge =  0 Multiplicity = 1

                         Standard orientation:
 ---------------------------------------------------------------------
 Center     Atomic      Atomic             Coordinates (Angstroms)
 Number     Number       Type             X           Y           Z
 ---------------------------------------------------------------------
      1          6           0        1.918917   -0.100738    0.069734
      2          6           0        0.482015    0.558869   -0.132476
      3          1           0        2.689572    0.439239    0.389812
      4          1           0        2.358222   -0.666018   -0.732564
      5          1           0        1.730187   -1.063033    1.213368
      6          6           0       -0.523622   -0.481770   -0.230748
      7          1           0        0.521963    1.279584   -0.875205
      8          1           0        0.545098    1.286536    0.884401
      9          6           0       -1.924283    0.079013    0.096790
     10          1           0       -0.147409   -1.141982    0.513191
     11          1           0       -0.592982   -1.204618   -1.271192
     12          1           0       -1.730162    0.629553    1.007582
     13          1           0       -2.728175   -0.727606    0.790276
     14          1           0       -2.364471    0.836099   -0.739472
 ---------------------------------------------------------------------

 SCF Done:  E(RB2PLYPD3) =  -157.968394999     A.U. after   11 cycles
 E2(B2PLYPD3) =    -0.2532043427D+00 E(B2PLYPD3) =    -0.15822159934160D+03

 The electronic state is 1-A.
 Alpha  occ. eigenvalues --  -10.63541 -10.63081 -10.62863 -10.62358  -0.92050
 Alpha  occ. eigenvalues --   -0.81703  -0.72666  -0.66492  -0.53918  -0.49959
 Alpha  occ. eigenvalues --   -0.48110  -0.46655  -0.41686  -0.39335  -0.37030
 Alpha  occ. eigenvalues --   -0.36324  -0.35593
 Alpha virt. eigenvalues --    0.04252   0.05556   0.06778   0.07944   0.10309
 Alpha virt. eigenvalues --    0.11124   0.11321   0.13049   0.13673   0.14818
 Alpha virt. eigenvalues --    0.15564   0.17460   0.18523   0.19540   0.20491

 Mulliken charges:
               1
     1  C   -0.147008
     2  C   -0.004676
     3  H    0.067680
     4  H    0.055661
     5  H   -0.033423
     6  C   -0.040098
     7  H    0.042988
     8  H    0.007825
     9  C   -0.185441
    10  H    0.073688
    11  H    0.021535
    12  H    0.054603
    13  H    0.031850
    14  H    0.054817
 Sum of Mulliken charges =   0.00000

 Dipole moment (field-independent basis, Debye):
    X=              0.4241    Y=              0.6448    Z=             -0.2134  Tot=              0.8007
 Quadrupole moment (field-independent basis, Debye-Ang):
   XX=            -30.5951   YY=            -29.8535   ZZ=            -29.0326
   XY=              0.5902   XZ=             -0.9182   YZ=             -0.2144

 Normal termination of Gaussian 09 at Wed Aug 26 20:09:14 2020.
