 Gaussian 09, Revision D.01,
 Gaussian 09:  ES64L-G09RevD.01 24-Apr-2013

 --------------------
 #p B2PLYPD3/Def2QZVP
 --------------------

 ----------
 butane_opt
 ----------
 Symbolic Z-matrix:
 Charge =  0 Multiplicity = 1

                         Standard orientation:
 ---------------------------------------------------------------------
 Center     Atomic      Atomic             Coordinates (Angstroms)
 Number     Number       Type             X           Y           Z
 ---------------------------------------------------------------------
      1          6           0       -1.977791   -0.216668   -0.070179
      2          6           0       -0.501751    0.551680   -0.073575
      3          1           0       -2.850791    0.589775   -0.205559
      4          1           0       -2.368928   -0.464810    0.886138
      5          1           0       -1.921140   -1.255003   -0.912941
      6          6           0        0.658283   -0.396211    0.282104
      7          1           0       -0.480575    1.731630    0.773500
      8          1           0       -0.218643    0.714054   -0.952967
      9          6           0        1.877274    0.009565   -0.151311
     10          1           0        0.646539   -0.801728   -0.221393
     11          1           0        0.442781   -0.851792    1.455818
     12          1           0        1.447491    0.447551   -1.076887
     13          1           0        2.763897   -0.872079   -0.384996
     14          1           0        2.203279    1.072210    0.717052
 ---------------------------------------------------------------------

 SCF Done:  E(RB2PLYPD3) =  -157.539062300     A.U. after   12 cycles
 E2(B2PLYPD3) =    -0.2555588429D+00 E(B2PLYPD3) =    -0.15779462114260D+03

 The electronic state is 1-A.
 Alpha  occ. eigenvalues --  -10.64914 -10.64764 -10.64114 -10.57913  -1.00741
 Alpha  occ. eigenvalues --   -0.82858  -0.72290  -0.68408  -0.57057  -0.50417
 Alpha  occ. eigenvalues --   -0.47150  -0.46114  -0.42512  -0.40272  -0.37431
 Alpha  occ. eigenvalues --   -0.36260  -0.34556
 Alpha virt. eigenvalues --    0.04197   0.05376   0.06682   0.07891   0.09694
 Alpha virt. eigenvalues --    0.10396   0.11968   0.12463   0.13581   0.14376
 Alpha virt. eigenvalues --    0.15261   0.15888   0.17722   0.19250   0.19847

 Mulliken charges:
               1
     1  C   -0.151668
     2  C   -0.060106
     3  H    0.040878
     4  H    0.059010
     5  H    0.038000
     6  C   -0.737812
     7  H   -0.001276
     8  H    0.118617
     9  C   -0.141961
    10  H    0.683097
    11  H    0.040219
    12  H    0.048054
    13  H    0.061088
    14  H    0.003862
 Sum of Mulliken charges =   0.00000

 Dipole moment (field-independent basis, Debye):
    X=             -0.3838    Y=             -0.6435    Z=             -0.4315  Tot=              0.8646
 Quadrupole moment (field-independent basis, Debye-Ang):
   XX=            -30.6809   YY=            -30.2452   ZZ=            -28.9593
   XY=             -1.7297   XZ=             -1.6480   YZ=              0.9993

 Normal termination of Gaussian 09 at Wed Aug 26 15:21:10 2020.
