 Gaussian 09, Revision D.01,
 Gaussian 09:  ES64L-G09RevD.01 24-Apr-2013

 --------------------
 #p B2PLYPD3/Def2QZVP
 --------------------

 ----------
 butane_opt
 ----------
 Symbolic Z-matrix:
 Charge =  0 Multiplicity = 1

                         Standard orientation:
 ---------------------------------------------------------------------
 Center     Atomic      Atomic             Coordinates (Angstroms)
 Number     Number       Type             X           Y           Z
 ---------------------------------------------------------------------
      1          6           0       -1.929293   -0.208063    0.083311
      2          6           0       -0.471058    0.622895   -0.025656
      3          1           0       -2.656165    0.640222   -0.435738
      4          1           0       -2.324893   -1.329257    1.217526
      5          1           0       -1.776090   -0.345006   -0.398294
      6          6           0        0.571844   -0.456469   -0.175379
      7          1           0       -0.339795    1.051136    0.737663
      8          1           0       -0.373238    1.543000   -1.052423
      9          6           0        1.828448   -0.009259    0.106460
     10          1           0        0.620935   -1.267850   -1.435802
     11          1           0        0.406510   -0.912494    0.468984
     12          1           0        1.978709    0.577376   -0.676610
     13          1           0        2.662194   -0.769326    0.266688
     14          1           0        1.802187    1.117575    1.375594
 ---------------------------------------------------------------------

 SCF Done:  E(RB2PLYPD3) =  -156.856845474     A.U. after   12 cycles
 E2(B2PLYPD3) =    -0.2598642719D+00 E(B2PLYPD3) =    -0.15711670974555D+03

 The electronic state is 1-A.
 Alpha  occ. eigenvalues --  -10.65115 -10.63539 -10.63265 -10.60736  -0.97701
 Alpha  occ. eigenvalues --   -0.90697  -0.76982  -0.70287  -0.56492  -0.49729
 Alpha  occ. eigenvalues --   -0.47445  -0.46142  -0.42627  -0.40937  -0.37378
 Alpha  occ. eigenvalues --   -0.36699  -0.32497
 Alpha virt. eigenvalues --    0.00868   0.01099   0.04280   0.06819   0.09604
 Alpha virt. eigenvalues --    0.10243   0.10994   0.12396   0.13077   0.14606
 Alpha virt. eigenvalues --    0.15098   0.16064   0.17787   0.18714   0.20544

 Mulliken charges:
               1
     1  C   -1.093502
     2  C   -0.081889
     3  H    0.091846
     4  H    0.073884
     5  H    0.877400
     6  C   -0.290460
     7  H    0.153710
     8  H    0.006627
     9  C   -0.136843
    10  H    0.003912
    11  H    0.296254
    12  H    0.077785
    13  H    0.075799
    14  H   -0.054524
 Sum of Mulliken charges =   0.00000

 Dipole moment (field-independent basis, Debye):
    X=              0.2048    Y=             -0.6266    Z=             -0.4090  Tot=              0.7758
 Quadrupole moment (field-independent basis, Debye-Ang):
   XX=            -31.5507   YY=            -29.0951   ZZ=            -28.9704
   XY=             -1.0107   XZ=             -1.2294   YZ=             -1.6765

 Normal termination of Gaussian 09 at Wed Aug 26 11:04:35 2020.
