 Gaussian 09, Revision D.01,
 Gaussian 09:  ES64L-G09RevD.01 24-Apr-2013

 --------------------
 #p B2PLYPD3/Def2QZVP
 --------------------

 ----------
 butane_opt
 ----------
 Symbolic Z-matrix:
 Charge =  0 Multiplicity = 1

                         Standard orientation:
 ---------------------------------------------------------------------
 Center     Atomic      Atomic             Coordinates (Angstroms)
 Number     Number       Type             X           Y           Z
 ---------------------------------------------------------------------
      1          6           0       -2.067393   -0.137483   -0.103900
      2          6           0       -0.510641    0.576270    0.084868
      3          1           0       -2.802085    0.569305   -0.642293
      4          1           0       -2.489331   -1.133014    1.044018
      5          1           0       -1.873663   -0.704764   -0.886779
      6          6           0        0.667410   -0.444366    0.117670
      7          1           0       -0.658183    1.244404    0.966936
      8          1           0       -0.327015    1.000922   -0.561964
      9          6           0        1.949862    0.081279   -0.138795
     10          1           0        0.468975   -0.899378   -0.592815
     11          1           0        0.624234   -1.097734    1.143776
     12          1           0        2.005196    0.363721   -0.798910
     13          1           0        2.758252   -0.784685   -0.415679
     14          1           0        2.058194    0.987024    0.984651
 ---------------------------------------------------------------------

 SCF Done:  E(RB2PLYPD3) =  -157.590565984     A.U. after   11 cycles
 E2(B2PLYPD3) =    -0.2519957603D+00 E(B2PLYPD3) =    -0.15784256174458D+03

 The electronic state is 1-A.
 Alpha  occ. eigenvalues --  -10.64592 -10.60400 -10.59432 -10.58905  -0.95546
 Alpha  occ. eigenvalues --   -0.85383  -0.75568  -0.71422  -0.57351  -0.52393
 Alpha  occ. eigenvalues --   -0.48750  -0.46040  -0.42428  -0.38996  -0.37928
 Alpha  occ. eigenvalues --   -0.36596  -0.35758
 Alpha virt. eigenvalues --    0.03138   0.04316   0.07933   0.08623   0.09808
 Alpha virt. eigenvalues --    0.10540   0.11354   0.12439   0.12839   0.15579
 Alpha virt. eigenvalues --    0.16339   0.16736   0.18812   0.18861   0.19616

 Mulliken charges:
               1
     1  C   -0.213931
     2  C   -0.275558
     3  H    0.054652
     4  H    0.029963
     5  H    0.084259
     6  C   -0.078090
     7  H    0.043916
     8  H    0.259166
     9  C   -0.510405
    10  H    0.143805
    11  H    0.031126
    12  H    0.358352
    13  H    0.045710
    14  H    0.027035
 Sum of Mulliken charges =   0.00000

 Dipole moment (field-independent basis, Debye):
    X=              0.0930    Y=              0.0074    Z=             -1.2146  Tot=              1.2182
 Quadrupole moment (field-independent basis, Debye-Ang):
   XX=            -32.0422   YY=            -29.4087   ZZ=            -27.3941
   XY=             -1.0881   XZ=             -0.4680   YZ=             -0.1539

 Normal termination of Gaussian 09 at Wed Aug 26 16:19:25 2020.
