 Gaussian 09, Revision D.01,
 Gaussian 09:  ES64L-G09RevD.01 24-Apr-2013

 --------------------
 #p B2PLYPD3/Def2QZVP
 --------------------

 ----------
 butane_opt
 ----------
 Symbolic Z-matrix:
 Charge =  0 Multiplicity = 1

                         Standard orientation:
 ---------------------------------------------------------------------
 Center     Atomic      Atomic             Coordinates (Angstroms)
 Number     Number       Type             X           Y           Z
 ---------------------------------------------------------------------
      1          6           0        1.917973   -0.169107    0.096876
      2          6           0        0.508592    0.585300   -0.108291
      3          1           0        2.531993    0.197675    1.002342
      4          1           0        2.551777   -0.867013   -1.077084
      5          1           0        1.778623   -0.442059    0.601288
      6          6           0       -0.508003   -0.385916   -0.207272
      7          1           0        0.504388    1.501843   -1.009331
      8          1           0        0.213019    1.041312    0.769706
      9          6           0       -1.841775    0.054384    0.104901
     10          1           0       -0.521549   -1.534784    0.744064
     11          1           0       -0.502561   -0.785647   -0.876862
     12          1           0       -1.928270    0.544959    1.162238
     13          1           0       -2.897946   -0.846765   -0.042355
     14          1           0       -2.190194    0.682513   -0.591294
 ---------------------------------------------------------------------

 SCF Done:  E(RB2PLYPD3) =  -157.255041342     A.U. after   12 cycles
 E2(B2PLYPD3) =    -0.2548538616D+00 E(B2PLYPD3) =    -0.15750989520354D+03

 The electronic state is 1-A.
 Alpha  occ. eigenvalues --  -10.63166 -10.62429 -10.61980 -10.60021  -0.97167
 Alpha  occ. eigenvalues --   -0.90806  -0.77141  -0.70999  -0.56099  -0.50013
 Alpha  occ. eigenvalues --   -0.49233  -0.46404  -0.43492  -0.40457  -0.37681
 Alpha  occ. eigenvalues --   -0.36850  -0.32759
 Alpha virt. eigenvalues --    0.03767   0.04023   0.05784   0.07332   0.09657
 Alpha virt. eigenvalues --    0.10231   0.11631   0.12443   0.14056   0.15396
 Alpha virt. eigenvalues --    0.16528   0.16824   0.17400   0.19060   0.20482

 Mulliken charges:
               1
     1  C   -0.889409
     2  C   -0.008080
     3  H    0.035205
     4  H    0.062937
     5  H    0.746792
     6  C   -0.244366
     7  H    0.027014
     8  H    0.064770
     9  C   -0.118541
    10  H   -0.036974
    11  H    0.250519
    12  H    0.041605
    13  H    0.010399
    14  H    0.058130
 Sum of Mulliken charges =   0.00000

 Dipole moment (field-independent basis, Debye):
    X=             -0.1654    Y=              0.2887    Z=             -0.0857  Tot=              0.3436
 Quadrupole moment (field-independent basis, Debye-Ang):
   XX=            -31.2650   YY=            -30.5684   ZZ=            -27.0906
   XY=             -1.4699   XZ=              0.9347   YZ=              0.7006

 Normal termination of Gaussian 09 at Wed Aug 26 11:51:55 2020.
