 Gaussian 09, Revision D.01,
 Gaussian 09:  ES64L-G09RevD.01 24-Apr-2013

 --------------------
 #p B2PLYPD3/Def2QZVP
 --------------------

 ----------
 butane_opt
 ----------
 Symbolic Z-matrix:
 Charge =  0 Multiplicity = 1

                         Standard orientation:
 ---------------------------------------------------------------------
 Center     Atomic      Atomic             Coordinates (Angstroms)
 Number     Number       Type             X           Y           Z
 ---------------------------------------------------------------------
      1          6           0       -1.903743    0.078023    0.070888
      2          6           0       -0.577449   -0.465652    0.002985
      3          1           0       -2.747059   -0.712642   -0.537059
      4          1           0       -1.650138    0.438367   -0.655176
      5          1           0       -2.186502    1.086300    1.108197
      6          6           0        0.489544    0.518881   -0.121936
      7          1           0       -0.512984   -1.166220   -0.784321
      8          1           0       -0.457470   -1.047688    0.883506
      9          6           0        1.976189   -0.155627    0.054699
     10          1           0        0.363758    1.204167    0.747405
     11          1           0        0.408825    1.219260   -1.105772
     12          1           0        2.014326   -0.922452    0.992899
     13          1           0        2.775880    0.702216    0.022037
     14          1           0        2.084121   -0.655055   -0.711534
 ---------------------------------------------------------------------

 SCF Done:  E(RB2PLYPD3) =  -157.883044392     A.U. after   11 cycles
 E2(B2PLYPD3) =    -0.2519379491D+00 E(B2PLYPD3) =    -0.15813498234093D+03

 The electronic state is 1-A.
 Alpha  occ. eigenvalues --  -10.62466 -10.61327 -10.61149 -10.59519  -0.95634
 Alpha  occ. eigenvalues --   -0.84274  -0.73655  -0.66731  -0.55307  -0.49717
 Alpha  occ. eigenvalues --   -0.47743  -0.46896  -0.41820  -0.40560  -0.38299
 Alpha  occ. eigenvalues --   -0.36826  -0.35828
 Alpha virt. eigenvalues --    0.04172   0.05979   0.07273   0.07746   0.10304
 Alpha virt. eigenvalues --    0.11314   0.12327   0.12934   0.13811   0.15128
 Alpha virt. eigenvalues --    0.15684   0.16447   0.18868   0.19625   0.21009

 Mulliken charges:
               1
     1  C   -0.335845
     2  C   -0.009830
     3  H    0.033858
     4  H    0.219801
     5  H    0.036922
     6  C   -0.051758
     7  H    0.034794
     8  H    0.024953
     9  C   -0.199623
    10  H    0.037238
    11  H    0.016564
    12  H    0.045726
    13  H    0.045796
    14  H    0.101403
 Sum of Mulliken charges =   0.00000

 Dipole moment (field-independent basis, Debye):
    X=              0.4792    Y=             -0.1402    Z=             -0.5194  Tot=              0.7205
 Quadrupole moment (field-independent basis, Debye-Ang):
   XX=            -31.8121   YY=            -28.9935   ZZ=            -28.2338
   XY=              0.2693   XZ=              0.3247   YZ=              0.7135

 Normal termination of Gaussian 09 at Wed Aug 26 09:41:09 2020.
