 Gaussian 09, Revision D.01,
 Gaussian 09:  ES64L-G09RevD.01 24-Apr-2013

 --------------------
 #p B2PLYPD3/Def2QZVP
 --------------------

 ----------
 butane_opt
 ----------
 Symbolic Z-matrix:
 Charge =  0 Multiplicity = 1

                         Standard orientation:
 ---------------------------------------------------------------------
 Center     Atomic      Atomic             Coordinates (Angstroms)
 Number     Number       Type             X           Y           Z
 ---------------------------------------------------------------------
      1          6           0        1.905579   -0.149784    0.074650
      2          6           0        0.496542    0.642501   -0.005762
      3          1           0        2.642347    0.438997   -0.761971
      4          1           0        1.798428   -0.559409   -0.626970
      5          1           0        2.490308   -1.160299    1.154650
      6          6           0       -0.607772   -0.453747   -0.115087
      7          1           0        0.334309    1.140035   -0.739003
      8          1           0        0.393523    1.267465    0.873896
      9          6           0       -1.896555    0.049677    0.061873
     10          1           0       -0.346182   -1.154224    0.576529
     11          1           0       -0.443699   -1.012679   -0.957680
     12          1           0       -1.734209    0.784019    1.047713
     13          1           0       -2.662584   -0.700334    0.025941
     14          1           0       -1.859006    0.424554   -0.687149
 ---------------------------------------------------------------------

 SCF Done:  E(RB2PLYPD3) =  -157.745924938     A.U. after   11 cycles
 E2(B2PLYPD3) =    -0.2519899358D+00 E(B2PLYPD3) =    -0.15799791487411D+03

 The electronic state is 1-A.
 Alpha  occ. eigenvalues --  -10.62719 -10.59762 -10.57580 -10.57127  -0.95477
 Alpha  occ. eigenvalues --   -0.86921  -0.75730  -0.69973  -0.57094  -0.52096
 Alpha  occ. eigenvalues --   -0.49959  -0.45621  -0.39939  -0.39846  -0.39558
 Alpha  occ. eigenvalues --   -0.38213  -0.34975
 Alpha virt. eigenvalues --    0.01980   0.06015   0.07774   0.08215   0.10372
 Alpha virt. eigenvalues --    0.11304   0.12573   0.12776   0.14344   0.15689
 Alpha virt. eigenvalues --    0.15753   0.17051   0.18776   0.19451   0.20535

 Mulliken charges:
               1
     1  C   -0.435122
     2  C   -0.070634
     3  H    0.010459
     4  H    0.303379
     5  H    0.062891
     6  C   -0.028912
     7  H    0.104500
     8  H    0.029214
     9  C   -0.291482
    10  H    0.036212
    11  H    0.009189
    12  H    0.049680
    13  H    0.048127
    14  H    0.172499
 Sum of Mulliken charges =   0.00000

 Dipole moment (field-independent basis, Debye):
    X=             -0.3420    Y=             -0.4244    Z=             -0.7655  Tot=              0.9397
 Quadrupole moment (field-independent basis, Debye-Ang):
   XX=            -31.9485   YY=            -28.6259   ZZ=            -27.3081
   XY=             -0.5279   XZ=             -0.1072   YZ=             -0.4865

 Normal termination of Gaussian 09 at Wed Aug 26 15:43:33 2020.
