 Gaussian 09, Revision D.01,
 Gaussian 09:  ES64L-G09RevD.01 24-Apr-2013

 --------------------
 #p B2PLYPD3/Def2QZVP
 --------------------

 ----------
 butane_opt
 ----------
 Symbolic Z-matrix:
 Charge =  0 Multiplicity = 1

                         Standard orientation:
 ---------------------------------------------------------------------
 Center     Atomic      Atomic             Coordinates (Angstroms)
 Number     Number       Type             X           Y           Z
 ---------------------------------------------------------------------
      1          6           0        1.942735    0.074775    0.077707
      2          6           0        0.605134   -0.500092   -0.020995
      3          1           0        2.860399   -0.976356   -0.515841
      4          1           0        1.910024    1.425095    1.324280
      5          1           0        1.939639    0.198738   -0.420618
      6          6           0       -0.540244    0.619333   -0.146307
      7          1           0        0.549282   -1.234356    0.873307
      8          1           0        0.582375   -1.038394   -0.840379
      9          6           0       -1.948665   -0.166444    0.047911
     10          1           0       -0.183912    1.406376   -1.229541
     11          1           0       -0.464909    1.289337    0.749171
     12          1           0       -2.275976   -0.661451   -0.646608
     13          1           0       -2.771987    0.398800   -0.249273
     14          1           0       -2.498700   -0.973219    1.205600
 ---------------------------------------------------------------------

 SCF Done:  E(RB2PLYPD3) =  -156.884516126     A.U. after   13 cycles
 E2(B2PLYPD3) =    -0.2629059549D+00 E(B2PLYPD3) =    -0.15714742208121D+03

 The electronic state is 1-A.
 Alpha  occ. eigenvalues --  -10.67332 -10.66970 -10.62457 -10.61223  -0.96826
 Alpha  occ. eigenvalues --   -0.86554  -0.77470  -0.68696  -0.54520  -0.49138
 Alpha  occ. eigenvalues --   -0.46767  -0.43147  -0.41054  -0.39032  -0.37655
 Alpha  occ. eigenvalues --   -0.36836  -0.33889
 Alpha virt. eigenvalues --   -0.02941   0.02502   0.04493   0.05896   0.09248
 Alpha virt. eigenvalues --    0.10167   0.10976   0.11858   0.13084   0.15478
 Alpha virt. eigenvalues --    0.15734   0.15889   0.17348   0.19043   0.20046

 Mulliken charges:
               1
     1  C   -1.004921
     2  C    0.063250
     3  H    0.012805
     4  H    0.024420
     5  H    0.825032
     6  C   -0.096125
     7  H    0.046947
     8  H    0.058634
     9  C   -0.170156
    10  H    0.034460
    11  H    0.057636
    12  H    0.078474
    13  H    0.036576
    14  H    0.032967
 Sum of Mulliken charges =   0.00000

 Dipole moment (field-independent basis, Debye):
    X=             -1.0118    Y=              0.0284    Z=             -0.9803  Tot=              1.4091
 Quadrupole moment (field-independent basis, Debye-Ang):
   XX=            -32.3140   YY=            -29.4586   ZZ=            -28.5419
   XY=              0.4099   XZ=             -0.6988   YZ=              0.5969

 Normal termination of Gaussian 09 at Wed Aug 26 23:14:06 2020.
