 Gaussian 09, Revision D.01,
 Gaussian 09:  ES64L-G09RevD.01 24-Apr-2013

 --------------------
 #p B2PLYPD3/Def2QZVP
 --------------------

 ----------
 butane_opt
 ----------
 Symbolic Z-matrix:
 Charge =  0 Multiplicity = 1

                         Standard orientation:
 ---------------------------------------------------------------------
 Center     Atomic      Atomic             Coordinates (Angstroms)
 Number     Number       Type             X           Y           Z
 ---------------------------------------------------------------------
      1          6           0        1.903919   -0.085123    0.106166
      2          6           0        0.548115    0.564693   -0.232355
      3          1           0        2.573420    0.287121   -0.071332
      4          1           0        2.309087   -0.474350   -0.503021
      5          1           0        2.073806   -0.983715    1.305402
      6          6           0       -0.515608   -0.484583   -0.133600
      7          1           0        0.350500    1.153071   -1.133670
      8          1           0        0.186025    1.140471    0.603849
      9          6           0       -1.916765    0.031270    0.166630
     10          1           0       -0.065677   -0.978673    0.889109
     11          1           0       -0.749647   -1.112278   -0.879226
     12          1           0       -2.164423    1.301501    1.369850
     13          1           0       -2.752977   -0.861023   -0.482510
     14          1           0       -1.878082    0.370329   -0.539498
 ---------------------------------------------------------------------

 SCF Done:  E(RB2PLYPD3) =  -157.486999924     A.U. after   12 cycles
 E2(B2PLYPD3) =    -0.2583158765D+00 E(B2PLYPD3) =    -0.15774531580072D+03

 The electronic state is 1-A.
 Alpha  occ. eigenvalues --  -10.63576 -10.61830 -10.61334 -10.58381  -0.96334
 Alpha  occ. eigenvalues --   -0.92343  -0.80474  -0.67048  -0.55785  -0.52225
 Alpha  occ. eigenvalues --   -0.48275  -0.44248  -0.40396  -0.39013  -0.38042
 Alpha  occ. eigenvalues --   -0.35828  -0.34196
 Alpha virt. eigenvalues --   -0.00848   0.04287   0.05943   0.07499   0.09422
 Alpha virt. eigenvalues --    0.10630   0.11905   0.12624   0.14613   0.15366
 Alpha virt. eigenvalues --    0.15633   0.16534   0.17618   0.19723   0.20856

 Mulliken charges:
               1
     1  C   -0.473523
     2  C   -0.042084
     3  H    0.242349
     4  H    0.164535
     5  H    0.026122
     6  C   -0.023161
     7  H    0.026259
     8  H    0.066427
     9  C   -0.491791
    10  H    0.023982
    11  H    0.063695
    12  H    0.017754
    13  H    0.016487
    14  H    0.382947
 Sum of Mulliken charges =   0.00000

 Dipole moment (field-independent basis, Debye):
    X=              0.9952    Y=              0.2065    Z=             -1.4379  Tot=              1.7608
 Quadrupole moment (field-independent basis, Debye-Ang):
   XX=            -30.1404   YY=            -30.1284   ZZ=            -28.2626
   XY=             -0.4686   XZ=              0.7105   YZ=              0.5190

 Normal termination of Gaussian 09 at Wed Aug 26 21:42:25 2020.
