 Gaussian 09, Revision D.01,
 Gaussian 09:  ES64L-G09RevD.01 24-Apr-2013

 --------------------
 #p B2PLYPD3/Def2QZVP
 --------------------

 ----------
 butane_opt
 ----------
 Symbolic Z-matrix:
 Charge =  0 Multiplicity = 1

                         Standard orientation:
 ---------------------------------------------------------------------
 Center     Atomic      Atomic             Coordinates (Angstroms)
 Number     Number       Type             X           Y           Z
 ---------------------------------------------------------------------
      1          6           0        2.012352   -0.071188    0.154284
      2          6           0        0.616028    0.542960   -0.209934
      3          1           0        2.704510    0.703830    0.392357
      4          1           0        2.386897   -1.076108   -0.809320
      5          1           0        1.687526   -0.666626    1.008446
      6          6           0       -0.552430   -0.617916   -0.041394
      7          1           0        0.474110    1.291064   -1.178382
      8          1           0        0.391293    1.060286    0.446160
      9          6           0       -1.976245    0.132313    0.056038
     10          1           0       -0.696918   -1.244404    0.746625
     11          1           0       -0.389354   -1.060382   -0.782797
     12          1           0       -2.171437    1.211331    1.103442
     13          1           0       -2.698485   -0.426314   -0.119056
     14          1           0       -2.286370    0.290313   -0.561443
 ---------------------------------------------------------------------

 SCF Done:  E(RB2PLYPD3) =  -157.590725579     A.U. after   11 cycles
 E2(B2PLYPD3) =    -0.2512509192D+00 E(B2PLYPD3) =    -0.15784197649842D+03

 The electronic state is 1-A.
 Alpha  occ. eigenvalues --  -10.63436 -10.60419 -10.58980 -10.58314  -0.94298
 Alpha  occ. eigenvalues --   -0.88206  -0.78220  -0.69877  -0.55964  -0.50722
 Alpha  occ. eigenvalues --   -0.47359  -0.46353  -0.40687  -0.39458  -0.38346
 Alpha  occ. eigenvalues --   -0.37250  -0.35501
 Alpha virt. eigenvalues --    0.04624   0.05129   0.07938   0.08274   0.10150
 Alpha virt. eigenvalues --    0.10684   0.12553   0.13586   0.14059   0.15180
 Alpha virt. eigenvalues --    0.15966   0.16244   0.18514   0.19187   0.20510

 Mulliken charges:
               1
     1  C   -0.177552
     2  C   -0.163233
     3  H    0.073569
     4  H    0.007249
     5  H    0.070487
     6  C   -0.117978
     7  H    0.026501
     8  H    0.174590
     9  C   -0.547523
    10  H    0.052316
    11  H    0.113560
    12  H    0.033477
    13  H    0.055895
    14  H    0.398642
 Sum of Mulliken charges =   0.00000

 Dipole moment (field-independent basis, Debye):
    X=             -0.4578    Y=              0.0163    Z=             -0.1226  Tot=              0.4742
 Quadrupole moment (field-independent basis, Debye-Ang):
   XX=            -29.4928   YY=            -28.2954   ZZ=            -28.4937
   XY=              1.5120   XZ=              2.0655   YZ=              0.7383

 Normal termination of Gaussian 09 at Wed Aug 26 22:06:05 2020.
