 Gaussian 09, Revision D.01,
 Gaussian 09:  ES64L-G09RevD.01 24-Apr-2013

 --------------------
 #p B2PLYPD3/Def2QZVP
 --------------------

 ----------
 butane_opt
 ----------
 Symbolic Z-matrix:
 Charge =  0 Multiplicity = 1

                         Standard orientation:
 ---------------------------------------------------------------------
 Center     Atomic      Atomic             Coordinates (Angstroms)
 Number     Number       Type             X           Y           Z
 ---------------------------------------------------------------------
      1          6           0       -1.942985    0.075030   -0.134980
      2          6           0       -0.594714   -0.448381    0.204096
      3          1           0       -2.718522   -0.708822   -0.441476
      4          1           0       -1.836612    0.373740   -0.847821
      5          1           0       -2.282392    0.992934    0.853407
      6          6           0        0.547566    0.535038    0.038281
      7          1           0       -0.435101   -0.920660   -0.546806
      8          1           0       -0.470493   -1.134517    1.245507
      9          6           0        1.946253   -0.153561   -0.099967
     10          1           0        0.523561    1.246549    0.799365
     11          1           0        0.261436    1.009854   -0.832605
     12          1           0        2.287053   -0.674358    0.793879
     13          1           0        2.852994    0.664938   -0.075980
     14          1           0        2.081358   -0.898414   -0.992052
 ---------------------------------------------------------------------

 SCF Done:  E(RB2PLYPD3) =  -157.889881731     A.U. after   11 cycles
 E2(B2PLYPD3) =    -0.2483763914D+00 E(B2PLYPD3) =    -0.15813825812195D+03

 The electronic state is 1-A.
 Alpha  occ. eigenvalues --  -10.62573 -10.60023 -10.59939 -10.59380  -0.94370
 Alpha  occ. eigenvalues --   -0.84605  -0.74390  -0.68186  -0.55803  -0.49642
 Alpha  occ. eigenvalues --   -0.48931  -0.47096  -0.42207  -0.41735  -0.39675
 Alpha  occ. eigenvalues --   -0.37535  -0.35856
 Alpha virt. eigenvalues --    0.05184   0.06265   0.08346   0.08595   0.10736
 Alpha virt. eigenvalues --    0.11126   0.12266   0.13268   0.14449   0.14888
 Alpha virt. eigenvalues --    0.15984   0.16764   0.19169   0.19513   0.20897

 Mulliken charges:
               1
     1  C   -0.407313
     2  C   -0.110830
     3  H    0.052220
     4  H    0.285216
     5  H    0.020890
     6  C   -0.031786
     7  H    0.126388
     8  H    0.015516
     9  C   -0.146250
    10  H    0.041263
    11  H    0.042866
    12  H    0.045276
    13  H    0.026684
    14  H    0.039859
 Sum of Mulliken charges =   0.00000

 Dipole moment (field-independent basis, Debye):
    X=              0.1892    Y=             -0.1122    Z=             -0.5130  Tot=              0.5582
 Quadrupole moment (field-independent basis, Debye-Ang):
   XX=            -30.4246   YY=            -29.4673   ZZ=            -27.8834
   XY=              0.3148   XZ=              1.7018   YZ=              0.8046

 Normal termination of Gaussian 09 at Wed Aug 26 11:19:27 2020.
