 Gaussian 09, Revision D.01,
 Gaussian 09:  ES64L-G09RevD.01 24-Apr-2013

 --------------------
 #p B2PLYPD3/Def2QZVP
 --------------------

 ----------
 butane_opt
 ----------
 Symbolic Z-matrix:
 Charge =  0 Multiplicity = 1

                         Standard orientation:
 ---------------------------------------------------------------------
 Center     Atomic      Atomic             Coordinates (Angstroms)
 Number     Number       Type             X           Y           Z
 ---------------------------------------------------------------------
      1          6           0       -1.989083    0.103462    0.161987
      2          6           0       -0.679253   -0.485559   -0.143934
      3          1           0       -2.691033   -0.612485   -0.087323
      4          1           0       -2.129403    0.398597   -0.450958
      5          1           0       -2.167743    1.049870    1.175076
      6          6           0        0.579508    0.535575   -0.272054
      7          1           0       -0.777165   -1.223675   -1.090426
      8          1           0       -0.248119   -0.925193    0.604461
      9          6           0        2.004783   -0.142565    0.174729
     10          1           0        0.264484    1.025535    0.493557
     11          1           0        0.716729    1.215137   -1.036973
     12          1           0        1.923252   -1.013133    1.212896
     13          1           0        2.915383    0.722395    0.253974
     14          1           0        2.697886   -0.702527   -0.598654
 ---------------------------------------------------------------------

 SCF Done:  E(RB2PLYPD3) =  -157.705220799     A.U. after   11 cycles
 E2(B2PLYPD3) =    -0.2517062342D+00 E(B2PLYPD3) =    -0.15795692703289D+03

 The electronic state is 1-A.
 Alpha  occ. eigenvalues --  -10.65795 -10.61072 -10.60378 -10.58053  -0.94221
 Alpha  occ. eigenvalues --   -0.85466  -0.73874  -0.68334  -0.53789  -0.49711
 Alpha  occ. eigenvalues --   -0.49376  -0.45609  -0.41269  -0.40866  -0.39383
 Alpha  occ. eigenvalues --   -0.38518  -0.33999
 Alpha virt. eigenvalues --    0.05110   0.05712   0.07322   0.08623   0.10501
 Alpha virt. eigenvalues --    0.11312   0.11745   0.13768   0.14126   0.14710
 Alpha virt. eigenvalues --    0.15302   0.15977   0.18362   0.19252   0.21265

 Mulliken charges:
               1
     1  C   -0.596756
     2  C   -0.009058
     3  H    0.056084
     4  H    0.448018
     5  H    0.049320
     6  C   -0.086366
     7  H    0.007013
     8  H    0.078619
     9  C   -0.178450
    10  H    0.089143
    11  H    0.043237
    12  H    0.031046
    13  H    0.031662
    14  H    0.036488
 Sum of Mulliken charges =   0.00000

 Dipole moment (field-independent basis, Debye):
    X=             -0.3377    Y=              0.2529    Z=             -0.5017  Tot=              0.6555
 Quadrupole moment (field-independent basis, Debye-Ang):
   XX=            -28.7857   YY=            -29.0410   ZZ=            -28.9914
   XY=              0.0307   XZ=              0.3335   YZ=             -0.0425

 Normal termination of Gaussian 09 at Wed Aug 26 16:17:13 2020.
