 Gaussian 09, Revision D.01,
 Gaussian 09:  ES64L-G09RevD.01 24-Apr-2013

 --------------------
 #p B2PLYPD3/Def2QZVP
 --------------------

 ----------
 butane_opt
 ----------
 Symbolic Z-matrix:
 Charge =  0 Multiplicity = 1

                         Standard orientation:
 ---------------------------------------------------------------------
 Center     Atomic      Atomic             Coordinates (Angstroms)
 Number     Number       Type             X           Y           Z
 ---------------------------------------------------------------------
      1          6           0       -1.979648   -0.230189   -0.132320
      2          6           0       -0.569577    0.648004    0.225339
      3          1           0       -2.774837    0.448910   -0.850301
      4          1           0       -2.959528   -0.811317    0.874232
      5          1           0       -1.632599   -0.902053   -1.049972
      6          6           0        0.661585   -0.433149    0.163044
      7          1           0       -0.674539    1.476966    1.077786
      8          1           0       -0.322379    1.235229   -0.675222
      9          6           0        1.992399    0.080289   -0.147072
     10          1           0        0.318293   -1.163610   -0.635371
     11          1           0        0.650168   -1.038520    1.331227
     12          1           0        1.876066    0.727584   -1.173905
     13          1           0        2.789825   -0.799358   -0.100115
     14          1           0        2.100977    0.436434    0.547700
 ---------------------------------------------------------------------

 SCF Done:  E(RB2PLYPD3) =  -157.837978792     A.U. after   11 cycles
 E2(B2PLYPD3) =    -0.2558199921D+00 E(B2PLYPD3) =    -0.15809379878444D+03

 The electronic state is 1-A.
 Alpha  occ. eigenvalues --  -10.67677 -10.64997 -10.63952 -10.59107  -0.91855
 Alpha  occ. eigenvalues --   -0.81997  -0.70029  -0.65271  -0.54167  -0.49086
 Alpha  occ. eigenvalues --   -0.46915  -0.45249  -0.39958  -0.39050  -0.38449
 Alpha  occ. eigenvalues --   -0.37460  -0.34411
 Alpha virt. eigenvalues --    0.03621   0.05442   0.07394   0.07721   0.08746
 Alpha virt. eigenvalues --    0.10341   0.11432   0.12936   0.14205   0.14748
 Alpha virt. eigenvalues --    0.15552   0.16028   0.17812   0.18697   0.20577

 Mulliken charges:
               1
     1  C   -0.193274
     2  C   -0.056460
     3  H    0.026916
     4  H    0.050367
     5  H    0.054416
     6  C   -0.033992
     7  H    0.045309
     8  H    0.047589
     9  C   -0.364146
    10  H    0.050713
    11  H    0.000452
    12  H    0.050862
    13  H    0.052323
    14  H    0.268924
 Sum of Mulliken charges =   0.00000

 Dipole moment (field-independent basis, Debye):
    X=              0.4178    Y=              0.3722    Z=             -0.2911  Tot=              0.6308
 Quadrupole moment (field-independent basis, Debye-Ang):
   XX=            -30.8394   YY=            -30.2838   ZZ=            -28.6626
   XY=             -0.3582   XZ=              0.4765   YZ=              0.3200

 Normal termination of Gaussian 09 at Wed Aug 26 22:06:26 2020.
