 Gaussian 09, Revision D.01,
 Gaussian 09:  ES64L-G09RevD.01 24-Apr-2013

 --------------------
 #p B2PLYPD3/Def2QZVP
 --------------------

 ----------
 butane_opt
 ----------
 Symbolic Z-matrix:
 Charge =  0 Multiplicity = 1

                         Standard orientation:
 ---------------------------------------------------------------------
 Center     Atomic      Atomic             Coordinates (Angstroms)
 Number     Number       Type             X           Y           Z
 ---------------------------------------------------------------------
      1          6           0        1.991021    0.072515   -0.075206
      2          6           0        0.572468   -0.465562    0.006859
      3          1           0        2.848604   -1.022716    0.159252
      4          1           0        1.891523    0.526864    0.708695
      5          1           0        2.142622    0.997878   -1.114716
      6          6           0       -0.574177    0.578542    0.198209
      7          1           0        0.569419   -1.142669    0.930087
      8          1           0        0.217360   -0.821590   -0.817802
      9          6           0       -2.007099   -0.158115   -0.141691
     10          1           0       -0.143791    1.115906   -0.437843
     11          1           0       -0.499224    1.230365    1.209438
     12          1           0       -1.655593   -0.540766   -0.900236
     13          1           0       -2.651045    0.453527   -0.454563
     14          1           0       -2.613152   -0.961083    0.788664
 ---------------------------------------------------------------------

 SCF Done:  E(RB2PLYPD3) =  -157.845724850     A.U. after   11 cycles
 E2(B2PLYPD3) =    -0.2520828675D+00 E(B2PLYPD3) =    -0.15809780771769D+03

 The electronic state is 1-A.
 Alpha  occ. eigenvalues --  -10.63929 -10.61008 -10.60511 -10.60154  -0.93193
 Alpha  occ. eigenvalues --   -0.84504  -0.75301  -0.67521  -0.54877  -0.51872
 Alpha  occ. eigenvalues --   -0.47542  -0.45217  -0.42649  -0.40375  -0.39097
 Alpha  occ. eigenvalues --   -0.37924  -0.34502
 Alpha virt. eigenvalues --    0.03848   0.05609   0.07778   0.08481   0.10297
 Alpha virt. eigenvalues --    0.10686   0.12548   0.13074   0.14455   0.14739
 Alpha virt. eigenvalues --    0.15540   0.16332   0.17853   0.19618   0.20530

 Mulliken charges:
               1
     1  C   -0.248465
     2  C   -0.053390
     3  H    0.042483
     4  H    0.151952
     5  H    0.019763
     6  C   -0.136968
     7  H    0.026324
     8  H    0.075954
     9  C   -0.202723
    10  H    0.104792
    11  H    0.006478
    12  H    0.103963
    13  H    0.066791
    14  H    0.043046
 Sum of Mulliken charges =   0.00000

 Dipole moment (field-independent basis, Debye):
    X=             -0.3884    Y=              0.0576    Z=             -0.1516  Tot=              0.4209
 Quadrupole moment (field-independent basis, Debye-Ang):
   XX=            -30.6296   YY=            -29.6654   ZZ=            -28.3661
   XY=             -0.2231   XZ=              0.9876   YZ=             -0.8203

 Normal termination of Gaussian 09 at Wed Aug 26 19:18:59 2020.
