 Gaussian 09, Revision D.01,
 Gaussian 09:  ES64L-G09RevD.01 24-Apr-2013

 --------------------
 #p B2PLYPD3/Def2QZVP
 --------------------

 ----------
 butane_opt
 ----------
 Symbolic Z-matrix:
 Charge =  0 Multiplicity = 1

                         Standard orientation:
 ---------------------------------------------------------------------
 Center     Atomic      Atomic             Coordinates (Angstroms)
 Number     Number       Type             X           Y           Z
 ---------------------------------------------------------------------
      1          6           0       -2.028743    0.140147   -0.121472
      2          6           0       -0.612423   -0.570129   -0.030648
      3          1           0       -2.780630   -0.680903    0.582130
      4          1           0       -2.532709    1.492301   -1.153486
      5          1           0       -1.949269    0.390423    0.503639
      6          6           0        0.623353    0.389512    0.182667
      7          1           0       -0.208478   -0.939034   -0.703492
      8          1           0       -0.339365   -1.434412    0.828856
      9          6           0        1.982371   -0.014174   -0.098387
     10          1           0        0.413882    1.342134    1.533152
     11          1           0        0.845334    0.969533   -0.443683
     12          1           0        2.032908   -0.728691    0.691863
     13          1           0        2.757530    0.712286   -0.166726
     14          1           0        1.973444   -0.795773   -1.265211
 ---------------------------------------------------------------------

 SCF Done:  E(RB2PLYPD3) =  -157.381854788     A.U. after   13 cycles
 E2(B2PLYPD3) =    -0.2611697910D+00 E(B2PLYPD3) =    -0.15764302457877D+03

 The electronic state is 1-A.
 Alpha  occ. eigenvalues --  -10.64346 -10.63788 -10.62995 -10.62585  -0.95738
 Alpha  occ. eigenvalues --   -0.89775  -0.78762  -0.67761  -0.55800  -0.50327
 Alpha  occ. eigenvalues --   -0.46967  -0.46766  -0.43083  -0.39246  -0.37308
 Alpha  occ. eigenvalues --   -0.35029  -0.31717
 Alpha virt. eigenvalues --   -0.02213   0.02602   0.04758   0.06650   0.09800
 Alpha virt. eigenvalues --    0.10673   0.10991   0.12316   0.13185   0.14705
 Alpha virt. eigenvalues --    0.15611   0.16291   0.17498   0.18303   0.19469

 Mulliken charges:
               1
     1  C   -0.732884
     2  C   -0.135007
     3  H    0.045178
     4  H    0.066028
     5  H    0.612631
     6  C   -0.150250
     7  H    0.184170
     8  H    0.028774
     9  C   -0.171396
    10  H   -0.075794
    11  H    0.163745
    12  H    0.063919
    13  H    0.092225
    14  H    0.008660
 Sum of Mulliken charges =   0.00000

 Dipole moment (field-independent basis, Debye):
    X=              0.5801    Y=             -0.0520    Z=             -0.3243  Tot=              0.6667
 Quadrupole moment (field-independent basis, Debye-Ang):
   XX=            -30.2090   YY=            -29.7226   ZZ=            -30.1592
   XY=             -0.2410   XZ=             -1.9588   YZ=             -2.1699

 Normal termination of Gaussian 09 at Wed Aug 26 10:42:18 2020.
