 Gaussian 09, Revision D.01,
 Gaussian 09:  ES64L-G09RevD.01 24-Apr-2013

 --------------------
 #p B2PLYPD3/Def2QZVP
 --------------------

 ----------
 butane_opt
 ----------
 Symbolic Z-matrix:
 Charge =  0 Multiplicity = 1

                         Standard orientation:
 ---------------------------------------------------------------------
 Center     Atomic      Atomic             Coordinates (Angstroms)
 Number     Number       Type             X           Y           Z
 ---------------------------------------------------------------------
      1          6           0        1.924257    0.070761   -0.096850
      2          6           0        0.575619   -0.321818    0.196138
      3          1           0        2.826150   -0.940876   -0.237511
      4          1           0        1.940057    0.803418    0.865568
      5          1           0        1.672286    0.379856   -0.954395
      6          6           0       -0.493192    0.550540    0.030746
      7          1           0        0.493031   -0.863006    1.119203
      8          1           0        0.317561   -1.394393   -0.725038
      9          6           0       -1.956391   -0.180037   -0.086280
     10          1           0       -0.110368    1.052415   -0.837360
     11          1           0       -0.745237    1.455352    0.765908
     12          1           0       -1.689498   -0.675999   -0.711654
     13          1           0       -2.618275    0.308466   -0.616928
     14          1           0       -2.387464   -0.841905    1.069682
 ---------------------------------------------------------------------

 SCF Done:  E(RB2PLYPD3) =  -157.828691814     A.U. after   11 cycles
 E2(B2PLYPD3) =    -0.2539201459D+00 E(B2PLYPD3) =    -0.15808261195986D+03

 The electronic state is 1-A.
 Alpha  occ. eigenvalues --  -10.62584 -10.62357 -10.62115 -10.59750  -0.95747
 Alpha  occ. eigenvalues --   -0.86285  -0.76038  -0.65460  -0.56142  -0.50898
 Alpha  occ. eigenvalues --   -0.49440  -0.47209  -0.42899  -0.41454  -0.38628
 Alpha  occ. eigenvalues --   -0.36987  -0.31817
 Alpha virt. eigenvalues --    0.04165   0.05585   0.06614   0.08107   0.09781
 Alpha virt. eigenvalues --    0.11125   0.11479   0.12939   0.13657   0.15185
 Alpha virt. eigenvalues --    0.16043   0.16726   0.18182   0.18556   0.21235

 Mulliken charges:
               1
     1  C   -0.183868
     2  C   -0.008019
     3  H    0.050989
     4  H    0.063667
     5  H    0.080459
     6  C   -0.032232
     7  H    0.041994
     8  H   -0.067415
     9  C   -0.285507
    10  H    0.030159
    11  H    0.014378
    12  H    0.195769
    13  H    0.053187
    14  H    0.046440
 Sum of Mulliken charges =   0.00000

 Dipole moment (field-independent basis, Debye):
    X=             -0.1649    Y=              0.2556    Z=             -0.0914  Tot=              0.3176
 Quadrupole moment (field-independent basis, Debye-Ang):
   XX=            -30.3163   YY=            -30.6622   ZZ=            -28.2145
   XY=             -0.9596   XZ=              0.3106   YZ=             -0.2979

 Normal termination of Gaussian 09 at Wed Aug 26 09:56:44 2020.
