 Gaussian 09, Revision D.01,
 Gaussian 09:  ES64L-G09RevD.01 24-Apr-2013

 --------------------
 #p B2PLYPD3/Def2QZVP
 --------------------

 ----------
 butane_opt
 ----------
 Symbolic Z-matrix:
 Charge =  0 Multiplicity = 1

                         Standard orientation:
 ---------------------------------------------------------------------
 Center     Atomic      Atomic             Coordinates (Angstroms)
 Number     Number       Type             X           Y           Z
 ---------------------------------------------------------------------
      1          6           0        2.013618    0.126923    0.114522
      2          6           0        0.577441   -0.636440    0.037730
      3          1           0        2.630619   -0.641295   -0.652544
      4          1           0        2.425996    1.614038    1.216710
      5          1           0        1.847441    0.341338   -0.427551
      6          6           0       -0.593746    0.494270   -0.264572
      7          1           0        0.112831   -0.876419    0.846353
      8          1           0        0.580664   -1.457969   -0.854525
      9          6           0       -1.933448   -0.054911    0.145414
     10          1           0       -0.621161    1.150046   -1.283679
     11          1           0       -0.574830    0.937349    0.375658
     12          1           0       -1.965093   -0.487493   -0.519036
     13          1           0       -2.574292    0.545361   -0.164465
     14          1           0       -2.245364   -0.704011    1.264518
 ---------------------------------------------------------------------

 SCF Done:  E(RB2PLYPD3) =  -157.106746130     A.U. after   13 cycles
 E2(B2PLYPD3) =    -0.2588154756D+00 E(B2PLYPD3) =    -0.15736556160591D+03

 The electronic state is 1-A.
 Alpha  occ. eigenvalues --  -10.63609 -10.63142 -10.58687 -10.56545  -0.95787
 Alpha  occ. eigenvalues --   -0.91199  -0.78720  -0.70990  -0.54599  -0.50934
 Alpha  occ. eigenvalues --   -0.46846  -0.45496  -0.42575  -0.41861  -0.37056
 Alpha  occ. eigenvalues --   -0.35702  -0.34880
 Alpha virt. eigenvalues --   -0.03585   0.05386   0.06330   0.07599   0.10378
 Alpha virt. eigenvalues --    0.10964   0.12391   0.12943   0.13837   0.15350
 Alpha virt. eigenvalues --    0.15988   0.17009   0.17296   0.18420   0.20382

 Mulliken charges:
               1
     1  C   -0.935407
     2  C   -0.039426
     3  H    0.056771
     4  H    0.044695
     5  H    0.772993
     6  C   -0.420157
     7  H    0.106190
     8  H    0.029692
     9  C   -0.397584
    10  H    0.035797
    11  H    0.376898
    12  H    0.260071
    13  H    0.053689
    14  H    0.055777
 Sum of Mulliken charges =   0.00000

 Dipole moment (field-independent basis, Debye):
    X=             -0.9207    Y=              0.2226    Z=             -0.7542  Tot=              1.2108
 Quadrupole moment (field-independent basis, Debye-Ang):
   XX=            -31.8443   YY=            -28.4512   ZZ=            -27.3014
   XY=              0.4881   XZ=             -1.3210   YZ=              0.9135

 Normal termination of Gaussian 09 at Wed Aug 26 21:32:42 2020.
