 Gaussian 09, Revision D.01,
 Gaussian 09:  ES64L-G09RevD.01 24-Apr-2013

 --------------------
 #p B2PLYPD3/Def2QZVP
 --------------------

 ----------
 butane_opt
 ----------
 Symbolic Z-matrix:
 Charge =  0 Multiplicity = 1

                         Standard orientation:
 ---------------------------------------------------------------------
 Center     Atomic      Atomic             Coordinates (Angstroms)
 Number     Number       Type             X           Y           Z
 ---------------------------------------------------------------------
      1          6           0       -2.030746    0.162769   -0.017135
      2          6           0       -0.556369   -0.609937    0.096635
      3          1           0       -2.722911   -0.593144   -0.895229
      4          1           0       -1.837607    0.237279   -0.563792
      5          1           0       -2.830888    1.434440    1.116843
      6          6           0        0.697074    0.440653   -0.119032
      7          1           0       -0.455075   -1.040107   -0.548501
      8          1           0       -0.489642   -1.319829    1.114062
      9          6           0        1.961345   -0.085221   -0.050652
     10          1           0        0.641912    1.143124    0.721367
     11          1           0        0.258861    1.043079   -0.832374
     12          1           0        2.069231   -0.704826    0.930050
     13          1           0        2.881696    0.731036    0.061275
     14          1           0        2.056602   -0.380641   -0.562595
 ---------------------------------------------------------------------

 SCF Done:  E(RB2PLYPD3) =  -156.730435586     A.U. after   13 cycles
 E2(B2PLYPD3) =    -0.2587627270D+00 E(B2PLYPD3) =    -0.15698919831321D+03

 The electronic state is 1-A.
 Alpha  occ. eigenvalues --  -10.65194 -10.61570 -10.59840 -10.58478  -0.96471
 Alpha  occ. eigenvalues --   -0.92438  -0.79992  -0.72220  -0.58149  -0.51644
 Alpha  occ. eigenvalues --   -0.49391  -0.46683  -0.40753  -0.39976  -0.38432
 Alpha  occ. eigenvalues --   -0.36006  -0.33319
 Alpha virt. eigenvalues --   -0.03159   0.04957   0.05628   0.08318   0.09666
 Alpha virt. eigenvalues --    0.10751   0.11395   0.12732   0.14601   0.15747
 Alpha virt. eigenvalues --    0.16100   0.16384   0.18151   0.18908   0.20056

 Mulliken charges:
               1
     1  C   -1.010380
     2  C   -0.303318
     3  H    0.018948
     4  H    0.850615
     5  H    0.071093
     6  C    0.014198
     7  H    0.303973
     8  H    0.032883
     9  C   -0.706938
    10  H    0.036701
    11  H    0.029665
    12  H    0.087461
    13  H    0.052602
    14  H    0.522497
 Sum of Mulliken charges =   0.00000

 Dipole moment (field-independent basis, Debye):
    X=              0.7199    Y=              0.1990    Z=             -0.6489  Tot=              0.9894
 Quadrupole moment (field-independent basis, Debye-Ang):
   XX=            -31.0769   YY=            -28.7851   ZZ=            -27.2609
   XY=             -1.5075   XZ=              0.6191   YZ=              1.2370

 Normal termination of Gaussian 09 at Wed Aug 26 11:38:29 2020.
