 Gaussian 09, Revision D.01,
 Gaussian 09:  ES64L-G09RevD.01 24-Apr-2013

 --------------------
 #p B2PLYPD3/Def2QZVP
 --------------------

 ----------
 butane_opt
 ----------
 Symbolic Z-matrix:
 Charge =  0 Multiplicity = 1

                         Standard orientation:
 ---------------------------------------------------------------------
 Center     Atomic      Atomic             Coordinates (Angstroms)
 Number     Number       Type             X           Y           Z
 ---------------------------------------------------------------------
      1          6           0       -1.915221   -0.127264   -0.180045
      2          6           0       -0.484502    0.623376    0.119032
      3          1           0       -2.591949    0.542043   -0.108296
      4          1           0       -2.196840   -0.682838    0.734057
      5          1           0       -1.756346   -0.987650   -1.132851
      6          6           0        0.520079   -0.473692    0.319008
      7          1           0       -0.709800    1.153269    0.765586
      8          1           0       -0.070202    1.000725   -0.737406
      9          6           0        1.872589    0.062630   -0.159407
     10          1           0        0.146300   -1.154456   -0.453589
     11          1           0        0.475146   -1.000413    1.435484
     12          1           0        1.476983    0.501795   -1.170965
     13          1           0        2.765438   -0.791104   -0.653484
     14          1           0        2.503604    0.908327    0.729938
 ---------------------------------------------------------------------

 SCF Done:  E(RB2PLYPD3) =  -157.921184393     A.U. after   11 cycles
 E2(B2PLYPD3) =    -0.2529330144D+00 E(B2PLYPD3) =    -0.15817411740735D+03

 The electronic state is 1-A.
 Alpha  occ. eigenvalues --  -10.66022 -10.62294 -10.61118 -10.57980  -0.92879
 Alpha  occ. eigenvalues --   -0.81958  -0.72690  -0.66225  -0.57613  -0.49627
 Alpha  occ. eigenvalues --   -0.47407  -0.45143  -0.42186  -0.39464  -0.38971
 Alpha  occ. eigenvalues --   -0.36426  -0.35693
 Alpha virt. eigenvalues --    0.04643   0.06116   0.07871   0.08334   0.09841
 Alpha virt. eigenvalues --    0.10473   0.11913   0.13718   0.14308   0.14781
 Alpha virt. eigenvalues --    0.16106   0.16842   0.18427   0.19327   0.20761

 Mulliken charges:
               1
     1  C   -0.158247
     2  C   -0.113621
     3  H    0.060532
     4  H    0.034702
     5  H    0.034550
     6  C   -0.053489
     7  H    0.097394
     8  H    0.062159
     9  C   -0.182057
    10  H    0.073106
    11  H    0.023488
    12  H    0.050759
    13  H    0.030417
    14  H    0.040307
 Sum of Mulliken charges =   0.00000

 Dipole moment (field-independent basis, Debye):
    X=             -0.4906    Y=              0.2557    Z=              0.1141  Tot=              0.5649
 Quadrupole moment (field-independent basis, Debye-Ang):
   XX=            -31.0657   YY=            -29.8304   ZZ=            -28.4078
   XY=             -0.5035   XZ=             -0.9988   YZ=              1.0062

 Normal termination of Gaussian 09 at Wed Aug 26 11:21:11 2020.
