 Gaussian 09, Revision D.01,
 Gaussian 09:  ES64L-G09RevD.01 24-Apr-2013

 --------------------
 #p B2PLYPD3/Def2QZVP
 --------------------

 ----------
 butane_opt
 ----------
 Symbolic Z-matrix:
 Charge =  0 Multiplicity = 1

                         Standard orientation:
 ---------------------------------------------------------------------
 Center     Atomic      Atomic             Coordinates (Angstroms)
 Number     Number       Type             X           Y           Z
 ---------------------------------------------------------------------
      1          6           0       -1.986748    0.039795    0.048392
      2          6           0       -0.680063   -0.475473   -0.045676
      3          1           0       -2.649733   -0.675438    0.062762
      4          1           0       -2.049905    0.447778   -0.705027
      5          1           0       -1.863812    0.840243    1.130749
      6          6           0        0.531724    0.594979   -0.162341
      7          1           0       -0.755858   -1.055002   -0.921678
      8          1           0       -0.212812   -1.102512    0.808208
      9          6           0        2.069278   -0.206240    0.057075
     10          1           0        0.322073    1.417789    0.794957
     11          1           0        0.343102    1.442823   -1.049009
     12          1           0        1.826994   -0.635385    0.971677
     13          1           0        2.832189    0.460068    0.325224
     14          1           0        2.602619   -0.858738   -0.802563
 ---------------------------------------------------------------------

 SCF Done:  E(RB2PLYPD3) =  -157.932784158     A.U. after   11 cycles
 E2(B2PLYPD3) =    -0.2513824407D+00 E(B2PLYPD3) =    -0.15818416659899D+03

 The electronic state is 1-A.
 Alpha  occ. eigenvalues --  -10.65990 -10.62207 -10.60828 -10.58058  -0.92951
 Alpha  occ. eigenvalues --   -0.82460  -0.73508  -0.64943  -0.54758  -0.52173
 Alpha  occ. eigenvalues --   -0.50071  -0.46255  -0.42877  -0.38417  -0.38101
 Alpha  occ. eigenvalues --   -0.36416  -0.35780
 Alpha virt. eigenvalues --    0.05385   0.06473   0.07677   0.08350   0.10416
 Alpha virt. eigenvalues --    0.11586   0.12316   0.13385   0.14122   0.14914
 Alpha virt. eigenvalues --    0.16133   0.16186   0.17725   0.19587   0.20374

 Mulliken charges:
               1
     1  C   -0.214416
     2  C   -0.004991
     3  H    0.058933
     4  H    0.141297
     5  H    0.009166
     6  C   -0.085682
     7  H    0.030579
     8  H    0.026932
     9  C   -0.156060
    10  H    0.002871
    11  H    0.014935
    12  H    0.069975
    13  H    0.052078
    14  H    0.054384
 Sum of Mulliken charges =   0.00000

 Dipole moment (field-independent basis, Debye):
    X=              0.0511    Y=             -0.3842    Z=             -0.2668  Tot=              0.4705
 Quadrupole moment (field-independent basis, Debye-Ang):
   XX=            -28.4455   YY=            -29.8534   ZZ=            -28.7481
   XY=              0.7318   XZ=              1.4889   YZ=              0.1886

 Normal termination of Gaussian 09 at Wed Aug 26 10:30:03 2020.
