 Gaussian 09, Revision D.01,
 Gaussian 09:  ES64L-G09RevD.01 24-Apr-2013

 --------------------
 #p B2PLYPD3/Def2QZVP
 --------------------

 ----------
 butane_opt
 ----------
 Symbolic Z-matrix:
 Charge =  0 Multiplicity = 1

                         Standard orientation:
 ---------------------------------------------------------------------
 Center     Atomic      Atomic             Coordinates (Angstroms)
 Number     Number       Type             X           Y           Z
 ---------------------------------------------------------------------
      1          6           0       -1.844509    0.020428   -0.176656
      2          6           0       -0.607236   -0.379393    0.380455
      3          1           0       -2.516390   -0.919271   -0.862634
      4          1           0       -1.449076    0.186429   -1.015851
      5          1           0       -2.508709    0.973287    0.649625
      6          6           0        0.505717    0.618422    0.022271
      7          1           0       -0.460852   -1.002009   -0.348972
      8          1           0       -0.816240   -0.782864    1.355129
      9          6           0        1.928082   -0.235522   -0.114613
     10          1           0        0.546949    1.333416    0.703594
     11          1           0        0.194639    1.051709   -0.980866
     12          1           0        2.138496   -0.548848    0.705386
     13          1           0        2.680733    0.601702   -0.187724
     14          1           0        2.298128   -1.037165   -0.686424
 ---------------------------------------------------------------------

 SCF Done:  E(RB2PLYPD3) =  -157.883099201     A.U. after   11 cycles
 E2(B2PLYPD3) =    -0.2515985786D+00 E(B2PLYPD3) =    -0.15813469777915D+03

 The electronic state is 1-A.
 Alpha  occ. eigenvalues --  -10.62519 -10.62038 -10.58477 -10.58323  -0.95453
 Alpha  occ. eigenvalues --   -0.84853  -0.74871  -0.67094  -0.57726  -0.49810
 Alpha  occ. eigenvalues --   -0.48718  -0.45297  -0.44978  -0.41656  -0.40516
 Alpha  occ. eigenvalues --   -0.36029  -0.32974
 Alpha virt. eigenvalues --    0.04255   0.06436   0.07709   0.08497   0.10086
 Alpha virt. eigenvalues --    0.10881   0.12132   0.13447   0.14288   0.14793
 Alpha virt. eigenvalues --    0.16460   0.16964   0.18621   0.19118   0.20903

 Mulliken charges:
               1
     1  C   -0.199720
     2  C   -0.116571
     3  H    0.010838
     4  H    0.098669
     5  H    0.025084
     6  C   -0.041877
     7  H    0.110293
     8  H    0.048029
     9  C   -0.189962
    10  H    0.068069
    11  H    0.040770
    12  H    0.085168
    13  H    0.017648
    14  H    0.043561
 Sum of Mulliken charges =   0.00000

 Dipole moment (field-independent basis, Debye):
    X=              0.7220    Y=             -0.1037    Z=              0.0298  Tot=              0.7300
 Quadrupole moment (field-independent basis, Debye-Ang):
   XX=            -32.1048   YY=            -28.9684   ZZ=            -27.7855
   XY=             -0.4006   XZ=              0.2146   YZ=              1.0835

 Normal termination of Gaussian 09 at Wed Aug 26 09:43:04 2020.
