 Gaussian 09, Revision D.01,
 Gaussian 09:  ES64L-G09RevD.01 24-Apr-2013

 --------------------
 #p B2PLYPD3/Def2QZVP
 --------------------

 ----------
 butane_opt
 ----------
 Symbolic Z-matrix:
 Charge =  0 Multiplicity = 1

                         Standard orientation:
 ---------------------------------------------------------------------
 Center     Atomic      Atomic             Coordinates (Angstroms)
 Number     Number       Type             X           Y           Z
 ---------------------------------------------------------------------
      1          6           0       -1.956539    0.101237   -0.215659
      2          6           0       -0.615661   -0.471103    0.154134
      3          1           0       -2.770033   -0.896714   -0.098760
      4          1           0       -2.027339    0.847028   -1.153055
      5          1           0       -2.036522    0.735402    0.653463
      6          6           0        0.532260    0.651517    0.245036
      7          1           0       -0.481822   -1.027879   -0.622883
      8          1           0       -0.775147   -1.456049    1.333552
      9          6           0        1.986022   -0.216773   -0.164856
     10          1           0        0.735368    1.611939    1.191900
     11          1           0        0.286478    0.918930   -0.394870
     12          1           0        2.716680   -0.839437    0.823098
     13          1           0        2.743333    0.537061   -0.940303
     14          1           0        1.932509   -0.819554   -0.904070
 ---------------------------------------------------------------------

 SCF Done:  E(RB2PLYPD3) =  -157.684743984     A.U. after   11 cycles
 E2(B2PLYPD3) =    -0.2562767616D+00 E(B2PLYPD3) =    -0.15794102074569D+03

 The electronic state is 1-A.
 Alpha  occ. eigenvalues --  -10.64837 -10.64450 -10.63333 -10.63285  -0.93252
 Alpha  occ. eigenvalues --   -0.82572  -0.74729  -0.67364  -0.52844  -0.49570
 Alpha  occ. eigenvalues --   -0.47482  -0.43393  -0.41702  -0.40310  -0.38206
 Alpha  occ. eigenvalues --   -0.36853  -0.33511
 Alpha virt. eigenvalues --    0.03694   0.05175   0.06110   0.06875   0.09987
 Alpha virt. eigenvalues --    0.10816   0.11053   0.12334   0.12804   0.15081
 Alpha virt. eigenvalues --    0.15703   0.15793   0.17610   0.18674   0.20007

 Mulliken charges:
               1
     1  C   -0.194431
     2  C   -0.066755
     3  H    0.057084
     4  H    0.048433
     5  H    0.073867
     6  C   -0.552203
     7  H    0.110079
     8  H   -0.024437
     9  C   -0.188114
    10  H    0.068072
    11  H    0.511729
    12  H    0.048849
    13  H    0.004765
    14  H    0.103062
 Sum of Mulliken charges =   0.00000

 Dipole moment (field-independent basis, Debye):
    X=             -0.2995    Y=              0.2700    Z=             -0.7691  Tot=              0.8684
 Quadrupole moment (field-independent basis, Debye-Ang):
   XX=            -32.4125   YY=            -29.1821   ZZ=            -28.9024
   XY=             -0.4138   XZ=              0.0983   YZ=              0.5607

 Normal termination of Gaussian 09 at Wed Aug 26 13:58:08 2020.
