 Gaussian 09, Revision D.01,
 Gaussian 09:  ES64L-G09RevD.01 24-Apr-2013

 --------------------
 #p B2PLYPD3/Def2QZVP
 --------------------

 ----------
 butane_opt
 ----------
 Symbolic Z-matrix:
 Charge =  0 Multiplicity = 1

                         Standard orientation:
 ---------------------------------------------------------------------
 Center     Atomic      Atomic             Coordinates (Angstroms)
 Number     Number       Type             X           Y           Z
 ---------------------------------------------------------------------
      1          6           0        1.979474    0.164602   -0.123305
      2          6           0        0.554486   -0.582210    0.112039
      3          1           0        2.653459   -0.476625   -0.216182
      4          1           0        2.465051    0.452688    0.664525
      5          1           0        2.179020    0.944008   -1.049566
      6          6           0       -0.633233    0.444847    0.227469
      7          1           0        0.287624   -1.260321    0.740411
      8          1           0        0.308236   -1.004785   -0.702518
      9          6           0       -1.872902   -0.090338   -0.150734
     10          1           0       -0.656943    0.660652   -0.292351
     11          1           0       -0.597993    1.504003    1.522130
     12          1           0       -1.661598   -0.146460   -0.846455
     13          1           0       -2.710862    0.739859   -1.015461
     14          1           0       -2.432940   -1.034424    0.802652
 ---------------------------------------------------------------------

 SCF Done:  E(RB2PLYPD3) =  -156.974490513     A.U. after   12 cycles
 E2(B2PLYPD3) =    -0.2560970744D+00 E(B2PLYPD3) =    -0.15723058758708D+03

 The electronic state is 1-A.
 Alpha  occ. eigenvalues --  -10.63514 -10.62205 -10.60485 -10.59838  -1.04034
 Alpha  occ. eigenvalues --   -0.87964  -0.79139  -0.73245  -0.57396  -0.50682
 Alpha  occ. eigenvalues --   -0.50142  -0.46211  -0.43911  -0.41963  -0.39869
 Alpha  occ. eigenvalues --   -0.37643  -0.30752
 Alpha virt. eigenvalues --    0.01872   0.04903   0.05885   0.06683   0.09504
 Alpha virt. eigenvalues --    0.10667   0.11717   0.13557   0.13665   0.15275
 Alpha virt. eigenvalues --    0.16157   0.16599   0.17994   0.18588   0.20788

 Mulliken charges:
               1
     1  C   -0.119283
     2  C   -0.032491
     3  H    0.055001
     4  H    0.042891
     5  H    0.039329
     6  C   -0.937635
     7  H    0.064558
     8  H    0.071001
     9  C   -0.561079
    10  H    0.847720
    11  H   -0.037611
    12  H    0.507804
    13  H    0.002037
    14  H    0.057759
 Sum of Mulliken charges =   0.00000

 Dipole moment (field-independent basis, Debye):
    X=              0.9393    Y=             -1.0366    Z=             -0.9765  Tot=              1.7060
 Quadrupole moment (field-independent basis, Debye-Ang):
   XX=            -29.2369   YY=            -30.2465   ZZ=            -28.0162
   XY=              0.8388   XZ=              0.9448   YZ=             -1.8271

 Normal termination of Gaussian 09 at Wed Aug 26 15:31:55 2020.
