 Gaussian 09, Revision D.01,
 Gaussian 09:  ES64L-G09RevD.01 24-Apr-2013

 --------------------
 #p B2PLYPD3/Def2QZVP
 --------------------

 ----------
 butane_opt
 ----------
 Symbolic Z-matrix:
 Charge =  0 Multiplicity = 1

                         Standard orientation:
 ---------------------------------------------------------------------
 Center     Atomic      Atomic             Coordinates (Angstroms)
 Number     Number       Type             X           Y           Z
 ---------------------------------------------------------------------
      1          6           0       -1.981090    0.095644   -0.046520
      2          6           0       -0.551597   -0.508885    0.125271
      3          1           0       -2.721235   -0.562821   -0.471185
      4          1           0       -1.708707    0.692954   -0.896341
      5          1           0       -2.400238    0.764628    0.853589
      6          6           0        0.540480    0.544673    0.042491
      7          1           0       -0.438713   -1.239940   -0.761024
      8          1           0       -0.422800   -1.192528    1.121307
      9          6           0        1.962431   -0.140378   -0.071101
     10          1           0        0.532489    1.204740    0.855363
     11          1           0        0.447831    1.230980   -0.835462
     12          1           0        2.195294   -0.632041    0.788521
     13          1           0        2.698600    0.565677    0.044757
     14          1           0        1.996133   -0.777972   -1.000374
 ---------------------------------------------------------------------

 SCF Done:  E(RB2PLYPD3) =  -158.084016132     A.U. after   11 cycles
 E2(B2PLYPD3) =    -0.2477596466D+00 E(B2PLYPD3) =    -0.15833177577873D+03

 The electronic state is 1-A.
 Alpha  occ. eigenvalues --  -10.62808 -10.60731 -10.60647 -10.58817  -0.90443
 Alpha  occ. eigenvalues --   -0.82894  -0.73224  -0.65782  -0.53584  -0.49404
 Alpha  occ. eigenvalues --   -0.48877  -0.47001  -0.42458  -0.40570  -0.38733
 Alpha  occ. eigenvalues --   -0.37499  -0.37236
 Alpha virt. eigenvalues --    0.05783   0.06895   0.07980   0.08499   0.10729
 Alpha virt. eigenvalues --    0.12093   0.12768   0.13937   0.14958   0.15333
 Alpha virt. eigenvalues --    0.15772   0.16545   0.19267   0.19523   0.21393

 Mulliken charges:
               1
     1  C   -0.165364
     2  C   -0.045367
     3  H    0.051360
     4  H    0.053197
     5  H    0.040956
     6  C   -0.023041
     7  H    0.028153
     8  H    0.018383
     9  C   -0.137995
    10  H    0.032542
    11  H    0.019809
    12  H    0.040777
    13  H    0.036400
    14  H    0.050191
 Sum of Mulliken charges =   0.00000

 Dipole moment (field-independent basis, Debye):
    X=              0.1702    Y=              0.1518    Z=             -0.0321  Tot=              0.2303
 Quadrupole moment (field-independent basis, Debye-Ang):
   XX=            -29.5417   YY=            -29.2584   ZZ=            -28.0898
   XY=              0.5656   XZ=              0.7789   YZ=              0.7210

 Normal termination of Gaussian 09 at Wed Aug 26 11:21:54 2020.
