 Gaussian 09, Revision D.01,
 Gaussian 09:  ES64L-G09RevD.01 24-Apr-2013

 --------------------
 #p B2PLYPD3/Def2QZVP
 --------------------

 ----------
 butane_opt
 ----------
 Symbolic Z-matrix:
 Charge =  0 Multiplicity = 1

                         Standard orientation:
 ---------------------------------------------------------------------
 Center     Atomic      Atomic             Coordinates (Angstroms)
 Number     Number       Type             X           Y           Z
 ---------------------------------------------------------------------
      1          6           0        2.012840   -0.149369    0.068393
      2          6           0        0.562480    0.562512   -0.056722
      3          1           0        2.699331    0.504592   -0.390942
      4          1           0        1.983218   -0.333179   -0.580535
      5          1           0        2.326808   -1.128491    1.157990
      6          6           0       -0.639886   -0.507657   -0.104228
      7          1           0        0.489815    1.215774   -0.917049
      8          1           0        0.429880    1.236341    0.832717
      9          6           0       -1.964073    0.107419    0.043863
     10          1           0       -0.522733   -1.121688    0.791537
     11          1           0       -0.389819   -1.225564   -1.025335
     12          1           0       -2.086333    1.059044    1.114547
     13          1           0       -2.773056   -0.762826   -0.068059
     14          1           0       -1.985271    0.478569   -0.622706
 ---------------------------------------------------------------------

 SCF Done:  E(RB2PLYPD3) =  -157.537175753     A.U. after   11 cycles
 E2(B2PLYPD3) =    -0.2525270655D+00 E(B2PLYPD3) =    -0.15778970281817D+03

 The electronic state is 1-A.
 Alpha  occ. eigenvalues --  -10.62098 -10.61733 -10.60237 -10.59460  -0.93280
 Alpha  occ. eigenvalues --   -0.89568  -0.76211  -0.67190  -0.53305  -0.49345
 Alpha  occ. eigenvalues --   -0.48117  -0.45913  -0.41210  -0.40506  -0.38250
 Alpha  occ. eigenvalues --   -0.37294  -0.35723
 Alpha virt. eigenvalues --    0.04549   0.05053   0.06850   0.07710   0.10298
 Alpha virt. eigenvalues --    0.10601   0.11805   0.12901   0.13742   0.15379
 Alpha virt. eigenvalues --    0.16230   0.16604   0.18622   0.19027   0.21090

 Mulliken charges:
               1
     1  C   -0.715707
     2  C   -0.024325
     3  H    0.051894
     4  H    0.550244
     5  H    0.073485
     6  C   -0.023782
     7  H    0.026117
     8  H    0.032667
     9  C   -0.450765
    10  H    0.038918
    11  H    0.020789
    12  H    0.032607
    13  H    0.057796
    14  H    0.330063
 Sum of Mulliken charges =   0.00000

 Dipole moment (field-independent basis, Debye):
    X=              0.0430    Y=             -0.1016    Z=             -0.7655  Tot=              0.7734
 Quadrupole moment (field-independent basis, Debye-Ang):
   XX=            -30.5788   YY=            -28.8961   ZZ=            -27.7030
   XY=             -0.0624   XZ=             -0.4903   YZ=             -0.6536

 Normal termination of Gaussian 09 at Wed Aug 26 11:45:30 2020.
