 Gaussian 09, Revision D.01,
 Gaussian 09:  ES64L-G09RevD.01 24-Apr-2013

 --------------------
 #p B2PLYPD3/Def2QZVP
 --------------------

 ----------
 butane_opt
 ----------
 Symbolic Z-matrix:
 Charge =  0 Multiplicity = 1

                         Standard orientation:
 ---------------------------------------------------------------------
 Center     Atomic      Atomic             Coordinates (Angstroms)
 Number     Number       Type             X           Y           Z
 ---------------------------------------------------------------------
      1          6           0        1.917746    0.048479    0.117151
      2          6           0        0.630772   -0.494919   -0.163542
      3          1           0        2.733077   -0.710545   -0.081846
      4          1           0        2.040695    0.771072    1.216732
      5          1           0        2.099375    0.509918   -0.524126
      6          6           0       -0.567062    0.645060    0.012570
      7          1           0        0.578677   -0.879196    0.548627
      8          1           0        0.771607   -1.332304   -1.370749
      9          6           0       -2.002293   -0.186729    0.089125
     10          1           0       -0.457659    1.581773   -0.962526
     11          1           0       -0.048165    1.160869    0.830122
     12          1           0       -1.998384   -0.377422   -0.620644
     13          1           0       -2.845630    0.613481   -0.655426
     14          1           0       -2.748571   -1.409001    1.288018
 ---------------------------------------------------------------------

 SCF Done:  E(RB2PLYPD3) =  -157.406021396     A.U. after   13 cycles
 E2(B2PLYPD3) =    -0.2622846880D+00 E(B2PLYPD3) =    -0.15766830608407D+03

 The electronic state is 1-A.
 Alpha  occ. eigenvalues --  -10.66969 -10.65744 -10.61121 -10.58944  -0.94453
 Alpha  occ. eigenvalues --   -0.87431  -0.76612  -0.69614  -0.52146  -0.49280
 Alpha  occ. eigenvalues --   -0.46928  -0.43748  -0.41770  -0.40076  -0.37727
 Alpha  occ. eigenvalues --   -0.35577  -0.33351
 Alpha virt. eigenvalues --   -0.03578   0.03996   0.05136   0.06031   0.09364
 Alpha virt. eigenvalues --    0.10575   0.11713   0.12728   0.13696   0.14995
 Alpha virt. eigenvalues --    0.15682   0.16058   0.17172   0.17879   0.18999

 Mulliken charges:
               1
     1  C   -0.308693
     2  C   -0.308509
     3  H    0.047401
     4  H    0.023688
     5  H    0.212076
     6  C   -0.056463
     7  H    0.324056
     8  H    0.005159
     9  C   -0.612367
    10  H    0.020875
    11  H    0.066026
    12  H    0.517220
    13  H   -0.000046
    14  H    0.069579
 Sum of Mulliken charges =   0.00000

 Dipole moment (field-independent basis, Debye):
    X=              0.6751    Y=             -0.1393    Z=             -0.3233  Tot=              0.7614
 Quadrupole moment (field-independent basis, Debye-Ang):
   XX=            -31.2946   YY=            -29.7370   ZZ=            -28.4450
   XY=              1.6691   XZ=              0.1746   YZ=             -0.9704

 Normal termination of Gaussian 09 at Wed Aug 26 10:50:55 2020.
