 Gaussian 09, Revision D.01,
 Gaussian 09:  ES64L-G09RevD.01 24-Apr-2013

 --------------------
 #p B2PLYPD3/Def2QZVP
 --------------------

 ----------
 butane_opt
 ----------
 Symbolic Z-matrix:
 Charge =  0 Multiplicity = 1

                         Standard orientation:
 ---------------------------------------------------------------------
 Center     Atomic      Atomic             Coordinates (Angstroms)
 Number     Number       Type             X           Y           Z
 ---------------------------------------------------------------------
      1          6           0        1.991171    0.076766   -0.110415
      2          6           0        0.633095   -0.456929    0.079144
      3          1           0        2.736231   -0.655201   -0.012485
      4          1           0        1.992622    0.656402    0.734005
      5          1           0        2.078052    0.704603   -1.017944
      6          6           0       -0.574408    0.557033    0.143832
      7          1           0        0.521983   -1.254582    1.096699
      8          1           0        0.369357   -0.987827   -0.690595
      9          6           0       -1.983739   -0.136486   -0.135828
     10          1           0       -0.378279    1.104111   -0.609438
     11          1           0       -0.612049    1.363099    1.112241
     12          1           0       -1.926226   -0.711909   -0.944059
     13          1           0       -2.697109    0.505357   -0.314668
     14          1           0       -2.481289   -0.966361    0.785842
 ---------------------------------------------------------------------

 SCF Done:  E(RB2PLYPD3) =  -158.006796599     A.U. after   11 cycles
 E2(B2PLYPD3) =    -0.2475184614D+00 E(B2PLYPD3) =    -0.15825431506040D+03

 The electronic state is 1-A.
 Alpha  occ. eigenvalues --  -10.61767 -10.61058 -10.60547 -10.58747  -0.91717
 Alpha  occ. eigenvalues --   -0.84351  -0.74408  -0.67136  -0.53645  -0.50915
 Alpha  occ. eigenvalues --   -0.50064  -0.47794  -0.42578  -0.40479  -0.39325
 Alpha  occ. eigenvalues --   -0.37647  -0.36154
 Alpha virt. eigenvalues --    0.05559   0.06666   0.08145   0.08458   0.10701
 Alpha virt. eigenvalues --    0.11952   0.12777   0.13605   0.14721   0.15075
 Alpha virt. eigenvalues --    0.15746   0.16318   0.19123   0.19856   0.21542

 Mulliken charges:
               1
     1  C   -0.148877
     2  C   -0.064947
     3  H    0.057961
     4  H    0.061955
     5  H    0.036804
     6  C   -0.080614
     7  H   -0.003758
     8  H    0.067872
     9  C   -0.145902
    10  H    0.085246
    11  H    0.006871
    12  H    0.054862
    13  H    0.061192
    14  H    0.011336
 Sum of Mulliken charges =   0.00000

 Dipole moment (field-independent basis, Debye):
    X=              0.1074    Y=              0.2134    Z=             -0.7112  Tot=              0.7502
 Quadrupole moment (field-independent basis, Debye-Ang):
   XX=            -29.0686   YY=            -29.2309   ZZ=            -28.4514
   XY=             -0.6098   XZ=              0.5443   YZ=             -0.0413

 Normal termination of Gaussian 09 at Wed Aug 26 11:01:09 2020.
