 Gaussian 09, Revision D.01,
 Gaussian 09:  ES64L-G09RevD.01 24-Apr-2013

 --------------------
 #p B2PLYPD3/Def2QZVP
 --------------------

 ----------
 butane_opt
 ----------
 Symbolic Z-matrix:
 Charge =  0 Multiplicity = 1

                         Standard orientation:
 ---------------------------------------------------------------------
 Center     Atomic      Atomic             Coordinates (Angstroms)
 Number     Number       Type             X           Y           Z
 ---------------------------------------------------------------------
      1          6           0       -1.964419    0.114746   -0.028469
      2          6           0       -0.560521   -0.499437    0.035446
      3          1           0       -2.745865   -0.642303   -0.066512
      4          1           0       -2.032768    0.651051   -0.841877
      5          1           0       -2.100286    0.808238    0.878731
      6          6           0        0.562115    0.515674   -0.003183
      7          1           0       -0.439283   -1.136320   -0.836162
      8          1           0       -0.510678   -1.182238    0.951869
      9          6           0        1.959867   -0.120965   -0.013977
     10          1           0        0.446419    1.172659    0.857282
     11          1           0        0.463557    1.177750   -0.897782
     12          1           0        2.112910   -0.706372    0.873385
     13          1           0        2.710339    0.605711    0.050560
     14          1           0        2.113401   -0.808285   -0.908397
 ---------------------------------------------------------------------

 SCF Done:  E(RB2PLYPD3) =  -158.114709758     A.U. after   10 cycles
 E2(B2PLYPD3) =    -0.2457845173D+00 E(B2PLYPD3) =    -0.15836049427554D+03

 The electronic state is 1-A.
 Alpha  occ. eigenvalues --  -10.60648 -10.60588 -10.59592 -10.58957  -0.90994
 Alpha  occ. eigenvalues --   -0.83393  -0.73248  -0.66165  -0.54033  -0.49698
 Alpha  occ. eigenvalues --   -0.48869  -0.47709  -0.42952  -0.41177  -0.38715
 Alpha  occ. eigenvalues --   -0.38374  -0.37646
 Alpha virt. eigenvalues --    0.05921   0.06921   0.08187   0.08734   0.10854
 Alpha virt. eigenvalues --    0.12256   0.12998   0.14176   0.14599   0.15283
 Alpha virt. eigenvalues --    0.15649   0.16518   0.19755   0.20388   0.21865

 Mulliken charges:
               1
     1  C   -0.145803
     2  C   -0.044921
     3  H    0.044344
     4  H    0.061689
     5  H    0.030568
     6  C   -0.042861
     7  H    0.029391
     8  H    0.022888
     9  C   -0.134320
    10  H    0.029064
    11  H    0.024747
    12  H    0.040005
    13  H    0.047896
    14  H    0.037313
 Sum of Mulliken charges =   0.00000

 Dipole moment (field-independent basis, Debye):
    X=              0.0425    Y=              0.0604    Z=             -0.0720  Tot=              0.1031
 Quadrupole moment (field-independent basis, Debye-Ang):
   XX=            -29.4379   YY=            -28.9213   ZZ=            -28.0941
   XY=              0.5146   XZ=              0.4694   YZ=              0.1274

 Normal termination of Gaussian 09 at Wed Aug 26 10:31:05 2020.
