 Gaussian 09, Revision D.01,
 Gaussian 09:  ES64L-G09RevD.01 24-Apr-2013

 --------------------
 #p B2PLYPD3/Def2QZVP
 --------------------

 ----------
 butane_opt
 ----------
 Symbolic Z-matrix:
 Charge =  0 Multiplicity = 1

                         Standard orientation:
 ---------------------------------------------------------------------
 Center     Atomic      Atomic             Coordinates (Angstroms)
 Number     Number       Type             X           Y           Z
 ---------------------------------------------------------------------
      1          6           0       -1.976171   -0.108933    0.260089
      2          6           0       -0.571959    0.491267   -0.275226
      3          1           0       -2.758299    0.661469    0.437115
      4          1           0       -1.964990   -0.656077    1.092718
      5          1           0       -2.519177   -1.047622   -0.757718
      6          6           0        0.610486   -0.502062   -0.141968
      7          1           0       -0.390085    0.900993    0.287694
      8          1           0       -0.951931    1.403527   -1.358223
      9          6           0        2.037311    0.125547    0.116523
     10          1           0        0.649947   -1.262730   -0.948623
     11          1           0        0.391770   -0.904665    0.697509
     12          1           0        1.997417    0.366711   -0.577276
     13          1           0        2.787011   -0.578740    0.054932
     14          1           0        2.160332    1.082224    1.315364
 ---------------------------------------------------------------------

 SCF Done:  E(RB2PLYPD3) =  -157.537180840     A.U. after   11 cycles
 E2(B2PLYPD3) =    -0.2521623909D+00 E(B2PLYPD3) =    -0.15778934323107D+03

 The electronic state is 1-A.
 Alpha  occ. eigenvalues --  -10.63661 -10.61592 -10.61060 -10.60000  -0.94789
 Alpha  occ. eigenvalues --   -0.86988  -0.75829  -0.70836  -0.54911  -0.51984
 Alpha  occ. eigenvalues --   -0.48320  -0.46675  -0.43292  -0.39962  -0.38099
 Alpha  occ. eigenvalues --   -0.36540  -0.35504
 Alpha virt. eigenvalues --    0.04032   0.04598   0.06707   0.07673   0.10280
 Alpha virt. eigenvalues --    0.10742   0.12088   0.12330   0.13419   0.14938
 Alpha virt. eigenvalues --    0.15392   0.16531   0.18517   0.19034   0.21099

 Mulliken charges:
               1
     1  C   -0.146165
     2  C   -0.563677
     3  H    0.059430
     4  H    0.071703
     5  H   -0.009366
     6  C   -0.046375
     7  H    0.505852
     8  H    0.022331
     9  C   -0.547817
    10  H    0.038008
    11  H    0.096024
    12  H    0.426185
    13  H    0.068958
    14  H    0.024911
 Sum of Mulliken charges =   0.00000

 Dipole moment (field-independent basis, Debye):
    X=              0.3664    Y=             -0.1219    Z=              0.5403  Tot=              0.6641
 Quadrupole moment (field-independent basis, Debye-Ang):
   XX=            -30.2876   YY=            -29.4598   ZZ=            -28.3666
   XY=             -1.9379   XZ=             -1.7779   YZ=              0.5609

 Normal termination of Gaussian 09 at Wed Aug 26 12:18:07 2020.
