 Gaussian 09, Revision D.01,
 Gaussian 09:  ES64L-G09RevD.01 24-Apr-2013

 --------------------
 #p B2PLYPD3/Def2QZVP
 --------------------

 ----------
 butane_opt
 ----------
 Symbolic Z-matrix:
 Charge =  0 Multiplicity = 1

                         Standard orientation:
 ---------------------------------------------------------------------
 Center     Atomic      Atomic             Coordinates (Angstroms)
 Number     Number       Type             X           Y           Z
 ---------------------------------------------------------------------
      1          6           0        2.037017   -0.183302   -0.172274
      2          6           0        0.496956    0.629702    0.024789
      3          1           0        2.697576    0.395228   -0.205476
      4          1           0        2.189324   -0.731264   -0.796576
      5          1           0        2.228345   -0.674116    0.899641
      6          6           0       -0.647591   -0.458246    0.277620
      7          1           0        0.083894    1.076637   -0.831121
      8          1           0        0.540020    1.540728    0.916068
      9          6           0       -1.885749    0.046595   -0.141467
     10          1           0       -0.393213   -1.302376    1.338427
     11          1           0       -0.525525   -1.065098   -0.441353
     12          1           0       -2.388460    1.142331    0.787375
     13          1           0       -2.666454   -0.931507   -0.807162
     14          1           0       -1.769301    0.340942   -0.791828
 ---------------------------------------------------------------------

 SCF Done:  E(RB2PLYPD3) =  -157.606619537     A.U. after   11 cycles
 E2(B2PLYPD3) =    -0.2534033356D+00 E(B2PLYPD3) =    -0.15786002287271D+03

 The electronic state is 1-A.
 Alpha  occ. eigenvalues --  -10.64851 -10.62993 -10.62027 -10.57937  -0.95528
 Alpha  occ. eigenvalues --   -0.86036  -0.76734  -0.69052  -0.54234  -0.52636
 Alpha  occ. eigenvalues --   -0.49949  -0.45861  -0.43132  -0.40872  -0.38883
 Alpha  occ. eigenvalues --   -0.35280  -0.34814
 Alpha virt. eigenvalues --    0.02499   0.05948   0.07262   0.07432   0.09439
 Alpha virt. eigenvalues --    0.10903   0.11736   0.13266   0.13809   0.15248
 Alpha virt. eigenvalues --    0.16190   0.16823   0.17570   0.18519   0.20122

 Mulliken charges:
               1
     1  C   -0.251139
     2  C   -0.091959
     3  H    0.094441
     4  H    0.123792
     5  H    0.034793
     6  C   -0.038199
     7  H    0.059166
     8  H    0.026361
     9  C   -0.565512
    10  H    0.012013
    11  H    0.111090
    12  H    0.014168
    13  H    0.016290
    14  H    0.454697
 Sum of Mulliken charges =   0.00000

 Dipole moment (field-independent basis, Debye):
    X=              0.9557    Y=             -0.0235    Z=             -0.9836  Tot=              1.3717
 Quadrupole moment (field-independent basis, Debye-Ang):
   XX=            -31.4823   YY=            -29.2049   ZZ=            -28.3116
   XY=             -0.2473   XZ=              1.0226   YZ=              0.7849

 Normal termination of Gaussian 09 at Wed Aug 26 23:09:19 2020.
