 Gaussian 09, Revision D.01,
 Gaussian 09:  ES64L-G09RevD.01 24-Apr-2013

 --------------------
 #p B2PLYPD3/Def2QZVP
 --------------------

 ----------
 butane_opt
 ----------
 Symbolic Z-matrix:
 Charge =  0 Multiplicity = 1

                         Standard orientation:
 ---------------------------------------------------------------------
 Center     Atomic      Atomic             Coordinates (Angstroms)
 Number     Number       Type             X           Y           Z
 ---------------------------------------------------------------------
      1          6           0        2.015150   -0.136667   -0.186899
      2          6           0        0.455516    0.570207    0.304457
      3          1           0        2.648726    0.521595   -0.660361
      4          1           0        1.620076   -0.573009   -1.025605
      5          1           0        2.370752   -0.846882    0.724550
      6          6           0       -0.558416   -0.515944    0.110416
      7          1           0        0.232576    1.074258   -0.451922
      8          1           0        0.565094    1.198062    1.215272
      9          6           0       -1.892247    0.076017   -0.122882
     10          1           0       -0.498220   -1.120055    1.060156
     11          1           0       -0.397727   -0.987463   -0.711136
     12          1           0       -1.880591    0.498792    0.459490
     13          1           0       -2.686275   -0.701388   -0.040654
     14          1           0       -2.094427    0.974415   -1.200345
 ---------------------------------------------------------------------

 SCF Done:  E(RB2PLYPD3) =  -157.788028070     A.U. after   11 cycles
 E2(B2PLYPD3) =    -0.2493096040D+00 E(B2PLYPD3) =    -0.15803733767454D+03

 The electronic state is 1-A.
 Alpha  occ. eigenvalues --  -10.60648 -10.59784 -10.59140 -10.58609  -0.94686
 Alpha  occ. eigenvalues --   -0.83691  -0.75083  -0.69316  -0.56365  -0.52356
 Alpha  occ. eigenvalues --   -0.48294  -0.46710  -0.43141  -0.41466  -0.41033
 Alpha  occ. eigenvalues --   -0.36962  -0.33544
 Alpha virt. eigenvalues --    0.05471   0.06261   0.07877   0.08558   0.11139
 Alpha virt. eigenvalues --    0.11402   0.12832   0.13467   0.14405   0.14991
 Alpha virt. eigenvalues --    0.16381   0.16858   0.17914   0.19653   0.21150

 Mulliken charges:
               1
     1  C   -0.204409
     2  C   -0.145883
     3  H    0.056203
     4  H    0.063393
     5  H    0.057605
     6  C   -0.036066
     7  H    0.105666
     8  H    0.047492
     9  C   -0.584489
    10  H    0.028774
    11  H    0.084633
    12  H    0.444166
    13  H    0.069733
    14  H    0.013182
 Sum of Mulliken charges =   0.00000

 Dipole moment (field-independent basis, Debye):
    X=             -0.1297    Y=             -0.0025    Z=              0.1484  Tot=              0.1970
 Quadrupole moment (field-independent basis, Debye-Ang):
   XX=            -30.5520   YY=            -29.0250   ZZ=            -27.3861
   XY=              0.7688   XZ=             -0.6311   YZ=             -0.3979

 Normal termination of Gaussian 09 at Wed Aug 26 15:07:17 2020.
