 Gaussian 09, Revision D.01,
 Gaussian 09:  ES64L-G09RevD.01 24-Apr-2013

 --------------------
 #p B2PLYPD3/Def2QZVP
 --------------------

 ----------
 butane_opt
 ----------
 Symbolic Z-matrix:
 Charge =  0 Multiplicity = 1

                         Standard orientation:
 ---------------------------------------------------------------------
 Center     Atomic      Atomic             Coordinates (Angstroms)
 Number     Number       Type             X           Y           Z
 ---------------------------------------------------------------------
      1          6           0       -1.869050   -0.072771   -0.226287
      2          6           0       -0.603733    0.434134    0.316475
      3          1           0       -2.722528    0.755845   -0.527634
      4          1           0       -2.227907   -0.861168    0.618630
      5          1           0       -1.626700   -0.460565   -0.962602
      6          6           0        0.508960   -0.583569    0.149282
      7          1           0       -0.844853    1.060631    1.274260
      8          1           0       -0.204536    1.113818   -0.490954
      9          6           0        2.019688    0.135543   -0.070852
     10          1           0        0.049538   -1.054613   -0.764361
     11          1           0        0.417512   -1.176946    0.691193
     12          1           0        1.967233    1.119635   -1.005406
     13          1           0        2.732939   -0.490346   -0.392474
     14          1           0        2.124111    0.513683    0.547649
 ---------------------------------------------------------------------

 SCF Done:  E(RB2PLYPD3) =  -157.723967911     A.U. after   11 cycles
 E2(B2PLYPD3) =    -0.2487390688D+00 E(B2PLYPD3) =    -0.15797270697981D+03

 The electronic state is 1-A.
 Alpha  occ. eigenvalues --  -10.60570 -10.59496 -10.59330 -10.59122  -0.93689
 Alpha  occ. eigenvalues --   -0.85793  -0.78088  -0.68017  -0.56919  -0.55066
 Alpha  occ. eigenvalues --   -0.48529  -0.46503  -0.43840  -0.40035  -0.39167
 Alpha  occ. eigenvalues --   -0.37883  -0.35304
 Alpha virt. eigenvalues --    0.05215   0.06509   0.08223   0.09180   0.10848
 Alpha virt. eigenvalues --    0.11791   0.12444   0.13625   0.14378   0.15247
 Alpha virt. eigenvalues --    0.16559   0.17170   0.19090   0.19735   0.21719

 Mulliken charges:
               1
     1  C   -0.227644
     2  C   -0.031227
     3  H    0.035164
     4  H    0.028371
     5  H    0.129139
     6  C   -0.223407
     7  H    0.031548
     8  H    0.037044
     9  C   -0.476194
    10  H    0.025932
    11  H    0.204102
    12  H    0.009095
    13  H    0.081135
    14  H    0.376942
 Sum of Mulliken charges =   0.00000

 Dipole moment (field-independent basis, Debye):
    X=              0.3887    Y=             -0.2855    Z=              0.1001  Tot=              0.4925
 Quadrupole moment (field-independent basis, Debye-Ang):
   XX=            -29.1645   YY=            -28.9374   ZZ=            -28.1281
   XY=             -0.6119   XZ=              0.4621   YZ=             -0.2463

 Normal termination of Gaussian 09 at Wed Aug 26 10:08:17 2020.
