 Gaussian 09, Revision D.01,
 Gaussian 09:  ES64L-G09RevD.01 24-Apr-2013

 --------------------
 #p B2PLYPD3/Def2QZVP
 --------------------

 ----------
 butane_opt
 ----------
 Symbolic Z-matrix:
 Charge =  0 Multiplicity = 1

                         Standard orientation:
 ---------------------------------------------------------------------
 Center     Atomic      Atomic             Coordinates (Angstroms)
 Number     Number       Type             X           Y           Z
 ---------------------------------------------------------------------
      1          6           0       -2.010774   -0.144471    0.149221
      2          6           0       -0.546189    0.597459   -0.095013
      3          1           0       -2.718835    0.505373   -0.283417
      4          1           0       -2.136247   -1.270071    1.245969
      5          1           0       -1.926469   -0.271029   -0.472755
      6          6           0        0.519333   -0.541262   -0.160363
      7          1           0       -0.275771    1.104261    0.802314
      8          1           0       -0.641583    1.513669   -1.157423
      9          6           0        1.966474    0.092896    0.070008
     10          1           0        0.463715   -1.490314   -1.287832
     11          1           0        0.617786   -0.930816    0.510869
     12          1           0        2.271074    0.441191   -0.588596
     13          1           0        2.602503   -0.739359    0.225266
     14          1           0        2.170765    1.109367    1.222488
 ---------------------------------------------------------------------

 SCF Done:  E(RB2PLYPD3) =  -157.257884010     A.U. after   12 cycles
 E2(B2PLYPD3) =    -0.2571567645D+00 E(B2PLYPD3) =    -0.15751504077451D+03

 The electronic state is 1-A.
 Alpha  occ. eigenvalues --  -10.65456 -10.62283 -10.61048 -10.60025  -0.94341
 Alpha  occ. eigenvalues --   -0.89597  -0.77882  -0.69829  -0.53303  -0.48116
 Alpha  occ. eigenvalues --   -0.47505  -0.44680  -0.43429  -0.38919  -0.38282
 Alpha  occ. eigenvalues --   -0.36119  -0.35056
 Alpha virt. eigenvalues --    0.02865   0.03278   0.04875   0.06663   0.09508
 Alpha virt. eigenvalues --    0.10793   0.11435   0.12668   0.13678   0.15092
 Alpha virt. eigenvalues --    0.15630   0.16425   0.17770   0.18549   0.20909

 Mulliken charges:
               1
     1  C   -0.823444
     2  C   -0.052403
     3  H    0.061672
     4  H    0.068613
     5  H    0.676994
     6  C   -0.388470
     7  H    0.080572
     8  H    0.017863
     9  C   -0.296585
    10  H    0.011333
    11  H    0.376861
    12  H    0.215811
    13  H    0.052836
    14  H   -0.001655
 Sum of Mulliken charges =   0.00000

 Dipole moment (field-independent basis, Debye):
    X=              0.3178    Y=             -0.2958    Z=             -0.3686  Tot=              0.5695
 Quadrupole moment (field-independent basis, Debye-Ang):
   XX=            -30.5548   YY=            -29.0305   ZZ=            -28.3756
   XY=             -0.4516   XZ=              0.6693   YZ=             -1.2905

 Normal termination of Gaussian 09 at Wed Aug 26 23:19:52 2020.
