 Gaussian 09, Revision D.01,
 Gaussian 09:  ES64L-G09RevD.01 24-Apr-2013

 --------------------
 #p B2PLYPD3/Def2QZVP
 --------------------

 ----------
 butane_opt
 ----------
 Symbolic Z-matrix:
 Charge =  0 Multiplicity = 1

                         Standard orientation:
 ---------------------------------------------------------------------
 Center     Atomic      Atomic             Coordinates (Angstroms)
 Number     Number       Type             X           Y           Z
 ---------------------------------------------------------------------
      1          6           0       -1.887588    0.177986   -0.092987
      2          6           0       -0.542553   -0.486914    0.026077
      3          1           0       -2.806703   -0.788695    0.248995
      4          1           0       -2.123352    1.313112   -1.083484
      5          1           0       -1.975741    0.212681    0.438208
      6          6           0        0.501188    0.450540    0.132922
      7          1           0       -0.134743   -1.021653   -0.834811
      8          1           0       -0.564787   -1.384866    1.061426
      9          6           0        1.950771   -0.130474   -0.102290
     10          1           0        0.500411    1.266896    1.204503
     11          1           0        0.361096    0.787286   -0.496117
     12          1           0        1.656087   -0.463725    0.519944
     13          1           0        2.787465    0.811149    0.194269
     14          1           0        2.169353   -0.799009   -1.035267
 ---------------------------------------------------------------------

 SCF Done:  E(RB2PLYPD3) =  -156.827422632     A.U. after   12 cycles
 E2(B2PLYPD3) =    -0.2574861870D+00 E(B2PLYPD3) =    -0.15708490881931D+03

 The electronic state is 1-A.
 Alpha  occ. eigenvalues --  -10.65273 -10.63954 -10.59633 -10.59146  -0.99486
 Alpha  occ. eigenvalues --   -0.91812  -0.80609  -0.68823  -0.56683  -0.51040
 Alpha  occ. eigenvalues --   -0.49568  -0.47278  -0.43067  -0.40875  -0.36883
 Alpha  occ. eigenvalues --   -0.35783  -0.34386
 Alpha virt. eigenvalues --    0.02758   0.04198   0.06159   0.06955   0.09447
 Alpha virt. eigenvalues --    0.11127   0.11649   0.12769   0.13869   0.14979
 Alpha virt. eigenvalues --    0.15976   0.16496   0.17350   0.18769   0.21206

 Mulliken charges:
               1
     1  C   -0.991772
     2  C    0.062016
     3  H    0.029077
     4  H    0.082646
     5  H    0.799715
     6  C   -0.516751
     7  H    0.060313
     8  H   -0.019562
     9  C   -0.493606
    10  H    0.023122
    11  H    0.483545
    12  H    0.363690
    13  H    0.051194
    14  H    0.066373
 Sum of Mulliken charges =   0.00000

 Dipole moment (field-independent basis, Debye):
    X=             -0.1566    Y=              0.4285    Z=             -0.1370  Tot=              0.4763
 Quadrupole moment (field-independent basis, Debye-Ang):
   XX=            -31.8951   YY=            -29.1659   ZZ=            -27.9775
   XY=             -0.5873   XZ=             -1.2768   YZ=             -0.3651

 Normal termination of Gaussian 09 at Wed Aug 26 23:09:56 2020.
