 Gaussian 09, Revision D.01,
 Gaussian 09:  ES64L-G09RevD.01 24-Apr-2013

 --------------------
 #p B2PLYPD3/Def2QZVP
 --------------------

 ----------
 butane_opt
 ----------
 Symbolic Z-matrix:
 Charge =  0 Multiplicity = 1

                         Standard orientation:
 ---------------------------------------------------------------------
 Center     Atomic      Atomic             Coordinates (Angstroms)
 Number     Number       Type             X           Y           Z
 ---------------------------------------------------------------------
      1          6           0       -1.946902    0.048490   -0.159252
      2          6           0       -0.642709   -0.440614    0.069487
      3          1           0       -2.566879   -0.673002    0.013647
      4          1           0       -1.861517    0.756148   -1.156747
      5          1           0       -2.173451    0.537867    0.534242
      6          6           0        0.583756    0.531910    0.168758
      7          1           0       -0.412498   -0.831345   -0.561115
      8          1           0       -0.865179   -1.310261    1.154663
      9          6           0        2.031028   -0.162576   -0.100988
     10          1           0        0.188856    1.665915    1.353243
     11          1           0        0.275267    1.088616   -0.458552
     12          1           0        2.720536   -0.845855    0.892043
     13          1           0        2.797688    0.460077   -0.794821
     14          1           0        1.746140   -0.711418   -0.844639
 ---------------------------------------------------------------------

 SCF Done:  E(RB2PLYPD3) =  -157.674164909     A.U. after   12 cycles
 E2(B2PLYPD3) =    -0.2536535142D+00 E(B2PLYPD3) =    -0.15792781842309D+03

 The electronic state is 1-A.
 Alpha  occ. eigenvalues --  -10.65333 -10.65260 -10.60269 -10.57346  -0.95909
 Alpha  occ. eigenvalues --   -0.86050  -0.77063  -0.70688  -0.53538  -0.52348
 Alpha  occ. eigenvalues --   -0.49941  -0.47589  -0.44498  -0.41830  -0.39138
 Alpha  occ. eigenvalues --   -0.35388  -0.32563
 Alpha virt. eigenvalues --    0.02650   0.04987   0.06825   0.07143   0.09740
 Alpha virt. eigenvalues --    0.10593   0.11630   0.13354   0.14127   0.14852
 Alpha virt. eigenvalues --    0.15570   0.16475   0.17362   0.18822   0.20252

 Mulliken charges:
               1
     1  C   -0.149916
     2  C   -0.302000
     3  H    0.054110
     4  H    0.021342
     5  H    0.109032
     6  C   -0.133535
     7  H    0.314316
     8  H   -0.026537
     9  C   -0.191390
    10  H   -0.063237
    11  H    0.158188
    12  H    0.065190
    13  H    0.043941
    14  H    0.100497
 Sum of Mulliken charges =   0.00000

 Dipole moment (field-independent basis, Debye):
    X=             -0.0768    Y=             -0.6074    Z=             -1.2887  Tot=              1.4267
 Quadrupole moment (field-independent basis, Debye-Ang):
   XX=            -27.9590   YY=            -31.0442   ZZ=            -29.4106
   XY=             -0.7442   XZ=             -1.8672   YZ=             -1.2338

 Normal termination of Gaussian 09 at Wed Aug 26 12:58:56 2020.
