 Gaussian 09, Revision D.01,
 Gaussian 09:  ES64L-G09RevD.01 24-Apr-2013

 --------------------
 #p B2PLYPD3/Def2QZVP
 --------------------

 ----------
 butane_opt
 ----------
 Symbolic Z-matrix:
 Charge =  0 Multiplicity = 1

                         Standard orientation:
 ---------------------------------------------------------------------
 Center     Atomic      Atomic             Coordinates (Angstroms)
 Number     Number       Type             X           Y           Z
 ---------------------------------------------------------------------
      1          6           0        1.922237   -0.131811    0.148534
      2          6           0        0.467129    0.562261   -0.146039
      3          1           0        2.425183    0.394921    0.141990
      4          1           0        2.231521   -0.768492   -0.859609
      5          1           0        1.872355   -0.837630    1.038650
      6          6           0       -0.535838   -0.437741   -0.184077
      7          1           0        0.679492    1.357755   -1.036592
      8          1           0        0.305420    1.111284    0.721953
      9          6           0       -1.862411    0.078016    0.112165
     10          1           0       -0.135948   -1.161246    0.825521
     11          1           0       -0.711435   -1.085199   -1.124505
     12          1           0       -1.759331    0.877220    1.155090
     13          1           0       -2.718690   -0.715454    0.235070
     14          1           0       -2.135272    0.402491   -0.681072
 ---------------------------------------------------------------------

 SCF Done:  E(RB2PLYPD3) =  -157.814355892     A.U. after   11 cycles
 E2(B2PLYPD3) =    -0.2504596050D+00 E(B2PLYPD3) =    -0.15806481549674D+03

 The electronic state is 1-A.
 Alpha  occ. eigenvalues --  -10.62377 -10.61481 -10.60228 -10.58367  -0.93703
 Alpha  occ. eigenvalues --   -0.85709  -0.76365  -0.64633  -0.55136  -0.53409
 Alpha  occ. eigenvalues --   -0.48794  -0.46832  -0.44388  -0.39698  -0.38058
 Alpha  occ. eigenvalues --   -0.37289  -0.34527
 Alpha virt. eigenvalues --    0.05302   0.06598   0.07373   0.07610   0.10447
 Alpha virt. eigenvalues --    0.11788   0.12857   0.13410   0.14074   0.15029
 Alpha virt. eigenvalues --    0.15873   0.16823   0.19027   0.19747   0.21878

 Mulliken charges:
               1
     1  C   -0.467684
     2  C   -0.029674
     3  H    0.340694
     4  H    0.026894
     5  H    0.062700
     6  C   -0.035290
     7  H    0.011387
     8  H    0.066383
     9  C   -0.181874
    10  H    0.005367
    11  H    0.043426
    12  H    0.022463
    13  H    0.033429
    14  H    0.101778
 Sum of Mulliken charges =   0.00000

 Dipole moment (field-independent basis, Debye):
    X=             -0.0032    Y=              0.2693    Z=             -0.2197  Tot=              0.3475
 Quadrupole moment (field-independent basis, Debye-Ang):
   XX=            -29.6182   YY=            -29.7762   ZZ=            -28.0958
   XY=              1.2335   XZ=              1.2490   YZ=              0.2101

 Normal termination of Gaussian 09 at Wed Aug 26 21:58:35 2020.
