 Gaussian 09, Revision D.01,
 Gaussian 09:  ES64L-G09RevD.01 24-Apr-2013

 --------------------
 #p B2PLYPD3/Def2QZVP
 --------------------

 ----------
 butane_opt
 ----------
 Symbolic Z-matrix:
 Charge =  0 Multiplicity = 1

                         Standard orientation:
 ---------------------------------------------------------------------
 Center     Atomic      Atomic             Coordinates (Angstroms)
 Number     Number       Type             X           Y           Z
 ---------------------------------------------------------------------
      1          6           0       -1.905476   -0.066792    0.131885
      2          6           0       -0.627337    0.391698   -0.100208
      3          1           0       -2.593396    0.667972   -0.138744
      4          1           0       -1.801230   -0.977586    1.136610
      5          1           0       -1.968557   -0.508850   -0.532730
      6          6           0        0.560562   -0.536007   -0.086588
      7          1           0       -0.389149    1.113683    0.624456
      8          1           0       -0.591445    1.267663   -1.127272
      9          6           0        1.966487    0.168068    0.148324
     10          1           0        0.311223   -1.202961   -1.008822
     11          1           0        0.328576   -0.910366    0.556232
     12          1           0        1.786173    0.538147   -0.667955
     13          1           0        2.659423   -0.612721   -0.435129
     14          1           0        2.292965    0.883216    1.032874
 ---------------------------------------------------------------------

 SCF Done:  E(RB2PLYPD3) =  -157.706947417     A.U. after   11 cycles
 E2(B2PLYPD3) =    -0.2517927693D+00 E(B2PLYPD3) =    -0.15795874018666D+03

 The electronic state is 1-A.
 Alpha  occ. eigenvalues --  -10.60842 -10.60410 -10.58598 -10.58041  -0.96462
 Alpha  occ. eigenvalues --   -0.88186  -0.77247  -0.68005  -0.55994  -0.52309
 Alpha  occ. eigenvalues --   -0.49655  -0.47676  -0.44352  -0.40939  -0.38906
 Alpha  occ. eigenvalues --   -0.35445  -0.34278
 Alpha virt. eigenvalues --    0.05349   0.05886   0.06984   0.08132   0.10814
 Alpha virt. eigenvalues --    0.11905   0.12142   0.13107   0.13729   0.15302
 Alpha virt. eigenvalues --    0.15798   0.16846   0.18427   0.19181   0.21797

 Mulliken charges:
               1
     1  C   -0.328971
     2  C    0.008976
     3  H    0.060886
     4  H    0.029100
     5  H    0.240364
     6  C   -0.349716
     7  H    0.028410
     8  H   -0.055770
     9  C   -0.267749
    10  H    0.035573
    11  H    0.315046
    12  H    0.157522
    13  H    0.039973
    14  H    0.086356
 Sum of Mulliken charges =   0.00000

 Dipole moment (field-independent basis, Debye):
    X=             -0.2066    Y=             -0.0508    Z=             -0.1408  Tot=              0.2551
 Quadrupole moment (field-independent basis, Debye-Ang):
   XX=            -30.0605   YY=            -29.2344   ZZ=            -28.2074
   XY=              0.4457   XZ=              1.0938   YZ=              0.9011

 Normal termination of Gaussian 09 at Wed Aug 26 13:05:30 2020.
