 Gaussian 09, Revision D.01,
 Gaussian 09:  ES64L-G09RevD.01 24-Apr-2013

 --------------------
 #p B2PLYPD3/Def2QZVP
 --------------------

 ----------
 butane_opt
 ----------
 Symbolic Z-matrix:
 Charge =  0 Multiplicity = 1

                         Standard orientation:
 ---------------------------------------------------------------------
 Center     Atomic      Atomic             Coordinates (Angstroms)
 Number     Number       Type             X           Y           Z
 ---------------------------------------------------------------------
      1          6           0       -1.933791   -0.143833   -0.000042
      2          6           0       -0.517636    0.559080   -0.061196
      3          1           0       -2.512301    0.410614   -0.137273
      4          1           0       -2.066181   -0.622493    0.881827
      5          1           0       -2.287551   -0.600386   -0.762327
      6          6           0        0.578379   -0.483850    0.117192
      7          1           0       -0.398585    1.290051    0.874866
      8          1           0       -0.592722    0.983773   -0.888390
      9          6           0        1.858224    0.076548   -0.078674
     10          1           0        0.509012   -1.009383   -0.598666
     11          1           0        0.411045   -1.195876    1.122741
     12          1           0        1.660793    0.465174   -0.639793
     13          1           0        2.695145   -0.853605   -0.620867
     14          1           0        2.670294    1.084466    0.904197
 ---------------------------------------------------------------------

 SCF Done:  E(RB2PLYPD3) =  -157.592882232     A.U. after   12 cycles
 E2(B2PLYPD3) =    -0.2498296003D+00 E(B2PLYPD3) =    -0.15784271183263D+03

 The electronic state is 1-A.
 Alpha  occ. eigenvalues --  -10.62177 -10.60546 -10.59837 -10.54498  -0.97061
 Alpha  occ. eigenvalues --   -0.89440  -0.77526  -0.70299  -0.57111  -0.53136
 Alpha  occ. eigenvalues --   -0.50115  -0.46888  -0.45175  -0.40937  -0.39060
 Alpha  occ. eigenvalues --   -0.37672  -0.34180
 Alpha virt. eigenvalues --    0.03345   0.06085   0.07544   0.08236   0.09297
 Alpha virt. eigenvalues --    0.11167   0.12623   0.13575   0.14745   0.15331
 Alpha virt. eigenvalues --    0.16283   0.16962   0.18641   0.19876   0.20835

 Mulliken charges:
               1
     1  C   -0.257711
     2  C   -0.057091
     3  H    0.163605
     4  H    0.051551
     5  H    0.011123
     6  C   -0.071995
     7  H    0.034016
     8  H    0.062163
     9  C   -0.615086
    10  H    0.145556
    11  H    0.015554
    12  H    0.484779
    13  H    0.033469
    14  H    0.000066
 Sum of Mulliken charges =   0.00000

 Dipole moment (field-independent basis, Debye):
    X=             -1.1011    Y=             -0.0719    Z=             -0.9132  Tot=              1.4323
 Quadrupole moment (field-independent basis, Debye-Ang):
   XX=            -30.4186   YY=            -29.1673   ZZ=            -27.6155
   XY=             -0.5975   XZ=             -0.0246   YZ=             -0.0632

 Normal termination of Gaussian 09 at Wed Aug 26 18:44:58 2020.
