 Gaussian 09, Revision D.01,
 Gaussian 09:  ES64L-G09RevD.01 24-Apr-2013

 --------------------
 #p B2PLYPD3/Def2QZVP
 --------------------

 ----------
 butane_opt
 ----------
 Symbolic Z-matrix:
 Charge =  0 Multiplicity = 1

                         Standard orientation:
 ---------------------------------------------------------------------
 Center     Atomic      Atomic             Coordinates (Angstroms)
 Number     Number       Type             X           Y           Z
 ---------------------------------------------------------------------
      1          6           0        1.970371   -0.178353    0.169073
      2          6           0        0.529416    0.578660   -0.166519
      3          1           0        2.768281    0.371701    0.330278
      4          1           0        2.292950   -0.527241   -0.783721
      5          1           0        2.082239   -1.128359    1.064560
      6          6           0       -0.532913   -0.366019   -0.310147
      7          1           0        0.617496    1.450471   -1.043625
      8          1           0        0.192541    0.999757    0.791362
      9          6           0       -1.921727    0.056289    0.197916
     10          1           0       -0.544768   -1.225170    0.625005
     11          1           0       -0.541294   -0.904596   -1.210253
     12          1           0       -1.877960    0.823727    1.433600
     13          1           0       -2.950996   -1.009730   -0.137245
     14          1           0       -2.309365    0.605983   -0.411897
 ---------------------------------------------------------------------

 SCF Done:  E(RB2PLYPD3) =  -157.874848600     A.U. after   11 cycles
 E2(B2PLYPD3) =    -0.2554326644D+00 E(B2PLYPD3) =    -0.15813028126425D+03

 The electronic state is 1-A.
 Alpha  occ. eigenvalues --  -10.65209 -10.63569 -10.62051 -10.61459  -0.92133
 Alpha  occ. eigenvalues --   -0.82069  -0.74612  -0.65626  -0.55279  -0.48779
 Alpha  occ. eigenvalues --   -0.46887  -0.46019  -0.40711  -0.40345  -0.38241
 Alpha  occ. eigenvalues --   -0.36373  -0.33363
 Alpha virt. eigenvalues --    0.02379   0.05946   0.06866   0.07222   0.08925
 Alpha virt. eigenvalues --    0.11147   0.11544   0.13257   0.13716   0.13857
 Alpha virt. eigenvalues --    0.15276   0.16060   0.18610   0.19601   0.21278

 Mulliken charges:
               1
     1  C   -0.134633
     2  C   -0.071261
     3  H    0.052758
     4  H    0.035867
     5  H    0.031874
     6  C   -0.020618
     7  H    0.033210
     8  H    0.043135
     9  C   -0.196037
    10  H    0.028191
    11  H    0.057586
    12  H    0.029819
    13  H    0.000238
    14  H    0.109871
 Sum of Mulliken charges =   0.00000

 Dipole moment (field-independent basis, Debye):
    X=              0.4203    Y=              0.5291    Z=             -0.6012  Tot=              0.9044
 Quadrupole moment (field-independent basis, Debye-Ang):
   XX=            -30.6598   YY=            -30.2489   ZZ=            -28.6469
   XY=             -0.4038   XZ=              0.7853   YZ=              0.0034

 Normal termination of Gaussian 09 at Wed Aug 26 22:00:31 2020.
