 Gaussian 09, Revision D.01,
 Gaussian 09:  ES64L-G09RevD.01 24-Apr-2013

 --------------------
 #p B2PLYPD3/Def2QZVP
 --------------------

 ----------
 butane_opt
 ----------
 Symbolic Z-matrix:
 Charge =  0 Multiplicity = 1

                         Standard orientation:
 ---------------------------------------------------------------------
 Center     Atomic      Atomic             Coordinates (Angstroms)
 Number     Number       Type             X           Y           Z
 ---------------------------------------------------------------------
      1          6           0        1.980150    0.129176    0.120950
      2          6           0        0.601437   -0.438240   -0.160338
      3          1           0        2.922285   -0.828962    0.491669
      4          1           0        1.741697    0.510796    0.912624
      5          1           0        2.226647    0.867301   -0.762519
      6          6           0       -0.581724    0.500814   -0.181247
      7          1           0        0.449573   -1.054446    0.536602
      8          1           0        0.733233   -1.223128   -1.161871
      9          6           0       -2.008892   -0.113927    0.074266
     10          1           0       -0.748338    1.142772   -0.985126
     11          1           0       -0.237479    1.406793    0.977865
     12          1           0       -2.322049   -0.653514   -0.710672
     13          1           0       -2.730328    0.255267    0.453044
     14          1           0       -1.981069   -0.889814    1.126599
 ---------------------------------------------------------------------

 SCF Done:  E(RB2PLYPD3) =  -157.880216951     A.U. after   11 cycles
 E2(B2PLYPD3) =    -0.2515513969D+00 E(B2PLYPD3) =    -0.15813176834821D+03

 The electronic state is 1-A.
 Alpha  occ. eigenvalues --  -10.65763 -10.61853 -10.61384 -10.60170  -0.92269
 Alpha  occ. eigenvalues --   -0.85269  -0.75057  -0.67513  -0.54196  -0.52441
 Alpha  occ. eigenvalues --   -0.49727  -0.47949  -0.41260  -0.40107  -0.38855
 Alpha  occ. eigenvalues --   -0.37059  -0.33934
 Alpha virt. eigenvalues --    0.04501   0.05435   0.06305   0.08320   0.09887
 Alpha virt. eigenvalues --    0.11271   0.11771   0.13101   0.13497   0.15039
 Alpha virt. eigenvalues --    0.16168   0.16587   0.18730   0.19501   0.20552

 Mulliken charges:
               1
     1  C   -0.205348
     2  C   -0.053499
     3  H    0.023194
     4  H    0.120305
     5  H    0.056743
     6  C   -0.026105
     7  H    0.096232
     8  H   -0.008393
     9  C   -0.166020
    10  H    0.073260
    11  H   -0.044560
    12  H    0.062058
    13  H    0.093978
    14  H   -0.021844
 Sum of Mulliken charges =   0.00000

 Dipole moment (field-independent basis, Debye):
    X=             -0.5932    Y=             -0.0164    Z=             -0.2171  Tot=              0.6319
 Quadrupole moment (field-independent basis, Debye-Ang):
   XX=            -29.1446   YY=            -30.6036   ZZ=            -28.7013
   XY=             -0.5444   XZ=              0.6970   YZ=             -1.0100

 Normal termination of Gaussian 09 at Wed Aug 26 23:08:23 2020.
