 Gaussian 09, Revision D.01,
 Gaussian 09:  ES64L-G09RevD.01 24-Apr-2013

 --------------------
 #p B2PLYPD3/Def2QZVP
 --------------------

 ----------
 butane_opt
 ----------
 Symbolic Z-matrix:
 Charge =  0 Multiplicity = 1

                         Standard orientation:
 ---------------------------------------------------------------------
 Center     Atomic      Atomic             Coordinates (Angstroms)
 Number     Number       Type             X           Y           Z
 ---------------------------------------------------------------------
      1          6           0       -1.855865    0.038673   -0.238269
      2          6           0       -0.561175   -0.371004    0.276184
      3          1           0       -2.804430   -0.914395   -0.455552
      4          1           0       -1.662995    0.491304   -1.113082
      5          1           0       -2.199418    1.158293    0.646519
      6          6           0        0.458002    0.502220    0.104405
      7          1           0       -0.209039   -0.897645   -0.211612
      8          1           0       -0.858375   -1.249616    1.553894
      9          6           0        1.983243   -0.160838   -0.152452
     10          1           0        0.474176    1.607948    1.034521
     11          1           0        0.215137    0.815748   -0.668052
     12          1           0        2.500272   -0.671878    0.812060
     13          1           0        2.803212    0.518756   -0.443631
     14          1           0        1.596233   -0.912814   -1.094275
 ---------------------------------------------------------------------

 SCF Done:  E(RB2PLYPD3) =  -157.701431663     A.U. after   12 cycles
 E2(B2PLYPD3) =    -0.2566046462D+00 E(B2PLYPD3) =    -0.15795803630874D+03

 The electronic state is 1-A.
 Alpha  occ. eigenvalues --  -10.65684 -10.65569 -10.63141 -10.61108  -1.00308
 Alpha  occ. eigenvalues --   -0.82025  -0.74347  -0.69845  -0.55789  -0.51471
 Alpha  occ. eigenvalues --   -0.48958  -0.46009  -0.42767  -0.40834  -0.37592
 Alpha  occ. eigenvalues --   -0.35654  -0.32983
 Alpha virt. eigenvalues --    0.02613   0.05299   0.05687   0.07291   0.09187
 Alpha virt. eigenvalues --    0.09782   0.11635   0.12060   0.13262   0.14810
 Alpha virt. eigenvalues --    0.15209   0.15951   0.18063   0.18903   0.20076

 Mulliken charges:
               1
     1  C   -0.173672
     2  C   -0.244581
     3  H    0.058164
     4  H    0.075198
     5  H    0.023896
     6  C   -0.192411
     7  H    0.298537
     8  H   -0.035411
     9  C   -0.151029
    10  H   -0.015234
    11  H    0.198718
    12  H    0.058679
    13  H    0.067667
    14  H    0.031479
 Sum of Mulliken charges =   0.00000

 Dipole moment (field-independent basis, Debye):
    X=              0.6009    Y=             -0.1193    Z=             -1.3370  Tot=              1.4707
 Quadrupole moment (field-independent basis, Debye-Ang):
   XX=            -29.6823   YY=            -31.1568   ZZ=            -30.0865
   XY=              1.0748   XZ=              1.2684   YZ=              0.3697

 Normal termination of Gaussian 09 at Wed Aug 26 19:34:08 2020.
