 Gaussian 09, Revision D.01,
 Gaussian 09:  ES64L-G09RevD.01 24-Apr-2013

 --------------------
 #p B2PLYPD3/Def2QZVP
 --------------------

 ----------
 butane_opt
 ----------
 Symbolic Z-matrix:
 Charge =  0 Multiplicity = 1

                         Standard orientation:
 ---------------------------------------------------------------------
 Center     Atomic      Atomic             Coordinates (Angstroms)
 Number     Number       Type             X           Y           Z
 ---------------------------------------------------------------------
      1          6           0       -1.910540    0.079662   -0.116519
      2          6           0       -0.546071   -0.494429    0.218019
      3          1           0       -2.738883   -0.741719   -0.505238
      4          1           0       -1.626549    0.646871   -1.008267
      5          1           0       -2.392076    0.883367    0.752451
      6          6           0        0.524769    0.563688    0.060277
      7          1           0       -0.333859   -1.158973   -0.519350
      8          1           0       -0.441146   -1.097609    1.165506
      9          6           0        1.898872   -0.143403   -0.113304
     10          1           0        0.386220    1.232287    0.897094
     11          1           0        0.352074    1.058275   -0.770253
     12          1           0        2.257892   -0.571679    0.770003
     13          1           0        2.718842    0.610220   -0.078520
     14          1           0        2.015307   -0.894152   -0.994260
 ---------------------------------------------------------------------

 SCF Done:  E(RB2PLYPD3) =  -158.061651271     A.U. after   11 cycles
 E2(B2PLYPD3) =    -0.2482423125D+00 E(B2PLYPD3) =    -0.15830989358348D+03

 The electronic state is 1-A.
 Alpha  occ. eigenvalues --  -10.63031 -10.60512 -10.59602 -10.59380  -0.92211
 Alpha  occ. eigenvalues --   -0.82302  -0.72344  -0.67523  -0.55157  -0.48493
 Alpha  occ. eigenvalues --   -0.47772  -0.46925  -0.42452  -0.40454  -0.39707
 Alpha  occ. eigenvalues --   -0.38131  -0.36442
 Alpha virt. eigenvalues --    0.05560   0.06509   0.08402   0.08739   0.10849
 Alpha virt. eigenvalues --    0.11383   0.12691   0.13589   0.14926   0.15507
 Alpha virt. eigenvalues --    0.15897   0.16254   0.19236   0.19740   0.21503

 Mulliken charges:
               1
     1  C   -0.176228
     2  C   -0.035187
     3  H    0.039940
     4  H    0.057559
     5  H    0.029595
     6  C   -0.064137
     7  H    0.049015
     8  H    0.028626
     9  C   -0.139138
    10  H    0.035248
    11  H    0.064949
    12  H    0.037270
    13  H    0.025981
    14  H    0.046506
 Sum of Mulliken charges =   0.00000

 Dipole moment (field-independent basis, Debye):
    X=              0.3353    Y=             -0.0280    Z=             -0.1106  Tot=              0.3542
 Quadrupole moment (field-independent basis, Debye-Ang):
   XX=            -30.4399   YY=            -29.0316   ZZ=            -28.2591
   XY=              0.0437   XZ=              0.5114   YZ=              0.6521

 Normal termination of Gaussian 09 at Wed Aug 26 18:09:44 2020.
