 Gaussian 09, Revision D.01,
 Gaussian 09:  ES64L-G09RevD.01 24-Apr-2013

 --------------------
 #p B2PLYPD3/Def2QZVP
 --------------------

 ----------
 butane_opt
 ----------
 Symbolic Z-matrix:
 Charge =  0 Multiplicity = 1

                         Standard orientation:
 ---------------------------------------------------------------------
 Center     Atomic      Atomic             Coordinates (Angstroms)
 Number     Number       Type             X           Y           Z
 ---------------------------------------------------------------------
      1          6           0       -1.897482    0.079900    0.067193
      2          6           0       -0.558321   -0.387837    0.005938
      3          1           0       -2.809771   -1.020578   -0.531770
      4          1           0       -1.675845    0.434612   -0.728681
      5          1           0       -2.263898    1.021018    1.041044
      6          6           0        0.548731    0.528555   -0.158504
      7          1           0       -0.782956   -0.937357   -0.523613
      8          1           0       -0.482614   -1.167969    1.055661
      9          6           0        1.941806   -0.159614    0.011262
     10          1           0        0.476859    1.412589    0.835335
     11          1           0        0.306584    1.163783   -1.081388
     12          1           0        2.110080   -0.860290    1.008803
     13          1           0        2.722909    0.547060    0.192481
     14          1           0        2.190245   -0.958891   -0.823202
 ---------------------------------------------------------------------

 SCF Done:  E(RB2PLYPD3) =  -157.753367791     A.U. after   11 cycles
 E2(B2PLYPD3) =    -0.2556809660D+00 E(B2PLYPD3) =    -0.15800904875676D+03

 The electronic state is 1-A.
 Alpha  occ. eigenvalues --  -10.65286 -10.64121 -10.63406 -10.59311  -0.98295
 Alpha  occ. eigenvalues --   -0.85002  -0.72348  -0.68181  -0.55253  -0.51116
 Alpha  occ. eigenvalues --   -0.48508  -0.46681  -0.41574  -0.41249  -0.36789
 Alpha  occ. eigenvalues --   -0.35906  -0.33604
 Alpha virt. eigenvalues --    0.02297   0.05358   0.06935   0.07381   0.09431
 Alpha virt. eigenvalues --    0.09660   0.12087   0.12848   0.13869   0.14473
 Alpha virt. eigenvalues --    0.15279   0.16348   0.18433   0.19767   0.20167

 Mulliken charges:
               1
     1  C   -0.231384
     2  C   -0.288822
     3  H    0.003959
     4  H    0.149866
     5  H    0.039380
     6  C   -0.016693
     7  H    0.288797
     8  H   -0.006688
     9  C   -0.123780
    10  H    0.005752
    11  H    0.042236
    12  H    0.038583
    13  H    0.061073
    14  H    0.037721
 Sum of Mulliken charges =   0.00000

 Dipole moment (field-independent basis, Debye):
    X=              0.6837    Y=              0.2543    Z=             -0.6571  Tot=              0.9818
 Quadrupole moment (field-independent basis, Debye-Ang):
   XX=            -31.7057   YY=            -29.7553   ZZ=            -29.1310
   XY=             -0.0312   XZ=              1.0418   YZ=              1.0645

 Normal termination of Gaussian 09 at Wed Aug 26 20:32:13 2020.
