 Gaussian 09, Revision D.01,
 Gaussian 09:  ES64L-G09RevD.01 24-Apr-2013

 --------------------
 #p B2PLYPD3/Def2QZVP
 --------------------

 ----------
 butane_opt
 ----------
 Symbolic Z-matrix:
 Charge =  0 Multiplicity = 1

                         Standard orientation:
 ---------------------------------------------------------------------
 Center     Atomic      Atomic             Coordinates (Angstroms)
 Number     Number       Type             X           Y           Z
 ---------------------------------------------------------------------
      1          6           0        1.892723    0.077834   -0.132239
      2          6           0        0.590585   -0.401116    0.223047
      3          1           0        2.979733   -0.894580   -0.184758
      4          1           0        1.953895    0.445644    0.572033
      5          1           0        1.807906    0.646093   -1.130199
      6          6           0       -0.520082    0.644751    0.159541
      7          1           0        0.539415   -0.642441    1.095133
      8          1           0        0.440940   -1.221029   -0.597904
      9          6           0       -1.934201   -0.224148   -0.153378
     10          1           0       -0.232600    0.947640   -0.586685
     11          1           0       -0.689478    1.477028    1.012177
     12          1           0       -1.585141   -0.781185   -0.883712
     13          1           0       -2.728129    0.482878   -0.945287
     14          1           0       -2.660697   -1.043976    1.067381
 ---------------------------------------------------------------------

 SCF Done:  E(RB2PLYPD3) =  -157.693510587     A.U. after   12 cycles
 E2(B2PLYPD3) =    -0.2547925329D+00 E(B2PLYPD3) =    -0.15794830311995D+03

 The electronic state is 1-A.
 Alpha  occ. eigenvalues --  -10.66555 -10.61245 -10.60177 -10.59072  -0.96359
 Alpha  occ. eigenvalues --   -0.84763  -0.73040  -0.69197  -0.59672  -0.50856
 Alpha  occ. eigenvalues --   -0.47021  -0.44739  -0.43445  -0.41032  -0.37176
 Alpha  occ. eigenvalues --   -0.35561  -0.34852
 Alpha virt. eigenvalues --    0.02012   0.04589   0.07542   0.08072   0.09518
 Alpha virt. eigenvalues --    0.09694   0.11128   0.12875   0.14090   0.15046
 Alpha virt. eigenvalues --    0.15731   0.16449   0.17834   0.18433   0.19889

 Mulliken charges:
               1
     1  C   -0.370816
     2  C   -0.087514
     3  H    0.007719
     4  H    0.275795
     5  H    0.061112
     6  C   -0.219623
     7  H    0.090487
     8  H    0.030879
     9  C   -0.215710
    10  H    0.208752
    11  H    0.044850
    12  H    0.115022
    13  H    0.025036
    14  H    0.034012
 Sum of Mulliken charges =   0.00000

 Dipole moment (field-independent basis, Debye):
    X=              0.2719    Y=              0.3165    Z=             -0.1515  Tot=              0.4439
 Quadrupole moment (field-independent basis, Debye-Ang):
   XX=            -33.3967   YY=            -30.0354   ZZ=            -27.3768
   XY=             -0.0539   XZ=              0.4395   YZ=              0.0399

 Normal termination of Gaussian 09 at Wed Aug 26 12:17:30 2020.
