 Gaussian 09, Revision D.01,
 Gaussian 09:  ES64L-G09RevD.01 24-Apr-2013

 --------------------
 #p B2PLYPD3/Def2QZVP
 --------------------

 ----------
 butane_opt
 ----------
 Symbolic Z-matrix:
 Charge =  0 Multiplicity = 1

                         Standard orientation:
 ---------------------------------------------------------------------
 Center     Atomic      Atomic             Coordinates (Angstroms)
 Number     Number       Type             X           Y           Z
 ---------------------------------------------------------------------
      1          6           0        2.026667   -0.131138    0.044887
      2          6           0        0.578329    0.609911   -0.033141
      3          1           0        2.523267    0.267522   -0.412219
      4          1           0        1.834934   -0.546229   -0.672611
      5          1           0        2.395010   -0.834570    1.113144
      6          6           0       -0.538004   -0.512731    0.070797
      7          1           0        0.641485    1.325407   -1.198045
      8          1           0        0.225762    1.027971    0.624456
      9          6           0       -1.996793    0.095939    0.019858
     10          1           0       -0.555898   -0.960596    0.832953
     11          1           0       -0.504600   -1.302302   -0.810213
     12          1           0       -2.344719    1.143809    1.102663
     13          1           0       -2.803455   -0.828094   -0.743554
     14          1           0       -1.832981    0.335196   -0.450978
 ---------------------------------------------------------------------

 SCF Done:  E(RB2PLYPD3) =  -156.959282645     A.U. after   12 cycles
 E2(B2PLYPD3) =    -0.2549146469D+00 E(B2PLYPD3) =    -0.15721419729143D+03

 The electronic state is 1-A.
 Alpha  occ. eigenvalues --  -10.64171 -10.62615 -10.60469 -10.57385  -0.95293
 Alpha  occ. eigenvalues --   -0.90941  -0.80887  -0.71432  -0.54430  -0.50124
 Alpha  occ. eigenvalues --   -0.47086  -0.46178  -0.42988  -0.41816  -0.38857
 Alpha  occ. eigenvalues --   -0.36698  -0.35156
 Alpha virt. eigenvalues --    0.02043   0.05409   0.06649   0.06953   0.09973
 Alpha virt. eigenvalues --    0.10737   0.12268   0.12640   0.13411   0.15366
 Alpha virt. eigenvalues --    0.16281   0.17341   0.17569   0.19026   0.19848

 Mulliken charges:
               1
     1  C   -0.471711
     2  C   -0.182809
     3  H    0.240259
     4  H    0.168228
     5  H    0.069735
     6  C   -0.035081
     7  H    0.003228
     8  H    0.190933
     9  C   -1.021619
    10  H    0.120956
    11  H    0.011435
    12  H    0.046589
    13  H    0.044842
    14  H    0.815015
 Sum of Mulliken charges =   0.00000

 Dipole moment (field-independent basis, Debye):
    X=              0.7391    Y=             -0.0689    Z=             -0.3206  Tot=              0.8086
 Quadrupole moment (field-independent basis, Debye-Ang):
   XX=            -31.6408   YY=            -29.0944   ZZ=            -26.8936
   XY=             -0.6571   XZ=             -0.3268   YZ=              0.3136

 Normal termination of Gaussian 09 at Wed Aug 26 10:05:20 2020.
