 Gaussian 09, Revision D.01,
 Gaussian 09:  ES64L-G09RevD.01 24-Apr-2013

 --------------------
 #p B2PLYPD3/Def2QZVP
 --------------------

 ----------
 butane_opt
 ----------
 Symbolic Z-matrix:
 Charge =  0 Multiplicity = 1

                         Standard orientation:
 ---------------------------------------------------------------------
 Center     Atomic      Atomic             Coordinates (Angstroms)
 Number     Number       Type             X           Y           Z
 ---------------------------------------------------------------------
      1          6           0       -1.926950   -0.126216    0.080297
      2          6           0       -0.554665    0.532417   -0.043547
      3          1           0       -2.614428    0.563358   -0.396345
      4          1           0       -2.249209   -1.009017    1.120064
      5          1           0       -1.756615   -0.383592   -0.622956
      6          6           0        0.570064   -0.533362   -0.099688
      7          1           0       -0.381328    0.989670    0.731490
      8          1           0       -0.402715    1.309290   -0.975351
      9          6           0        1.887264    0.117912    0.110697
     10          1           0        0.464693   -1.199266   -1.071429
     11          1           0        0.373850   -1.005158    0.680689
     12          1           0        1.979274    0.555483   -0.642415
     13          1           0        2.676289   -0.665766   -0.271419
     14          1           0        2.055909    0.900492    1.161119
 ---------------------------------------------------------------------

 SCF Done:  E(RB2PLYPD3) =  -157.750672093     A.U. after   11 cycles
 E2(B2PLYPD3) =    -0.2507154615D+00 E(B2PLYPD3) =    -0.15800138755413D+03

 The electronic state is 1-A.
 Alpha  occ. eigenvalues --  -10.60034 -10.59825 -10.59223 -10.58500  -0.94674
 Alpha  occ. eigenvalues --   -0.87657  -0.75664  -0.68601  -0.55110  -0.48829
 Alpha  occ. eigenvalues --   -0.48705  -0.46525  -0.41875  -0.41567  -0.39397
 Alpha  occ. eigenvalues --   -0.37821  -0.35146
 Alpha virt. eigenvalues --    0.05457   0.05676   0.07142   0.08027   0.10816
 Alpha virt. eigenvalues --    0.11585   0.12433   0.12733   0.14188   0.15460
 Alpha virt. eigenvalues --    0.16085   0.17080   0.18505   0.19191   0.21332

 Mulliken charges:
               1
     1  C   -0.517222
     2  C   -0.077495
     3  H    0.053146
     4  H    0.070134
     5  H    0.368852
     6  C   -0.064440
     7  H    0.085544
     8  H    0.002709
     9  C   -0.239365
    10  H    0.014848
    11  H    0.093974
    12  H    0.131941
    13  H    0.027861
    14  H    0.049514
 Sum of Mulliken charges =   0.00000

 Dipole moment (field-independent basis, Debye):
    X=              0.1044    Y=              0.0177    Z=             -0.3400  Tot=              0.3561
 Quadrupole moment (field-independent basis, Debye-Ang):
   XX=            -31.1350   YY=            -29.1501   ZZ=            -27.0894
   XY=              0.5463   XZ=             -0.3825   YZ=             -0.1963

 Normal termination of Gaussian 09 at Wed Aug 26 10:52:58 2020.
