 Gaussian 09, Revision D.01,
 Gaussian 09:  ES64L-G09RevD.01 24-Apr-2013

 --------------------
 #p B2PLYPD3/Def2QZVP
 --------------------

 ----------
 butane_opt
 ----------
 Symbolic Z-matrix:
 Charge =  0 Multiplicity = 1

                         Standard orientation:
 ---------------------------------------------------------------------
 Center     Atomic      Atomic             Coordinates (Angstroms)
 Number     Number       Type             X           Y           Z
 ---------------------------------------------------------------------
      1          6           0       -1.934616    0.044969   -0.152781
      2          6           0       -0.604030   -0.433908    0.267978
      3          1           0       -2.879791   -0.864903   -0.298300
      4          1           0       -1.741914    0.792982   -1.236348
      5          1           0       -2.442103    0.553062    0.408861
      6          6           0        0.536556    0.648027    0.178630
      7          1           0       -0.218686   -1.165291   -0.409934
      8          1           0       -0.552581   -0.985491    1.244595
      9          6           0        1.982655   -0.243114   -0.217088
     10          1           0        0.737815    1.534987    1.007814
     11          1           0        0.111108    1.051346   -0.582572
     12          1           0        2.645522   -0.582161    0.703108
     13          1           0        2.662918    0.299408   -0.485206
     14          1           0        1.794321   -0.729776   -0.812451
 ---------------------------------------------------------------------

 SCF Done:  E(RB2PLYPD3) =  -157.840106907     A.U. after   11 cycles
 E2(B2PLYPD3) =    -0.2497764505D+00 E(B2PLYPD3) =    -0.15808988335711D+03

 The electronic state is 1-A.
 Alpha  occ. eigenvalues --  -10.62597 -10.62084 -10.61137 -10.56956  -0.91374
 Alpha  occ. eigenvalues --   -0.85050  -0.76350  -0.68053  -0.55994  -0.53184
 Alpha  occ. eigenvalues --   -0.47868  -0.45487  -0.44229  -0.40011  -0.38646
 Alpha  occ. eigenvalues --   -0.37058  -0.35383
 Alpha virt. eigenvalues --    0.05106   0.06406   0.08239   0.08526   0.10352
 Alpha virt. eigenvalues --    0.11433   0.13089   0.13321   0.14906   0.15358
 Alpha virt. eigenvalues --    0.16397   0.16472   0.18677   0.19416   0.20812

 Mulliken charges:
               1
     1  C   -0.185335
     2  C    0.008568
     3  H    0.021224
     4  H    0.009861
     5  H    0.092420
     6  C   -0.128141
     7  H    0.046426
     8  H    0.025118
     9  C   -0.337304
    10  H    0.028586
    11  H    0.087299
    12  H    0.040193
    13  H    0.064884
    14  H    0.226203
 Sum of Mulliken charges =   0.00000

 Dipole moment (field-independent basis, Debye):
    X=              0.2482    Y=              0.1159    Z=              0.0136  Tot=              0.2743
 Quadrupole moment (field-independent basis, Debye-Ang):
   XX=            -27.7310   YY=            -29.2428   ZZ=            -28.9526
   XY=             -0.1697   XZ=             -0.9820   YZ=              0.3152

 Normal termination of Gaussian 09 at Wed Aug 26 22:41:32 2020.
