 Gaussian 09, Revision D.01,
 Gaussian 09:  ES64L-G09RevD.01 24-Apr-2013

 --------------------
 #p B2PLYPD3/Def2QZVP
 --------------------

 ----------
 butane_opt
 ----------
 Symbolic Z-matrix:
 Charge =  0 Multiplicity = 1

                         Standard orientation:
 ---------------------------------------------------------------------
 Center     Atomic      Atomic             Coordinates (Angstroms)
 Number     Number       Type             X           Y           Z
 ---------------------------------------------------------------------
      1          6           0       -1.888235    0.083181   -0.178818
      2          6           0       -0.548126   -0.416874    0.136528
      3          1           0       -2.681883   -0.632842   -0.025952
      4          1           0       -1.839151    0.888547   -1.169452
      5          1           0       -2.177802    0.591259    0.580144
      6          6           0        0.497827    0.481045    0.281515
      7          1           0       -0.326349   -1.064960   -0.890703
      8          1           0       -0.708046   -1.355332    1.039924
      9          6           0        1.926365   -0.175229   -0.151078
     10          1           0        0.424598    1.274144    1.183699
     11          1           0        0.339578    1.139464   -0.496450
     12          1           0        2.343138   -0.788518    0.680275
     13          1           0        2.921930    0.691495   -0.497097
     14          1           0        1.776999   -0.575991   -0.933269
 ---------------------------------------------------------------------

 SCF Done:  E(RB2PLYPD3) =  -157.946012656     A.U. after   11 cycles
 E2(B2PLYPD3) =    -0.2511506575D+00 E(B2PLYPD3) =    -0.15819716331391D+03

 The electronic state is 1-A.
 Alpha  occ. eigenvalues --  -10.63314 -10.61678 -10.61447 -10.60064  -0.93978
 Alpha  occ. eigenvalues --   -0.84142  -0.75377  -0.65033  -0.54663  -0.50431
 Alpha  occ. eigenvalues --   -0.49845  -0.48274  -0.42239  -0.40548  -0.38685
 Alpha  occ. eigenvalues --   -0.36481  -0.34475
 Alpha virt. eigenvalues --    0.05396   0.06247   0.06951   0.07442   0.10086
 Alpha virt. eigenvalues --    0.11684   0.12459   0.13509   0.14555   0.14967
 Alpha virt. eigenvalues --    0.15395   0.16536   0.18593   0.19882   0.20509

 Mulliken charges:
               1
     1  C   -0.135284
     2  C   -0.014655
     3  H    0.049014
     4  H    0.023695
     5  H    0.055980
     6  C   -0.057084
     7  H    0.010393
     8  H   -0.006417
     9  C   -0.211937
    10  H    0.026827
    11  H    0.054870
    12  H    0.064473
    13  H    0.002545
    14  H    0.137580
 Sum of Mulliken charges =   0.00000

 Dipole moment (field-independent basis, Debye):
    X=             -0.3916    Y=              0.1197    Z=              0.0093  Tot=              0.4096
 Quadrupole moment (field-independent basis, Debye-Ang):
   XX=            -30.0126   YY=            -29.7141   ZZ=            -28.8735
   XY=             -0.1892   XZ=             -1.1262   YZ=             -0.2901

 Normal termination of Gaussian 09 at Wed Aug 26 13:34:47 2020.
