 Gaussian 09, Revision D.01,
 Gaussian 09:  ES64L-G09RevD.01 24-Apr-2013

 --------------------
 #p B2PLYPD3/Def2QZVP
 --------------------

 ----------
 butane_opt
 ----------
 Symbolic Z-matrix:
 Charge =  0 Multiplicity = 1

                         Standard orientation:
 ---------------------------------------------------------------------
 Center     Atomic      Atomic             Coordinates (Angstroms)
 Number     Number       Type             X           Y           Z
 ---------------------------------------------------------------------
      1          6           0       -1.953337    0.113761   -0.114348
      2          6           0       -0.616798   -0.502988    0.146645
      3          1           0       -2.882393   -0.842180    0.002056
      4          1           0       -1.754217    0.825415   -1.106717
      5          1           0       -2.210983    0.521253    0.605536
      6          6           0        0.564846    0.648289    0.133665
      7          1           0       -0.561123   -1.545702   -0.793456
      8          1           0       -0.701002   -0.875983    0.870307
      9          6           0        1.994317   -0.195645   -0.086749
     10          1           0        0.350475    1.498289    1.139347
     11          1           0        0.538484    1.160432   -0.666942
     12          1           0        2.809743   -1.001391    0.933296
     13          1           0        2.548241    0.328709   -0.796367
     14          1           0        1.928608   -0.449349   -0.662337
 ---------------------------------------------------------------------

 SCF Done:  E(RB2PLYPD3) =  -157.357685640     A.U. after   11 cycles
 E2(B2PLYPD3) =    -0.2541201068D+00 E(B2PLYPD3) =    -0.15761180574644D+03

 The electronic state is 1-A.
 Alpha  occ. eigenvalues --  -10.64848 -10.61124 -10.61069 -10.60817  -0.94322
 Alpha  occ. eigenvalues --   -0.89947  -0.76895  -0.70870  -0.54745  -0.49330
 Alpha  occ. eigenvalues --   -0.47021  -0.45518  -0.41240  -0.40948  -0.38605
 Alpha  occ. eigenvalues --   -0.36521  -0.34438
 Alpha virt. eigenvalues --    0.04086   0.04450   0.06237   0.07581   0.09939
 Alpha virt. eigenvalues --    0.10396   0.11784   0.12171   0.14573   0.15011
 Alpha virt. eigenvalues --    0.16109   0.16943   0.17597   0.18243   0.20463

 Mulliken charges:
               1
     1  C   -0.211528
     2  C   -0.191352
     3  H    0.012507
     4  H    0.046268
     5  H    0.131475
     6  C   -0.078342
     7  H   -0.005375
     8  H    0.199808
     9  C   -0.744603
    10  H    0.028305
    11  H    0.104161
    12  H    0.058242
    13  H    0.024191
    14  H    0.626243
 Sum of Mulliken charges =   0.00000

 Dipole moment (field-independent basis, Debye):
    X=             -0.0143    Y=              0.3202    Z=             -0.0899  Tot=              0.3329
 Quadrupole moment (field-independent basis, Debye-Ang):
   XX=            -31.3089   YY=            -29.4635   ZZ=            -27.4600
   XY=             -0.5441   XZ=             -2.7706   YZ=             -0.9734

 Normal termination of Gaussian 09 at Wed Aug 26 10:50:18 2020.
