 Gaussian 09, Revision D.01,
 Gaussian 09:  ES64L-G09RevD.01 24-Apr-2013

 --------------------
 #p B2PLYPD3/Def2QZVP
 --------------------

 ----------
 butane_opt
 ----------
 Symbolic Z-matrix:
 Charge =  0 Multiplicity = 1

                         Standard orientation:
 ---------------------------------------------------------------------
 Center     Atomic      Atomic             Coordinates (Angstroms)
 Number     Number       Type             X           Y           Z
 ---------------------------------------------------------------------
      1          6           0       -1.874339    0.077744   -0.108779
      2          6           0       -0.611942   -0.481699    0.078851
      3          1           0       -2.771862   -0.688705   -0.133928
      4          1           0       -1.906593    0.603566   -1.008991
      5          1           0       -2.027658    0.759602    0.769929
      6          6           0        0.532766    0.568341    0.122169
      7          1           0       -0.238128   -0.945884   -0.728027
      8          1           0       -0.627669   -0.996846    0.988059
      9          6           0        1.913311   -0.195569   -0.164926
     10          1           0        0.403438    1.488658    1.191724
     11          1           0        0.254519    0.788997   -0.484067
     12          1           0        2.493812   -1.324071    1.015041
     13          1           0        2.928558    0.916718   -0.479401
     14          1           0        1.732809   -0.414937   -0.694230
 ---------------------------------------------------------------------

 SCF Done:  E(RB2PLYPD3) =  -157.186795516     A.U. after   13 cycles
 E2(B2PLYPD3) =    -0.2561137644D+00 E(B2PLYPD3) =    -0.15744290928039D+03

 The electronic state is 1-A.
 Alpha  occ. eigenvalues --  -10.66869 -10.61079 -10.60249 -10.58996  -0.98405
 Alpha  occ. eigenvalues --   -0.88990  -0.79213  -0.68962  -0.57823  -0.52418
 Alpha  occ. eigenvalues --   -0.48156  -0.46992  -0.42499  -0.40236  -0.38547
 Alpha  occ. eigenvalues --   -0.37592  -0.33272
 Alpha virt. eigenvalues --    0.00422   0.05546   0.05982   0.07264   0.09337
 Alpha virt. eigenvalues --    0.09795   0.12074   0.12578   0.13916   0.14550
 Alpha virt. eigenvalues --    0.15800   0.16641   0.18248   0.19063   0.19803

 Mulliken charges:
               1
     1  C   -0.143912
     2  C   -0.066718
     3  H    0.040506
     4  H    0.042060
     5  H    0.054139
     6  C   -0.573144
     7  H    0.055946
     8  H    0.058355
     9  C   -0.836971
    10  H    0.019377
    11  H    0.575022
    12  H    0.031516
    13  H    0.035520
    14  H    0.708304
 Sum of Mulliken charges =   0.00000

 Dipole moment (field-independent basis, Debye):
    X=             -0.7684    Y=             -0.1727    Z=             -0.5268  Tot=              0.9475
 Quadrupole moment (field-independent basis, Debye-Ang):
   XX=            -31.7065   YY=            -29.7431   ZZ=            -27.9390
   XY=              0.1720   XZ=             -0.3171   YZ=             -0.3387

 Normal termination of Gaussian 09 at Wed Aug 26 14:39:56 2020.
