 Gaussian 09, Revision D.01,
 Gaussian 09:  ES64L-G09RevD.01 24-Apr-2013

 --------------------
 #p B2PLYPD3/Def2QZVP
 --------------------

 ----------
 butane_opt
 ----------
 Symbolic Z-matrix:
 Charge =  0 Multiplicity = 1

                         Standard orientation:
 ---------------------------------------------------------------------
 Center     Atomic      Atomic             Coordinates (Angstroms)
 Number     Number       Type             X           Y           Z
 ---------------------------------------------------------------------
      1          6           0       -1.838676   -0.087648    0.020292
      2          6           0       -0.616057    0.316242    0.093623
      3          1           0       -2.905929    0.922981   -0.514879
      4          1           0       -2.168922   -1.010053    0.951527
      5          1           0       -1.669471   -0.310656   -0.652932
      6          6           0        0.507869   -0.541951   -0.023794
      7          1           0       -0.508512    1.015754    0.892275
      8          1           0       -0.503203    1.331836   -0.942144
      9          6           0        1.944703    0.203567   -0.022677
     10          1           0        0.453554   -1.298417   -1.134327
     11          1           0        0.576965   -1.039112    0.709834
     12          1           0        2.068241    0.577179   -0.674132
     13          1           0        2.667503   -0.462410   -0.089431
     14          1           0        2.002737    0.931633    1.049546
 ---------------------------------------------------------------------

 SCF Done:  E(RB2PLYPD3) =  -157.495803982     A.U. after   12 cycles
 E2(B2PLYPD3) =    -0.2540642459D+00 E(B2PLYPD3) =    -0.15774986822781D+03

 The electronic state is 1-A.
 Alpha  occ. eigenvalues --  -10.62434 -10.61997 -10.61059 -10.58529  -1.00359
 Alpha  occ. eigenvalues --   -0.89457  -0.79389  -0.67419  -0.57770  -0.51584
 Alpha  occ. eigenvalues --   -0.49563  -0.47863  -0.46099  -0.42909  -0.37811
 Alpha  occ. eigenvalues --   -0.34879  -0.31977
 Alpha virt. eigenvalues --    0.01916   0.05186   0.06262   0.06636   0.09439
 Alpha virt. eigenvalues --    0.11100   0.12340   0.12631   0.14185   0.14656
 Alpha virt. eigenvalues --    0.15722   0.16381   0.18439   0.19610   0.21518

 Mulliken charges:
               1
     1  C   -0.512083
     2  C    0.036468
     3  H    0.015905
     4  H    0.047730
     5  H    0.405485
     6  C   -0.095342
     7  H    0.034098
     8  H   -0.050334
     9  C   -0.361028
    10  H   -0.006088
    11  H    0.128864
    12  H    0.270581
    13  H    0.048439
    14  H    0.037305
 Sum of Mulliken charges =   0.00000

 Dipole moment (field-independent basis, Debye):
    X=              0.8363    Y=             -0.5144    Z=              0.1681  Tot=              0.9961
 Quadrupole moment (field-independent basis, Debye-Ang):
   XX=            -30.8173   YY=            -30.0069   ZZ=            -28.2437
   XY=             -0.0841   XZ=             -0.4543   YZ=             -0.3092

 Normal termination of Gaussian 09 at Wed Aug 26 16:21:06 2020.
