 Gaussian 09, Revision D.01,
 Gaussian 09:  ES64L-G09RevD.01 24-Apr-2013

 --------------------
 #p B2PLYPD3/Def2QZVP
 --------------------

 ----------
 butane_opt
 ----------
 Symbolic Z-matrix:
 Charge =  0 Multiplicity = 1

                         Standard orientation:
 ---------------------------------------------------------------------
 Center     Atomic      Atomic             Coordinates (Angstroms)
 Number     Number       Type             X           Y           Z
 ---------------------------------------------------------------------
      1          6           0       -1.917660    0.061967   -0.185752
      2          6           0       -0.573098   -0.450191    0.160442
      3          1           0       -2.869714   -0.830994   -0.389468
      4          1           0       -1.879553    0.803103   -1.074727
      5          1           0       -2.360723    0.683026    0.662993
      6          6           0        0.579237    0.634364    0.209276
      7          1           0       -0.455758   -0.810898   -0.598526
      8          1           0       -0.610715   -1.554242    1.519656
      9          6           0        1.942925   -0.143090   -0.147881
     10          1           0        0.519471    1.555452    1.193024
     11          1           0        0.231445    0.890992   -0.463543
     12          1           0        2.661988   -0.763825    0.860499
     13          1           0        2.617051    0.338244   -0.815222
     14          1           0        1.958077   -0.929158   -1.111191
 ---------------------------------------------------------------------

 SCF Done:  E(RB2PLYPD3) =  -157.705867552     A.U. after   12 cycles
 E2(B2PLYPD3) =    -0.2573115957D+00 E(B2PLYPD3) =    -0.15796317914757D+03

 The electronic state is 1-A.
 Alpha  occ. eigenvalues --  -10.65345 -10.64204 -10.63879 -10.63318  -0.95595
 Alpha  occ. eigenvalues --   -0.83339  -0.74017  -0.68547  -0.53717  -0.50306
 Alpha  occ. eigenvalues --   -0.46752  -0.45576  -0.41177  -0.40691  -0.38653
 Alpha  occ. eigenvalues --   -0.36548  -0.32095
 Alpha virt. eigenvalues --    0.02228   0.04900   0.05339   0.06919   0.10158
 Alpha virt. eigenvalues --    0.10622   0.11295   0.11585   0.13542   0.14772
 Alpha virt. eigenvalues --    0.15470   0.16520   0.17648   0.18794   0.20155

 Mulliken charges:
               1
     1  C   -0.157073
     2  C   -0.240540
     3  H    0.049779
     4  H    0.044658
     5  H    0.045676
     6  C   -0.363881
     7  H    0.275462
     8  H   -0.051728
     9  C   -0.135937
    10  H    0.055774
    11  H    0.355948
    12  H    0.048957
    13  H    0.056631
    14  H    0.016276
 Sum of Mulliken charges =   0.00000

 Dipole moment (field-independent basis, Debye):
    X=              0.0169    Y=              0.8834    Z=             -1.2039  Tot=              1.4933
 Quadrupole moment (field-independent basis, Debye-Ang):
   XX=            -29.6240   YY=            -31.1361   ZZ=            -29.0227
   XY=             -0.6914   XZ=             -0.3565   YZ=              0.9706

 Normal termination of Gaussian 09 at Wed Aug 26 22:19:42 2020.
