 Gaussian 09, Revision D.01,
 Gaussian 09:  ES64L-G09RevD.01 24-Apr-2013

 --------------------
 #p B2PLYPD3/Def2QZVP
 --------------------

 ----------
 butane_opt
 ----------
 Symbolic Z-matrix:
 Charge =  0 Multiplicity = 1

                         Standard orientation:
 ---------------------------------------------------------------------
 Center     Atomic      Atomic             Coordinates (Angstroms)
 Number     Number       Type             X           Y           Z
 ---------------------------------------------------------------------
      1          6           0       -1.920002   -0.136940   -0.160167
      2          6           0       -0.481386    0.524755    0.275809
      3          1           0       -2.560857    0.643792   -0.893114
      4          1           0       -2.707370   -0.997473    0.804873
      5          1           0       -1.599103   -0.594010   -1.039302
      6          6           0        0.617309   -0.460261    0.101121
      7          1           0       -0.556243    1.529643    1.288399
      8          1           0       -0.260746    1.052540   -0.427080
      9          6           0        1.810740    0.089133   -0.104207
     10          1           0        0.366652   -0.915776   -0.719527
     11          1           0        0.506801   -1.416892    1.090795
     12          1           0        2.050889    0.903248   -1.033349
     13          1           0        2.567344   -0.711142   -0.260918
     14          1           0        2.032667    0.405948    0.513886
 ---------------------------------------------------------------------

 SCF Done:  E(RB2PLYPD3) =  -157.680297740     A.U. after   11 cycles
 E2(B2PLYPD3) =    -0.2540555409D+00 E(B2PLYPD3) =    -0.15793435328047D+03

 The electronic state is 1-A.
 Alpha  occ. eigenvalues --  -10.65605 -10.62645 -10.61049 -10.57081  -0.97325
 Alpha  occ. eigenvalues --   -0.85726  -0.74166  -0.68681  -0.55831  -0.51359
 Alpha  occ. eigenvalues --   -0.49858  -0.45812  -0.41457  -0.40148  -0.38109
 Alpha  occ. eigenvalues --   -0.36896  -0.34462
 Alpha virt. eigenvalues --    0.03744   0.05912   0.06055   0.06841   0.08946
 Alpha virt. eigenvalues --    0.10936   0.11676   0.13180   0.14514   0.15181
 Alpha virt. eigenvalues --    0.16080   0.16675   0.18128   0.19399   0.19708

 Mulliken charges:
               1
     1  C   -0.203071
     2  C   -0.146193
     3  H    0.032273
     4  H    0.052035
     5  H    0.079399
     6  C   -0.023574
     7  H    0.008133
     8  H    0.152181
     9  C   -0.442687
    10  H    0.084609
    11  H   -0.008835
    12  H    0.025988
    13  H    0.053605
    14  H    0.336137
 Sum of Mulliken charges =   0.00000

 Dipole moment (field-independent basis, Debye):
    X=              0.6441    Y=              0.0505    Z=             -0.8292  Tot=              1.0512
 Quadrupole moment (field-independent basis, Debye-Ang):
   XX=            -30.4390   YY=            -29.7826   ZZ=            -28.5846
   XY=              0.4833   XZ=              0.4595   YZ=             -0.5526

 Normal termination of Gaussian 09 at Wed Aug 26 20:25:45 2020.
