 Gaussian 09, Revision D.01,
 Gaussian 09:  ES64L-G09RevD.01 24-Apr-2013

 --------------------
 #p B2PLYPD3/Def2QZVP
 --------------------

 ----------
 butane_opt
 ----------
 Symbolic Z-matrix:
 Charge =  0 Multiplicity = 1

                         Standard orientation:
 ---------------------------------------------------------------------
 Center     Atomic      Atomic             Coordinates (Angstroms)
 Number     Number       Type             X           Y           Z
 ---------------------------------------------------------------------
      1          6           0        1.978832   -0.070603   -0.211381
      2          6           0        0.633432    0.374764    0.273378
      3          1           0        2.839891    1.028076   -0.604222
      4          1           0        1.638142   -0.295777   -1.013221
      5          1           0        2.479546   -1.152573    0.803184
      6          6           0       -0.593707   -0.596120    0.058135
      7          1           0        0.268121    1.109040   -0.430523
      8          1           0        0.935392    1.196318    1.500321
      9          6           0       -1.998571    0.165823   -0.071614
     10          1           0       -0.574881   -1.278984    0.763674
     11          1           0       -0.297068   -1.135098   -0.857648
     12          1           0       -2.397853    0.565109    0.787968
     13          1           0       -2.719061   -0.514859   -0.340247
     14          1           0       -2.292146    1.235569   -0.900391
 ---------------------------------------------------------------------

 SCF Done:  E(RB2PLYPD3) =  -157.829874879     A.U. after   11 cycles
 E2(B2PLYPD3) =    -0.2560469764D+00 E(B2PLYPD3) =    -0.15808592185548D+03

 The electronic state is 1-A.
 Alpha  occ. eigenvalues --  -10.65481 -10.64627 -10.62946 -10.62835  -0.92182
 Alpha  occ. eigenvalues --   -0.84231  -0.74420  -0.65407  -0.53887  -0.49852
 Alpha  occ. eigenvalues --   -0.47701  -0.45414  -0.42842  -0.40296  -0.38568
 Alpha  occ. eigenvalues --   -0.34526  -0.34072
 Alpha virt. eigenvalues --    0.02069   0.05203   0.06111   0.07086   0.08694
 Alpha virt. eigenvalues --    0.10125   0.11336   0.12626   0.12898   0.14434
 Alpha virt. eigenvalues --    0.15566   0.16086   0.18356   0.19328   0.19944

 Mulliken charges:
               1
     1  C   -0.234773
     2  C   -0.063929
     3  H    0.034334
     4  H    0.143096
     5  H    0.026518
     6  C   -0.042793
     7  H    0.062469
     8  H   -0.014464
     9  C   -0.140182
    10  H    0.071356
    11  H    0.036029
    12  H    0.061038
    13  H    0.053951
    14  H    0.007350
 Sum of Mulliken charges =   0.00000

 Dipole moment (field-independent basis, Debye):
    X=             -0.9302    Y=             -0.4932    Z=             -0.5298  Tot=              1.1787
 Quadrupole moment (field-independent basis, Debye-Ang):
   XX=            -30.9699   YY=            -29.6811   ZZ=            -29.9624
   XY=              0.6431   XZ=             -0.8143   YZ=             -1.1239

 Normal termination of Gaussian 09 at Wed Aug 26 11:21:07 2020.
