 Gaussian 09, Revision D.01,
 Gaussian 09:  ES64L-G09RevD.01 24-Apr-2013

 --------------------
 #p B2PLYPD3/Def2QZVP
 --------------------

 ----------
 butane_opt
 ----------
 Symbolic Z-matrix:
 Charge =  0 Multiplicity = 1

                         Standard orientation:
 ---------------------------------------------------------------------
 Center     Atomic      Atomic             Coordinates (Angstroms)
 Number     Number       Type             X           Y           Z
 ---------------------------------------------------------------------
      1          6           0        1.984306   -0.081454   -0.150798
      2          6           0        0.638730    0.477166    0.102780
      3          1           0        2.810097    0.578635   -0.411274
      4          1           0        1.963410   -1.052437   -1.097910
      5          1           0        2.088975   -0.572273    0.613392
      6          6           0       -0.573858   -0.513616    0.291245
      7          1           0        0.547872    0.918996   -0.553408
      8          1           0        0.722172    1.546805    1.122242
      9          6           0       -2.062094    0.121445   -0.195947
     10          1           0       -0.335304   -1.410087    1.478004
     11          1           0       -0.198674   -0.913065   -0.320110
     12          1           0       -2.892931    0.926577    0.856415
     13          1           0       -2.916664   -0.697643   -0.861973
     14          1           0       -1.711454    0.653244   -1.109059
 ---------------------------------------------------------------------

 SCF Done:  E(RB2PLYPD3) =  -157.632213039     A.U. after   11 cycles
 E2(B2PLYPD3) =    -0.2573762554D+00 E(B2PLYPD3) =    -0.15788958929477D+03

 The electronic state is 1-A.
 Alpha  occ. eigenvalues --  -10.69493 -10.64431 -10.61894 -10.61207  -0.95027
 Alpha  occ. eigenvalues --   -0.83607  -0.73440  -0.70879  -0.54075  -0.50211
 Alpha  occ. eigenvalues --   -0.46229  -0.44185  -0.42568  -0.40535  -0.38139
 Alpha  occ. eigenvalues --   -0.36622  -0.33485
 Alpha virt. eigenvalues --    0.02426   0.04422   0.05575   0.06728   0.08218
 Alpha virt. eigenvalues --    0.10154   0.11398   0.12824   0.13635   0.14539
 Alpha virt. eigenvalues --    0.15566   0.16671   0.17383   0.18288   0.19300

 Mulliken charges:
               1
     1  C   -0.185880
     2  C   -0.285714
     3  H    0.075208
     4  H   -0.008083
     5  H    0.127511
     6  C   -0.301677
     7  H    0.277103
     8  H   -0.032862
     9  C   -0.182457
    10  H    0.010729
    11  H    0.325928
    12  H    0.055719
    13  H    0.044710
    14  H    0.079766
 Sum of Mulliken charges =   0.00000

 Dipole moment (field-independent basis, Debye):
    X=              0.3649    Y=              0.0106    Z=             -0.9621  Tot=              1.0290
 Quadrupole moment (field-independent basis, Debye-Ang):
   XX=            -29.2672   YY=            -31.0340   ZZ=            -29.4530
   XY=              0.0041   XZ=              0.4568   YZ=             -0.4515

 Normal termination of Gaussian 09 at Wed Aug 26 10:31:28 2020.
