 Gaussian 09, Revision D.01,
 Gaussian 09:  ES64L-G09RevD.01 24-Apr-2013

 --------------------
 #p B2PLYPD3/Def2QZVP
 --------------------

 ----------
 butane_opt
 ----------
 Symbolic Z-matrix:
 Charge =  0 Multiplicity = 1

                         Standard orientation:
 ---------------------------------------------------------------------
 Center     Atomic      Atomic             Coordinates (Angstroms)
 Number     Number       Type             X           Y           Z
 ---------------------------------------------------------------------
      1          6           0       -2.011934   -0.151956   -0.185366
      2          6           0       -0.513910    0.566844    0.195918
      3          1           0       -2.597644    0.555542   -0.150841
      4          1           0       -2.435920   -0.638060    0.585159
      5          1           0       -1.936684   -0.978332   -1.131530
      6          6           0        0.618508   -0.559966    0.280188
      7          1           0       -0.726130    1.356841    0.999082
      8          1           0       -0.343276    1.436588   -0.818413
      9          6           0        1.948543    0.095753   -0.253341
     10          1           0        0.474001   -0.965323   -0.325407
     11          1           0        0.675377   -1.379910    1.384847
     12          1           0        1.522036    0.391610   -0.898647
     13          1           0        2.670569   -0.585141   -0.726533
     14          1           0        2.450430    1.102140    0.857882
 ---------------------------------------------------------------------

 SCF Done:  E(RB2PLYPD3) =  -157.661636817     A.U. after   11 cycles
 E2(B2PLYPD3) =    -0.2534819942D+00 E(B2PLYPD3) =    -0.15791511881105D+03

 The electronic state is 1-A.
 Alpha  occ. eigenvalues --  -10.65919 -10.61795 -10.61612 -10.60005  -0.93686
 Alpha  occ. eigenvalues --   -0.84075  -0.75441  -0.68719  -0.52225  -0.50768
 Alpha  occ. eigenvalues --   -0.49635  -0.45739  -0.42336  -0.40260  -0.36975
 Alpha  occ. eigenvalues --   -0.36373  -0.35642
 Alpha virt. eigenvalues --    0.03620   0.05577   0.06397   0.08271   0.09457
 Alpha virt. eigenvalues --    0.10847   0.11722   0.13310   0.13779   0.14858
 Alpha virt. eigenvalues --    0.16372   0.16662   0.17866   0.19047   0.20233

 Mulliken charges:
               1
     1  C   -0.156028
     2  C   -0.035853
     3  H    0.077038
     4  H    0.040544
     5  H    0.036108
     6  C   -0.492779
     7  H    0.038353
     8  H   -0.006610
     9  C   -0.318496
    10  H    0.456445
    11  H    0.033767
    12  H    0.255746
    13  H    0.057192
    14  H    0.014574
 Sum of Mulliken charges =   0.00000

 Dipole moment (field-independent basis, Debye):
    X=             -0.6127    Y=             -0.3349    Z=             -0.3049  Tot=              0.7620
 Quadrupole moment (field-independent basis, Debye-Ang):
   XX=            -30.4497   YY=            -28.9862   ZZ=            -28.6712
   XY=             -1.5661   XZ=             -1.6965   YZ=              1.1356

 Normal termination of Gaussian 09 at Wed Aug 26 13:22:26 2020.
