 Gaussian 09, Revision D.01,
 Gaussian 09:  ES64L-G09RevD.01 24-Apr-2013

 --------------------
 #p B2PLYPD3/Def2QZVP
 --------------------

 ----------
 butane_opt
 ----------
 Symbolic Z-matrix:
 Charge =  0 Multiplicity = 1

                         Standard orientation:
 ---------------------------------------------------------------------
 Center     Atomic      Atomic             Coordinates (Angstroms)
 Number     Number       Type             X           Y           Z
 ---------------------------------------------------------------------
      1          6           0        1.959413   -0.192856   -0.033269
      2          6           0        0.550510    0.508715    0.058314
      3          1           0        2.706435    0.705831   -0.475308
      4          1           0        1.728428   -1.031200   -0.963250
      5          1           0        2.196692   -0.620938    0.679165
      6          6           0       -0.625667   -0.367530    0.199367
      7          1           0        0.290820    0.894643   -0.840475
      8          1           0        0.578412    1.417855    0.839587
      9          6           0       -1.848394    0.095695   -0.127165
     10          1           0       -0.483389   -1.173007    1.237069
     11          1           0       -0.474988   -0.862346   -0.388014
     12          1           0       -2.426184    0.836911    0.678470
     13          1           0       -2.663090   -0.761698   -0.564115
     14          1           0       -1.668305    0.329809   -0.786610
 ---------------------------------------------------------------------

 SCF Done:  E(RB2PLYPD3) =  -157.643305717     A.U. after   11 cycles
 E2(B2PLYPD3) =    -0.2491605287D+00 E(B2PLYPD3) =    -0.15789246624564D+03

 The electronic state is 1-A.
 Alpha  occ. eigenvalues --  -10.62056 -10.61195 -10.58640 -10.57805  -0.99674
 Alpha  occ. eigenvalues --   -0.86604  -0.76433  -0.69476  -0.57753  -0.52560
 Alpha  occ. eigenvalues --   -0.49908  -0.48007  -0.45235  -0.41009  -0.38858
 Alpha  occ. eigenvalues --   -0.36557  -0.35025
 Alpha virt. eigenvalues --    0.04977   0.06453   0.07877   0.08277   0.10517
 Alpha virt. eigenvalues --    0.11135   0.12214   0.13054   0.14861   0.15110
 Alpha virt. eigenvalues --    0.16375   0.16749   0.18654   0.19588   0.21557

 Mulliken charges:
               1
     1  C   -0.238440
     2  C   -0.007369
     3  H    0.056553
     4  H    0.012785
     5  H    0.141012
     6  C   -0.309983
     7  H    0.056956
     8  H    0.012323
     9  C   -0.575741
    10  H   -0.012694
    11  H    0.330096
    12  H    0.062265
    13  H    0.041352
    14  H    0.430885
 Sum of Mulliken charges =   0.00000

 Dipole moment (field-independent basis, Debye):
    X=              0.1648    Y=              0.1613    Z=             -0.6260  Tot=              0.6671
 Quadrupole moment (field-independent basis, Debye-Ang):
   XX=            -29.9870   YY=            -29.4240   ZZ=            -28.3522
   XY=              0.1235   XZ=              1.1536   YZ=              0.4556

 Normal termination of Gaussian 09 at Wed Aug 26 12:04:39 2020.
