 Gaussian 09, Revision D.01,
 Gaussian 09:  ES64L-G09RevD.01 24-Apr-2013

 --------------------
 #p B2PLYPD3/Def2QZVP
 --------------------

 ----------
 butane_opt
 ----------
 Symbolic Z-matrix:
 Charge =  0 Multiplicity = 1

                         Standard orientation:
 ---------------------------------------------------------------------
 Center     Atomic      Atomic             Coordinates (Angstroms)
 Number     Number       Type             X           Y           Z
 ---------------------------------------------------------------------
      1          6           0        1.950420    0.097342    0.013108
      2          6           0        0.548008   -0.455562    0.052869
      3          1           0        2.734534   -0.943413   -0.601660
      4          1           0        2.382967    1.150217    1.045721
      5          1           0        1.719434    0.312738   -0.535977
      6          6           0       -0.494810    0.497923   -0.030935
      7          1           0        0.339832   -0.992677    0.821169
      8          1           0        0.382280   -0.975494   -0.736794
      9          6           0       -1.927305   -0.129586    0.104432
     10          1           0       -0.500194    1.326066   -1.056782
     11          1           0       -0.632826    1.007702    0.594686
     12          1           0       -1.888946   -0.769771   -0.793773
     13          1           0       -2.684889    0.559945   -0.533105
     14          1           0       -2.310068   -0.736009    0.959671
 ---------------------------------------------------------------------

 SCF Done:  E(RB2PLYPD3) =  -157.428206135     A.U. after   12 cycles
 E2(B2PLYPD3) =    -0.2537975856D+00 E(B2PLYPD3) =    -0.15768200372081D+03

 The electronic state is 1-A.
 Alpha  occ. eigenvalues --  -10.62639 -10.61945 -10.59554 -10.57911  -0.98184
 Alpha  occ. eigenvalues --   -0.88260  -0.76101  -0.70876  -0.57554  -0.50515
 Alpha  occ. eigenvalues --   -0.49102  -0.46222  -0.43491  -0.38504  -0.38061
 Alpha  occ. eigenvalues --   -0.36743  -0.36461
 Alpha virt. eigenvalues --    0.02656   0.05415   0.07210   0.07373   0.10381
 Alpha virt. eigenvalues --    0.11080   0.11857   0.12435   0.13675   0.15588
 Alpha virt. eigenvalues --    0.15978   0.16287   0.18330   0.19435   0.20796

 Mulliken charges:
               1
     1  C   -0.852766
     2  C    0.028117
     3  H    0.034066
     4  H    0.053852
     5  H    0.682275
     6  C   -0.215316
     7  H    0.051722
     8  H    0.059819
     9  C   -0.195710
    10  H   -0.007573
    11  H    0.211097
    12  H    0.032088
    13  H    0.046808
    14  H    0.071522
 Sum of Mulliken charges =   0.00000

 Dipole moment (field-independent basis, Debye):
    X=             -0.6662    Y=             -0.1099    Z=             -0.0417  Tot=              0.6765
 Quadrupole moment (field-independent basis, Debye-Ang):
   XX=            -32.2071   YY=            -28.9678   ZZ=            -27.6273
   XY=              0.5476   XZ=             -0.3014   YZ=              0.5049

 Normal termination of Gaussian 09 at Wed Aug 26 21:30:40 2020.
