 Gaussian 09, Revision D.01,
 Gaussian 09:  ES64L-G09RevD.01 24-Apr-2013

 --------------------
 #p B2PLYPD3/Def2QZVP
 --------------------

 ----------
 butane_opt
 ----------
 Symbolic Z-matrix:
 Charge =  0 Multiplicity = 1

                         Standard orientation:
 ---------------------------------------------------------------------
 Center     Atomic      Atomic             Coordinates (Angstroms)
 Number     Number       Type             X           Y           Z
 ---------------------------------------------------------------------
      1          6           0       -1.859642   -0.091702    0.156178
      2          6           0       -0.562769    0.461844   -0.308314
      3          1           0       -2.777679    1.032359    0.584983
      4          1           0       -1.444473   -0.536598    1.202536
      5          1           0       -2.301461   -0.965609   -0.678201
      6          6           0        0.513026   -0.619778   -0.053263
      7          1           0       -0.258643    1.049587    0.278233
      8          1           0       -0.795264    1.089629   -1.334363
      9          6           0        1.933643    0.146583    0.117429
     10          1           0        0.554126   -1.261679   -0.709636
     11          1           0        0.181320   -1.131970    0.879393
     12          1           0        2.116990    0.449272   -0.579552
     13          1           0        2.481763   -0.440541   -0.207469
     14          1           0        2.097770    1.333875    1.091894
 ---------------------------------------------------------------------

 SCF Done:  E(RB2PLYPD3) =  -157.658397848     A.U. after   11 cycles
 E2(B2PLYPD3) =    -0.2545926489D+00 E(B2PLYPD3) =    -0.15791299049643D+03

 The electronic state is 1-A.
 Alpha  occ. eigenvalues --  -10.66205 -10.60677 -10.59198 -10.58743  -0.94751
 Alpha  occ. eigenvalues --   -0.88744  -0.75611  -0.67826  -0.55481  -0.48678
 Alpha  occ. eigenvalues --   -0.47579  -0.46276  -0.42537  -0.40124  -0.38225
 Alpha  occ. eigenvalues --   -0.37255  -0.33880
 Alpha virt. eigenvalues --    0.03360   0.04219   0.07156   0.07756   0.09059
 Alpha virt. eigenvalues --    0.10734   0.11210   0.13339   0.14308   0.15212
 Alpha virt. eigenvalues --    0.15599   0.16423   0.18104   0.18986   0.20360

 Mulliken charges:
               1
     1  C   -0.178740
     2  C   -0.126134
     3  H    0.001614
     4  H    0.045666
     5  H    0.057782
     6  C   -0.037509
     7  H    0.141844
     8  H    0.022843
     9  C   -0.478695
    10  H    0.067845
    11  H    0.037430
    12  H    0.290787
    13  H    0.105810
    14  H    0.049457
 Sum of Mulliken charges =   0.00000

 Dipole moment (field-independent basis, Debye):
    X=              0.8760    Y=             -0.2296    Z=             -0.6543  Tot=              1.1172
 Quadrupole moment (field-independent basis, Debye-Ang):
   XX=            -32.4079   YY=            -28.3315   ZZ=            -28.7764
   XY=              0.3398   XZ=             -0.9565   YZ=              1.3037

 Normal termination of Gaussian 09 at Wed Aug 26 13:59:46 2020.
