 Gaussian 09, Revision D.01,
 Gaussian 09:  ES64L-G09RevD.01 24-Apr-2013

 --------------------
 #p B2PLYPD3/Def2QZVP
 --------------------

 ----------
 butane_opt
 ----------
 Symbolic Z-matrix:
 Charge =  0 Multiplicity = 1

                         Standard orientation:
 ---------------------------------------------------------------------
 Center     Atomic      Atomic             Coordinates (Angstroms)
 Number     Number       Type             X           Y           Z
 ---------------------------------------------------------------------
      1          6           0       -1.977923    0.051242    0.073087
      2          6           0       -0.658539   -0.461861   -0.024064
      3          1           0       -2.816164   -0.698540    0.102527
      4          1           0       -2.200987    0.500299   -0.755650
      5          1           0       -2.003002    0.859362    1.122347
      6          6           0        0.520956    0.529928   -0.242834
      7          1           0       -0.515068   -1.109414   -0.773200
      8          1           0       -0.365610   -0.866926    0.649641
      9          6           0        2.074481   -0.100452    0.068446
     10          1           0        0.297973    1.195366    0.588919
     11          1           0        0.538731    1.211230   -1.211922
     12          1           0        1.690536   -0.599644    0.966793
     13          1           0        2.843356    0.422886    0.911959
     14          1           0        2.776386   -1.027755   -0.849215
 ---------------------------------------------------------------------

 SCF Done:  E(RB2PLYPD3) =  -157.878460835     A.U. after   11 cycles
 E2(B2PLYPD3) =    -0.2529252525D+00 E(B2PLYPD3) =    -0.15813138608752D+03

 The electronic state is 1-A.
 Alpha  occ. eigenvalues --  -10.66092 -10.63777 -10.61133 -10.56695  -0.93833
 Alpha  occ. eigenvalues --   -0.81833  -0.73860  -0.67930  -0.56056  -0.50611
 Alpha  occ. eigenvalues --   -0.48433  -0.44802  -0.41402  -0.40354  -0.39114
 Alpha  occ. eigenvalues --   -0.37295  -0.34516
 Alpha virt. eigenvalues --    0.03929   0.05417   0.08205   0.08604   0.09551
 Alpha virt. eigenvalues --    0.10525   0.11494   0.12952   0.14438   0.14813
 Alpha virt. eigenvalues --    0.15894   0.16837   0.18232   0.19394   0.19873

 Mulliken charges:
               1
     1  C   -0.121838
     2  C   -0.163559
     3  H    0.044544
     4  H    0.070468
     5  H    0.011693
     6  C   -0.029611
     7  H    0.034227
     8  H    0.157464
     9  C   -0.235328
    10  H    0.044181
    11  H    0.030925
    12  H    0.055556
    13  H    0.056465
    14  H    0.044813
 Sum of Mulliken charges =   0.00000

 Dipole moment (field-independent basis, Debye):
    X=             -0.5583    Y=             -0.3706    Z=              0.2447  Tot=              0.7134
 Quadrupole moment (field-independent basis, Debye-Ang):
   XX=            -30.4458   YY=            -30.1811   ZZ=            -28.0177
   XY=             -0.0205   XZ=              1.6469   YZ=              0.5404

 Normal termination of Gaussian 09 at Wed Aug 26 23:03:55 2020.
