 Gaussian 09, Revision D.01,
 Gaussian 09:  ES64L-G09RevD.01 24-Apr-2013

 --------------------
 #p B2PLYPD3/Def2QZVP
 --------------------

 ----------
 butane_opt
 ----------
 Symbolic Z-matrix:
 Charge =  0 Multiplicity = 1

                         Standard orientation:
 ---------------------------------------------------------------------
 Center     Atomic      Atomic             Coordinates (Angstroms)
 Number     Number       Type             X           Y           Z
 ---------------------------------------------------------------------
      1          6           0       -1.940308    0.070304    0.126527
      2          6           0       -0.598395   -0.433109   -0.176268
      3          1           0       -2.716602   -0.773765    0.122297
      4          1           0       -2.157141    0.910907   -0.818832
      5          1           0       -1.782858    0.567546    1.024861
      6          6           0        0.563742    0.516492   -0.065975
      7          1           0       -0.472821   -1.058488   -1.084538
      8          1           0       -0.386086   -1.030704    0.644142
      9          6           0        1.916878   -0.157808    0.053042
     10          1           0        0.340500    1.185593    0.902447
     11          1           0        0.561342    1.287498   -0.831383
     12          1           0        1.978628   -1.023815    1.046612
     13          1           0        2.744051    0.588260    0.159878
     14          1           0        2.239486   -0.628303   -0.789437
 ---------------------------------------------------------------------

 SCF Done:  E(RB2PLYPD3) =  -158.057990243     A.U. after   11 cycles
 E2(B2PLYPD3) =    -0.2486713594D+00 E(B2PLYPD3) =    -0.15830666160230D+03

 The electronic state is 1-A.
 Alpha  occ. eigenvalues --  -10.61884 -10.61694 -10.61672 -10.59289  -0.92476
 Alpha  occ. eigenvalues --   -0.83680  -0.72303  -0.65798  -0.54877  -0.50490
 Alpha  occ. eigenvalues --   -0.48481  -0.46453  -0.43114  -0.40622  -0.39013
 Alpha  occ. eigenvalues --   -0.37068  -0.36011
 Alpha virt. eigenvalues --    0.05420   0.06403   0.07917   0.08296   0.10796
 Alpha virt. eigenvalues --    0.11533   0.12708   0.13398   0.13935   0.15035
 Alpha virt. eigenvalues --    0.15728   0.16077   0.19623   0.19708   0.21495

 Mulliken charges:
               1
     1  C   -0.166217
     2  C   -0.044798
     3  H    0.060571
     4  H    0.011245
     5  H    0.071435
     6  C   -0.008728
     7  H    0.026548
     8  H    0.049450
     9  C   -0.136752
    10  H   -0.002233
    11  H    0.028817
    12  H    0.014777
    13  H    0.041920
    14  H    0.053965
 Sum of Mulliken charges =   0.00000

 Dipole moment (field-independent basis, Debye):
    X=              0.2239    Y=             -0.1341    Z=             -0.1046  Tot=              0.2812
 Quadrupole moment (field-independent basis, Debye-Ang):
   XX=            -30.1639   YY=            -29.4234   ZZ=            -28.6187
   XY=              1.1564   XZ=             -1.0469   YZ=             -0.1129

 Normal termination of Gaussian 09 at Wed Aug 26 13:51:31 2020.
