 Gaussian 09, Revision D.01,
 Gaussian 09:  ES64L-G09RevD.01 24-Apr-2013

 --------------------
 #p B2PLYPD3/Def2QZVP
 --------------------

 ----------
 butane_opt
 ----------
 Symbolic Z-matrix:
 Charge =  0 Multiplicity = 1

                         Standard orientation:
 ---------------------------------------------------------------------
 Center     Atomic      Atomic             Coordinates (Angstroms)
 Number     Number       Type             X           Y           Z
 ---------------------------------------------------------------------
      1          6           0        2.042784   -0.190304   -0.094179
      2          6           0        0.508237    0.554554    0.078208
      3          1           0        2.792230    0.506046    0.068134
      4          1           0        2.116661   -1.164309   -0.898923
      5          1           0        2.494315   -0.394432    0.378248
      6          6           0       -0.603476   -0.369825    0.269589
      7          1           0        0.167504    1.259902   -0.937789
      8          1           0        0.463103    1.201127    0.762189
      9          6           0       -1.922264    0.046195   -0.171825
     10          1           0       -0.877370   -1.061560    1.362197
     11          1           0       -0.547671   -1.060047   -0.471472
     12          1           0       -2.219789    0.936450    0.664568
     13          1           0       -2.770323   -0.843396   -0.385269
     14          1           0       -1.770355    0.376508   -1.032644
 ---------------------------------------------------------------------

 SCF Done:  E(RB2PLYPD3) =  -157.628551895     A.U. after   11 cycles
 E2(B2PLYPD3) =    -0.2519902058D+00 E(B2PLYPD3) =    -0.15788054210060D+03

 The electronic state is 1-A.
 Alpha  occ. eigenvalues --  -10.63349 -10.60977 -10.60685 -10.59090  -0.93994
 Alpha  occ. eigenvalues --   -0.90613  -0.78959  -0.66414  -0.55515  -0.50562
 Alpha  occ. eigenvalues --   -0.49410  -0.46254  -0.43883  -0.40853  -0.36795
 Alpha  occ. eigenvalues --   -0.35753  -0.34442
 Alpha virt. eigenvalues --    0.04884   0.05825   0.06882   0.08510   0.10354
 Alpha virt. eigenvalues --    0.11379   0.12017   0.13405   0.14464   0.15171
 Alpha virt. eigenvalues --    0.15428   0.17445   0.18826   0.19835   0.20720

 Mulliken charges:
               1
     1  C   -0.554980
     2  C   -0.072277
     3  H    0.023641
     4  H    0.058545
     5  H    0.450512
     6  C   -0.040664
     7  H    0.013952
     8  H    0.088206
     9  C   -0.167663
    10  H    0.005927
    11  H    0.057712
    12  H    0.015640
    13  H    0.038200
    14  H    0.083248
 Sum of Mulliken charges =   0.00000

 Dipole moment (field-independent basis, Debye):
    X=              0.4619    Y=             -0.0136    Z=              0.1486  Tot=              0.4854
 Quadrupole moment (field-independent basis, Debye-Ang):
   XX=            -28.8067   YY=            -28.9747   ZZ=            -29.1147
   XY=              0.6505   XZ=              2.4178   YZ=              1.4265

 Normal termination of Gaussian 09 at Wed Aug 26 12:42:28 2020.
