 Gaussian 09, Revision D.01,
 Gaussian 09:  ES64L-G09RevD.01 24-Apr-2013

 --------------------
 #p B2PLYPD3/Def2QZVP
 --------------------

 ----------
 butane_opt
 ----------
 Symbolic Z-matrix:
 Charge =  0 Multiplicity = 1

                         Standard orientation:
 ---------------------------------------------------------------------
 Center     Atomic      Atomic             Coordinates (Angstroms)
 Number     Number       Type             X           Y           Z
 ---------------------------------------------------------------------
      1          6           0       -1.906563   -0.146533   -0.027149
      2          6           0       -0.456494    0.560504    0.016277
      3          1           0       -2.780883    0.700037   -0.010648
      4          1           0       -2.129263   -0.340322    0.671536
      5          1           0       -2.381168   -1.039597   -1.050544
      6          6           0        0.611786   -0.479357    0.204505
      7          1           0       -0.216392    1.166461    0.844775
      8          1           0       -0.356376    1.005248   -0.904189
      9          6           0        1.849958    0.066322   -0.135788
     10          1           0        0.369093   -1.066782   -0.495611
     11          1           0        0.355862   -1.055811    1.233945
     12          1           0        1.617465    0.455658   -0.822593
     13          1           0        2.578161   -0.557503   -0.501760
     14          1           0        2.351382    0.726999    0.688022
 ---------------------------------------------------------------------

 SCF Done:  E(RB2PLYPD3) =  -157.772218611     A.U. after   11 cycles
 E2(B2PLYPD3) =    -0.2485987347D+00 E(B2PLYPD3) =    -0.15802081734586D+03

 The electronic state is 1-A.
 Alpha  occ. eigenvalues --  -10.61082 -10.60099 -10.58366 -10.56047  -0.95991
 Alpha  occ. eigenvalues --   -0.86245  -0.77025  -0.68476  -0.57554  -0.53046
 Alpha  occ. eigenvalues --   -0.49530  -0.46471  -0.43388  -0.39937  -0.39756
 Alpha  occ. eigenvalues --   -0.38640  -0.35255
 Alpha virt. eigenvalues --    0.05137   0.06240   0.08114   0.08641   0.10419
 Alpha virt. eigenvalues --    0.10737   0.13197   0.14082   0.14352   0.15778
 Alpha virt. eigenvalues --    0.16463   0.17380   0.18947   0.19482   0.21443

 Mulliken charges:
               1
     1  C   -0.442719
     2  C   -0.041935
     3  H    0.020345
     4  H    0.307718
     5  H    0.042200
     6  C   -0.074832
     7  H    0.055077
     8  H    0.056574
     9  C   -0.284343
    10  H    0.081496
    11  H    0.011735
    12  H    0.200776
    13  H    0.032611
    14  H    0.035297
 Sum of Mulliken charges =   0.00000

 Dipole moment (field-independent basis, Debye):
    X=              0.1635    Y=              0.0459    Z=             -0.0981  Tot=              0.1961
 Quadrupole moment (field-independent basis, Debye-Ang):
   XX=            -29.2884   YY=            -29.6148   ZZ=            -27.3867
   XY=              0.3358   XZ=             -0.9180   YZ=              0.6979

 Normal termination of Gaussian 09 at Wed Aug 26 12:18:37 2020.
