 Gaussian 09, Revision D.01,
 Gaussian 09:  ES64L-G09RevD.01 24-Apr-2013

 --------------------
 #p B2PLYPD3/Def2QZVP
 --------------------

 ----------
 butane_opt
 ----------
 Symbolic Z-matrix:
 Charge =  0 Multiplicity = 1

                         Standard orientation:
 ---------------------------------------------------------------------
 Center     Atomic      Atomic             Coordinates (Angstroms)
 Number     Number       Type             X           Y           Z
 ---------------------------------------------------------------------
      1          6           0        1.939450   -0.158766   -0.077623
      2          6           0        0.517944    0.514003    0.197967
      3          1           0        2.817938    0.610085   -0.910770
      4          1           0        1.711643   -0.632583   -0.889909
      5          1           0        2.492602   -0.834553    0.877216
      6          6           0       -0.579572   -0.377882    0.141328
      7          1           0        0.375555    1.062242   -0.589804
      8          1           0        0.249961    1.293007    1.090695
      9          6           0       -1.872777    0.046830   -0.189562
     10          1           0       -0.540376   -1.069200    1.294402
     11          1           0       -0.183992   -1.169605   -0.752537
     12          1           0       -2.223055    0.760979    0.716312
     13          1           0       -2.845924   -0.801857   -0.275363
     14          1           0       -1.884624    0.636370   -0.992900
 ---------------------------------------------------------------------

 SCF Done:  E(RB2PLYPD3) =  -157.914916103     A.U. after   11 cycles
 E2(B2PLYPD3) =    -0.2541569933D+00 E(B2PLYPD3) =    -0.15816907309601D+03

 The electronic state is 1-A.
 Alpha  occ. eigenvalues --  -10.65120 -10.63752 -10.62307 -10.61421  -0.94838
 Alpha  occ. eigenvalues --   -0.84076  -0.73527  -0.64680  -0.54727  -0.51184
 Alpha  occ. eigenvalues --   -0.48541  -0.47551  -0.42042  -0.40541  -0.37890
 Alpha  occ. eigenvalues --   -0.35679  -0.33984
 Alpha virt. eigenvalues --    0.04344   0.04971   0.07086   0.07484   0.09703
 Alpha virt. eigenvalues --    0.10387   0.11327   0.12737   0.14303   0.15211
 Alpha virt. eigenvalues --    0.15998   0.16294   0.17683   0.19350   0.20218

 Mulliken charges:
               1
     1  C   -0.200557
     2  C   -0.054822
     3  H    0.010227
     4  H    0.111366
     5  H    0.065349
     6  C   -0.013080
     7  H    0.078774
     8  H    0.015920
     9  C   -0.145942
    10  H   -0.001446
    11  H   -0.001045
    12  H    0.019928
    13  H    0.049813
    14  H    0.065514
 Sum of Mulliken charges =   0.00000

 Dipole moment (field-independent basis, Debye):
    X=             -0.3823    Y=              0.1255    Z=             -0.5555  Tot=              0.6860
 Quadrupole moment (field-independent basis, Debye-Ang):
   XX=            -30.9884   YY=            -30.8626   ZZ=            -28.6349
   XY=             -1.2216   XZ=             -0.0487   YZ=             -0.4173

 Normal termination of Gaussian 09 at Wed Aug 26 09:49:55 2020.
