 Gaussian 09, Revision D.01,
 Gaussian 09:  ES64L-G09RevD.01 24-Apr-2013

 --------------------
 #p B2PLYPD3/Def2QZVP
 --------------------

 ----------
 butane_opt
 ----------
 Symbolic Z-matrix:
 Charge =  0 Multiplicity = 1

                         Standard orientation:
 ---------------------------------------------------------------------
 Center     Atomic      Atomic             Coordinates (Angstroms)
 Number     Number       Type             X           Y           Z
 ---------------------------------------------------------------------
      1          6           0        1.954977   -0.175592   -0.018564
      2          6           0        0.489349    0.565670   -0.093090
      3          1           0        2.626194    0.573203    0.176676
      4          1           0        2.309864   -0.596778   -0.815927
      5          1           0        2.183309   -0.840996    0.910403
      6          6           0       -0.589743   -0.446117    0.004823
      7          1           0        0.373216    1.031264   -0.723101
      8          1           0        0.288499    1.195854    0.761756
      9          6           0       -1.798643    0.089043    0.031479
     10          1           0       -0.421971   -1.172236    1.011713
     11          1           0       -1.015623   -0.990454   -0.763159
     12          1           0       -2.226291    0.868979    1.030959
     13          1           0       -2.720052   -0.741652   -0.311433
     14          1           0       -1.732792    0.474796   -0.825776
 ---------------------------------------------------------------------

 SCF Done:  E(RB2PLYPD3) =  -157.832376831     A.U. after   11 cycles
 E2(B2PLYPD3) =    -0.2497911661D+00 E(B2PLYPD3) =    -0.15808216799731D+03

 The electronic state is 1-A.
 Alpha  occ. eigenvalues --  -10.61594 -10.59718 -10.59184 -10.58562  -0.98385
 Alpha  occ. eigenvalues --   -0.86484  -0.76826  -0.65900  -0.57886  -0.51696
 Alpha  occ. eigenvalues --   -0.50306  -0.48890  -0.43594  -0.42642  -0.38425
 Alpha  occ. eigenvalues --   -0.35630  -0.34171
 Alpha virt. eigenvalues --    0.05083   0.06574   0.08115   0.08448   0.10695
 Alpha virt. eigenvalues --    0.11325   0.12938   0.13522   0.14604   0.15523
 Alpha virt. eigenvalues --    0.15826   0.16910   0.18971   0.20160   0.21711

 Mulliken charges:
               1
     1  C   -0.121777
     2  C   -0.280475
     3  H    0.035487
     4  H    0.055609
     5  H    0.034629
     6  C    0.003968
     7  H    0.230692
     8  H    0.050165
     9  C   -0.190651
    10  H    0.000254
    11  H    0.059318
    12  H    0.001602
    13  H    0.017026
    14  H    0.104153
 Sum of Mulliken charges =   0.00000

 Dipole moment (field-independent basis, Debye):
    X=              0.3525    Y=              0.2895    Z=             -0.6978  Tot=              0.8336
 Quadrupole moment (field-independent basis, Debye-Ang):
   XX=            -29.9443   YY=            -29.4748   ZZ=            -27.8610
   XY=              0.6257   XZ=              1.0058   YZ=              0.1908

 Normal termination of Gaussian 09 at Wed Aug 26 21:54:15 2020.
