 Gaussian 09, Revision D.01,
 Gaussian 09:  ES64L-G09RevD.01 24-Apr-2013

 --------------------
 #p B2PLYPD3/Def2QZVP
 --------------------

 ----------
 butane_opt
 ----------
 Symbolic Z-matrix:
 Charge =  0 Multiplicity = 1

                         Standard orientation:
 ---------------------------------------------------------------------
 Center     Atomic      Atomic             Coordinates (Angstroms)
 Number     Number       Type             X           Y           Z
 ---------------------------------------------------------------------
      1          6           0       -1.997022   -0.088635    0.037361
      2          6           0       -0.615548    0.541145   -0.116716
      3          1           0       -2.757376    0.598018   -0.235087
      4          1           0       -2.279343   -0.746808    1.141263
      5          1           0       -2.056266   -1.074430   -0.814703
      6          6           0        0.595769   -0.466579    0.161374
      7          1           0       -0.388332    1.050576    0.578771
      8          1           0       -0.388810    1.115645   -1.116519
      9          6           0        1.996588    0.075889    0.019399
     10          1           0        0.379577   -1.225440   -0.685968
     11          1           0        0.632989   -0.797850    1.052988
     12          1           0        1.676125    0.320516   -0.584750
     13          1           0        2.816074   -0.787836   -0.874786
     14          1           0        2.486646    1.176690    0.930282
 ---------------------------------------------------------------------

 SCF Done:  E(RB2PLYPD3) =  -157.648732561     A.U. after   12 cycles
 E2(B2PLYPD3) =    -0.2555166631D+00 E(B2PLYPD3) =    -0.15790424922464D+03

 The electronic state is 1-A.
 Alpha  occ. eigenvalues --  -10.65014 -10.62253 -10.60981 -10.60744  -0.95177
 Alpha  occ. eigenvalues --   -0.86204  -0.73476  -0.68314  -0.56133  -0.49622
 Alpha  occ. eigenvalues --   -0.47603  -0.45070  -0.41860  -0.40460  -0.38188
 Alpha  occ. eigenvalues --   -0.37472  -0.32870
 Alpha virt. eigenvalues --    0.01889   0.05003   0.06644   0.07904   0.09575
 Alpha virt. eigenvalues --    0.10392   0.11977   0.12278   0.13513   0.14571
 Alpha virt. eigenvalues --    0.15611   0.16366   0.18001   0.19347   0.19739

 Mulliken charges:
               1
     1  C   -0.157804
     2  C   -0.132297
     3  H    0.080324
     4  H    0.042772
     5  H    0.009650
     6  C   -0.037161
     7  H    0.137135
     8  H    0.031661
     9  C   -0.628186
    10  H    0.028796
    11  H    0.077780
    12  H    0.470274
    13  H    0.025145
    14  H    0.051911
 Sum of Mulliken charges =   0.00000

 Dipole moment (field-independent basis, Debye):
    X=             -0.7731    Y=              0.5289    Z=             -0.1607  Tot=              0.9504
 Quadrupole moment (field-independent basis, Debye-Ang):
   XX=            -32.4808   YY=            -29.6605   ZZ=            -28.1561
   XY=              0.2901   XZ=             -0.3446   YZ=              0.6526

 Normal termination of Gaussian 09 at Wed Aug 26 15:59:44 2020.
