 Gaussian 09, Revision D.01,
 Gaussian 09:  ES64L-G09RevD.01 24-Apr-2013

 --------------------
 #p B2PLYPD3/Def2QZVP
 --------------------

 ----------
 butane_opt
 ----------
 Symbolic Z-matrix:
 Charge =  0 Multiplicity = 1

                         Standard orientation:
 ---------------------------------------------------------------------
 Center     Atomic      Atomic             Coordinates (Angstroms)
 Number     Number       Type             X           Y           Z
 ---------------------------------------------------------------------
      1          6           0        1.944939   -0.125261   -0.105213
      2          6           0        0.491043    0.491701   -0.007032
      3          1           0        2.811420    0.815066   -0.067533
      4          1           0        1.957843   -0.728802   -0.835413
      5          1           0        2.217731   -0.931301    0.960604
      6          6           0       -0.605378   -0.449487    0.083569
      7          1           0        0.190036    0.723598   -0.588061
      8          1           0        0.587656    1.387259    1.014435
      9          6           0       -1.868635    0.128546   -0.048857
     10          1           0       -0.383367   -1.119593    0.940506
     11          1           0       -0.334585   -0.992897   -0.797137
     12          1           0       -2.081342    0.629563    0.785064
     13          1           0       -2.692893   -0.777602   -0.009792
     14          1           0       -2.044315    0.721713   -0.937465
 ---------------------------------------------------------------------

 SCF Done:  E(RB2PLYPD3) =  -157.745702209     A.U. after   11 cycles
 E2(B2PLYPD3) =    -0.2497869684D+00 E(B2PLYPD3) =    -0.15799548917780D+03

 The electronic state is 1-A.
 Alpha  occ. eigenvalues --  -10.63572 -10.59816 -10.59464 -10.58889  -0.97969
 Alpha  occ. eigenvalues --   -0.84505  -0.75688  -0.68411  -0.57119  -0.51132
 Alpha  occ. eigenvalues --   -0.49704  -0.48003  -0.42966  -0.40967  -0.39969
 Alpha  occ. eigenvalues --   -0.35673  -0.35137
 Alpha virt. eigenvalues --    0.04963   0.06301   0.07597   0.08825   0.10447
 Alpha virt. eigenvalues --    0.10756   0.12593   0.13583   0.14232   0.15264
 Alpha virt. eigenvalues --    0.15449   0.15826   0.19311   0.20028   0.22037

 Mulliken charges:
               1
     1  C   -0.163681
     2  C   -0.566726
     3  H    0.058955
     4  H    0.095224
     5  H    0.011145
     6  C   -0.020638
     7  H    0.519446
     8  H   -0.004525
     9  C   -0.147363
    10  H    0.042289
    11  H    0.035333
    12  H    0.064226
    13  H    0.024861
    14  H    0.051453
 Sum of Mulliken charges =   0.00000

 Dipole moment (field-independent basis, Debye):
    X=             -0.3014    Y=             -0.1307    Z=             -0.4986  Tot=              0.5971
 Quadrupole moment (field-independent basis, Debye-Ang):
   XX=            -30.0561   YY=            -29.6207   ZZ=            -28.2925
   XY=             -0.1547   XZ=             -0.2383   YZ=             -0.1170

 Normal termination of Gaussian 09 at Wed Aug 26 21:33:06 2020.
