 Gaussian 09, Revision D.01,
 Gaussian 09:  ES64L-G09RevD.01 24-Apr-2013

 --------------------
 #p B2PLYPD3/Def2QZVP
 --------------------

 ----------
 butane_opt
 ----------
 Symbolic Z-matrix:
 Charge =  0 Multiplicity = 1

                         Standard orientation:
 ---------------------------------------------------------------------
 Center     Atomic      Atomic             Coordinates (Angstroms)
 Number     Number       Type             X           Y           Z
 ---------------------------------------------------------------------
      1          6           0       -1.945297    0.128826    0.084443
      2          6           0       -0.577939   -0.567565   -0.056219
      3          1           0       -2.716056   -0.550009   -0.390950
      4          1           0       -1.975897    0.456604   -0.684075
      5          1           0       -2.310029    1.088165    1.132561
      6          6           0        0.601250    0.535810   -0.071626
      7          1           0       -0.425861   -1.250023   -0.881419
      8          1           0       -0.560599   -1.169189    0.784637
      9          6           0        1.980030   -0.097251    0.081449
     10          1           0        0.324788    0.954521    0.629516
     11          1           0        0.490849    1.352522   -1.077951
     12          1           0        2.156606   -0.812725    0.995744
     13          1           0        2.726375    0.515499   -0.056660
     14          1           0        1.941552   -0.584283   -0.679679
 ---------------------------------------------------------------------

 SCF Done:  E(RB2PLYPD3) =  -157.832634687     A.U. after   11 cycles
 E2(B2PLYPD3) =    -0.2493860456D+00 E(B2PLYPD3) =    -0.15808202073278D+03

 The electronic state is 1-A.
 Alpha  occ. eigenvalues --  -10.60515 -10.60444 -10.60099 -10.57096  -0.92196
 Alpha  occ. eigenvalues --   -0.86303  -0.75986  -0.69310  -0.54493  -0.49929
 Alpha  occ. eigenvalues --   -0.48296  -0.47221  -0.41616  -0.40424  -0.40179
 Alpha  occ. eigenvalues --   -0.37655  -0.35624
 Alpha virt. eigenvalues --    0.04673   0.06259   0.07717   0.07984   0.10735
 Alpha virt. eigenvalues --    0.11654   0.12861   0.13334   0.14627   0.15336
 Alpha virt. eigenvalues --    0.16273   0.17112   0.18706   0.19339   0.21146

 Mulliken charges:
               1
     1  C   -0.344670
     2  C   -0.016498
     3  H    0.033874
     4  H    0.212640
     5  H    0.057932
     6  C   -0.186408
     7  H    0.026610
     8  H    0.047222
     9  C   -0.175717
    10  H    0.162648
    11  H    0.002855
    12  H    0.037803
    13  H    0.044356
    14  H    0.097354
 Sum of Mulliken charges =   0.00000

 Dipole moment (field-independent basis, Debye):
    X=              0.1156    Y=             -0.0466    Z=             -0.3621  Tot=              0.3830
 Quadrupole moment (field-independent basis, Debye-Ang):
   XX=            -29.4895   YY=            -28.8345   ZZ=            -27.7153
   XY=             -0.3357   XZ=              0.6323   YZ=              0.5903

 Normal termination of Gaussian 09 at Wed Aug 26 22:18:47 2020.
