 Gaussian 09, Revision D.01,
 Gaussian 09:  ES64L-G09RevD.01 24-Apr-2013

 --------------------
 #p B2PLYPD3/Def2QZVP
 --------------------

 ----------
 butane_opt
 ----------
 Symbolic Z-matrix:
 Charge =  0 Multiplicity = 1

                         Standard orientation:
 ---------------------------------------------------------------------
 Center     Atomic      Atomic             Coordinates (Angstroms)
 Number     Number       Type             X           Y           Z
 ---------------------------------------------------------------------
      1          6           0        1.882319    0.123188    0.174530
      2          6           0        0.676669   -0.455000   -0.194935
      3          1           0        2.702528   -0.845501    0.211351
      4          1           0        1.896957    0.925412    1.103978
      5          1           0        1.993554    0.504587   -0.482629
      6          6           0       -0.512884    0.560853   -0.286453
      7          1           0        0.178999   -1.120370    0.665947
      8          1           0        0.698346   -1.291756   -1.068915
      9          6           0       -1.978402   -0.179754    0.161707
     10          1           0       -0.623714    1.371181   -1.210149
     11          1           0       -0.178719    1.181444    0.597617
     12          1           0       -2.563629   -0.907740   -0.768580
     13          1           0       -2.792879    0.725775    0.656529
     14          1           0       -1.717655   -0.838756    1.165753
 ---------------------------------------------------------------------

 SCF Done:  E(RB2PLYPD3) =  -157.837171085     A.U. after   11 cycles
 E2(B2PLYPD3) =    -0.2549936309D+00 E(B2PLYPD3) =    -0.15809216471600D+03

 The electronic state is 1-A.
 Alpha  occ. eigenvalues --  -10.67175 -10.64499 -10.62653 -10.59147  -0.94273
 Alpha  occ. eigenvalues --   -0.81750  -0.70440  -0.64989  -0.53992  -0.49727
 Alpha  occ. eigenvalues --   -0.47580  -0.45164  -0.41158  -0.39513  -0.38157
 Alpha  occ. eigenvalues --   -0.36211  -0.35013
 Alpha virt. eigenvalues --    0.04804   0.05849   0.07073   0.07768   0.10275
 Alpha virt. eigenvalues --    0.10581   0.11890   0.12848   0.14246   0.14988
 Alpha virt. eigenvalues --    0.15286   0.15535   0.17966   0.19426   0.20597

 Mulliken charges:
               1
     1  C   -0.432130
     2  C    0.003426
     3  H    0.045828
     4  H    0.049319
     5  H    0.325198
     6  C   -0.056687
     7  H    0.012441
     8  H    0.022844
     9  C   -0.193810
    10  H    0.031956
    11  H    0.047998
    12  H    0.055695
    13  H    0.038453
    14  H    0.049470
 Sum of Mulliken charges =   0.00000

 Dipole moment (field-independent basis, Debye):
    X=              0.3071    Y=              0.1411    Z=             -0.0444  Tot=              0.3408
 Quadrupole moment (field-independent basis, Debye-Ang):
   XX=            -31.3677   YY=            -29.2285   ZZ=            -29.1066
   XY=              0.2101   XZ=             -0.3170   YZ=              0.5625

 Normal termination of Gaussian 09 at Wed Aug 26 12:02:29 2020.
