 Gaussian 09, Revision D.01,
 Gaussian 09:  ES64L-G09RevD.01 24-Apr-2013

 --------------------
 #p B2PLYPD3/Def2QZVP
 --------------------

 ----------
 butane_opt
 ----------
 Symbolic Z-matrix:
 Charge =  0 Multiplicity = 1

                         Standard orientation:
 ---------------------------------------------------------------------
 Center     Atomic      Atomic             Coordinates (Angstroms)
 Number     Number       Type             X           Y           Z
 ---------------------------------------------------------------------
      1          6           0        1.982798    0.110297   -0.188516
      2          6           0        0.600235   -0.454281    0.320103
      3          1           0        2.778521   -0.816092   -0.445341
      4          1           0        2.563444    0.638016    0.561669
      5          1           0        1.402178    0.353633   -0.980775
      6          6           0       -0.560741    0.658065    0.000570
      7          1           0        0.712239   -0.975822    1.250351
      8          1           0        0.588501   -1.150034   -0.398030
      9          6           0       -1.984656   -0.199495   -0.077530
     10          1           0       -0.466695    1.222112   -0.785791
     11          1           0       -0.462938    1.322674    0.780230
     12          1           0       -2.332234   -1.359477   -1.021527
     13          1           0       -2.661228    0.432921    0.104128
     14          1           0       -2.347603   -0.355443    0.607320
 ---------------------------------------------------------------------

 SCF Done:  E(RB2PLYPD3) =  -157.767748505     A.U. after   11 cycles
 E2(B2PLYPD3) =    -0.2519003998D+00 E(B2PLYPD3) =    -0.15801964890514D+03

 The electronic state is 1-A.
 Alpha  occ. eigenvalues --  -10.61715 -10.60159 -10.59977 -10.59707  -0.92384
 Alpha  occ. eigenvalues --   -0.88302  -0.77638  -0.68121  -0.56304  -0.51136
 Alpha  occ. eigenvalues --   -0.48258  -0.45312  -0.42126  -0.40667  -0.38564
 Alpha  occ. eigenvalues --   -0.35085  -0.34440
 Alpha virt. eigenvalues --    0.04047   0.05831   0.07720   0.08910   0.10584
 Alpha virt. eigenvalues --    0.10960   0.12034   0.13328   0.15141   0.15764
 Alpha virt. eigenvalues --    0.16298   0.16540   0.18322   0.18622   0.20915

 Mulliken charges:
               1
     1  C   -0.153895
     2  C   -0.105750
     3  H    0.004892
     4  H    0.054609
     5  H    0.081065
     6  C   -0.082132
     7  H    0.039574
     8  H    0.082708
     9  C   -0.406369
    10  H    0.076922
    11  H    0.038529
    12  H    0.039414
    13  H    0.064707
    14  H    0.265725
 Sum of Mulliken charges =   0.00000

 Dipole moment (field-independent basis, Debye):
    X=             -0.5237    Y=              0.2865    Z=              0.6709  Tot=              0.8980
 Quadrupole moment (field-independent basis, Debye-Ang):
   XX=            -29.4117   YY=            -28.5327   ZZ=            -28.6043
   XY=             -0.8435   XZ=             -0.2666   YZ=              0.9265

 Normal termination of Gaussian 09 at Wed Aug 26 11:42:15 2020.
