 Gaussian 09, Revision D.01,
 Gaussian 09:  ES64L-G09RevD.01 24-Apr-2013

 --------------------
 #p B2PLYPD3/Def2QZVP
 --------------------

 ----------
 butane_opt
 ----------
 Symbolic Z-matrix:
 Charge =  0 Multiplicity = 1

                         Standard orientation:
 ---------------------------------------------------------------------
 Center     Atomic      Atomic             Coordinates (Angstroms)
 Number     Number       Type             X           Y           Z
 ---------------------------------------------------------------------
      1          6           0        1.976461   -0.185829   -0.147150
      2          6           0        0.508982    0.527253    0.183595
      3          1           0        2.823400    0.502567   -0.469066
      4          1           0        1.981890   -0.329490   -0.693434
      5          1           0        2.447508   -0.959569    0.784334
      6          6           0       -0.571267   -0.416320    0.001857
      7          1           0        0.316749    0.808193   -0.365807
      8          1           0        0.296322    1.457481    1.304043
      9          6           0       -1.903614    0.087331   -0.112052
     10          1           0       -0.555741   -1.143741    0.919490
     11          1           0       -0.781532   -1.027446   -0.655743
     12          1           0       -2.015034    0.390355    0.526103
     13          1           0       -2.759224   -0.870319    0.182094
     14          1           0       -1.817708    1.097357   -1.089514
 ---------------------------------------------------------------------

 SCF Done:  E(RB2PLYPD3) =  -156.737085717     A.U. after   12 cycles
 E2(B2PLYPD3) =    -0.2542328636D+00 E(B2PLYPD3) =    -0.15699131858086D+03

 The electronic state is 1-A.
 Alpha  occ. eigenvalues --  -10.61614 -10.61342 -10.60674 -10.58329  -0.98832
 Alpha  occ. eigenvalues --   -0.90854  -0.83955  -0.72496  -0.57831  -0.52179
 Alpha  occ. eigenvalues --   -0.48899  -0.46230  -0.42934  -0.40200  -0.39262
 Alpha  occ. eigenvalues --   -0.36675  -0.34716
 Alpha virt. eigenvalues --    0.03509   0.05527   0.06828   0.07454   0.10330
 Alpha virt. eigenvalues --    0.10663   0.11765   0.12925   0.13730   0.15312
 Alpha virt. eigenvalues --    0.15518   0.16990   0.18493   0.18998   0.21537

 Mulliken charges:
               1
     1  C   -0.786353
     2  C   -0.718258
     3  H    0.065577
     4  H    0.635306
     5  H    0.077013
     6  C   -0.003683
     7  H    0.687684
     8  H    0.030275
     9  C   -0.567405
    10  H   -0.007167
    11  H    0.094473
    12  H    0.426940
    13  H    0.040456
    14  H    0.025143
 Sum of Mulliken charges =   0.00000

 Dipole moment (field-independent basis, Debye):
    X=              0.0902    Y=             -0.1064    Z=             -0.1973  Tot=              0.2416
 Quadrupole moment (field-independent basis, Debye-Ang):
   XX=            -29.4863   YY=            -29.0114   ZZ=            -27.8047
   XY=              0.2379   XZ=             -1.9385   YZ=             -0.5589

 Normal termination of Gaussian 09 at Wed Aug 26 23:24:45 2020.
