 Gaussian 09, Revision D.01,
 Gaussian 09:  ES64L-G09RevD.01 24-Apr-2013

 --------------------
 #p B2PLYPD3/Def2QZVP
 --------------------

 ----------
 butane_opt
 ----------
 Symbolic Z-matrix:
 Charge =  0 Multiplicity = 1

                         Standard orientation:
 ---------------------------------------------------------------------
 Center     Atomic      Atomic             Coordinates (Angstroms)
 Number     Number       Type             X           Y           Z
 ---------------------------------------------------------------------
      1          6           0        2.060012   -0.103921    0.035999
      2          6           0        0.533773    0.551248   -0.004110
      3          1           0        2.598839    0.396422   -0.222857
      4          1           0        2.081522   -0.505688   -0.714028
      5          1           0        2.300325   -0.806654    1.034864
      6          6           0       -0.620621   -0.525412   -0.005677
      7          1           0        0.266735    1.557420   -1.130458
      8          1           0        0.546390    0.967315    0.663939
      9          6           0       -1.937818    0.053609    0.077109
     10          1           0       -0.549100   -1.141191    0.879815
     11          1           0       -0.409078   -1.311971   -1.083278
     12          1           0       -2.324572    1.091888    1.186382
     13          1           0       -2.613284   -0.560599   -0.518201
     14          1           0       -2.109856    0.459910   -0.716103
 ---------------------------------------------------------------------

 SCF Done:  E(RB2PLYPD3) =  -157.564458358     A.U. after   11 cycles
 E2(B2PLYPD3) =    -0.2537759576D+00 E(B2PLYPD3) =    -0.15781823431574D+03

 The electronic state is 1-A.
 Alpha  occ. eigenvalues --  -10.63746 -10.62132 -10.61290 -10.56233  -0.92946
 Alpha  occ. eigenvalues --   -0.88858  -0.79591  -0.69571  -0.53989  -0.50834
 Alpha  occ. eigenvalues --   -0.48027  -0.46337  -0.43499  -0.40546  -0.36614
 Alpha  occ. eigenvalues --   -0.35920  -0.34411
 Alpha virt. eigenvalues --    0.02887   0.04544   0.06205   0.07209   0.09836
 Alpha virt. eigenvalues --    0.11032   0.12083   0.13079   0.13503   0.15179
 Alpha virt. eigenvalues --    0.16368   0.17461   0.18287   0.18716   0.20727

 Mulliken charges:
               1
     1  C   -0.398567
     2  C   -0.288826
     3  H    0.220220
     4  H    0.117567
     5  H    0.057447
     6  C   -0.023497
     7  H   -0.027355
     8  H    0.294159
     9  C   -0.222860
    10  H    0.059602
    11  H    0.003692
    12  H    0.039525
    13  H    0.045289
    14  H    0.123604
 Sum of Mulliken charges =   0.00000

 Dipole moment (field-independent basis, Debye):
    X=              0.1681    Y=             -0.1454    Z=             -0.2252  Tot=              0.3164
 Quadrupole moment (field-independent basis, Debye-Ang):
   XX=            -29.0565   YY=            -30.1237   ZZ=            -27.6513
   XY=             -0.7457   XZ=              1.3632   YZ=              0.7738

 Normal termination of Gaussian 09 at Wed Aug 26 18:42:45 2020.
