 Gaussian 09, Revision D.01,
 Gaussian 09:  ES64L-G09RevD.01 24-Apr-2013

 --------------------
 #p B2PLYPD3/Def2QZVP
 --------------------

 ----------
 butane_opt
 ----------
 Symbolic Z-matrix:
 Charge =  0 Multiplicity = 1

                         Standard orientation:
 ---------------------------------------------------------------------
 Center     Atomic      Atomic             Coordinates (Angstroms)
 Number     Number       Type             X           Y           Z
 ---------------------------------------------------------------------
      1          6           0       -2.074687   -0.144531   -0.069687
      2          6           0       -0.514413    0.583985    0.013585
      3          1           0       -2.789301    0.579258   -0.072441
      4          1           0       -2.401178   -0.761351    0.888342
      5          1           0       -2.072593   -1.022396   -0.999167
      6          6           0        0.657105   -0.406722    0.255470
      7          1           0       -0.501962    1.164404    0.693507
      8          1           0       -0.399816    1.044119   -1.019636
      9          6           0        1.975257    0.049217   -0.110417
     10          1           0        0.741837   -1.135774   -0.433615
     11          1           0        0.550438   -0.953212    1.267376
     12          1           0        1.335112    0.345908   -0.925255
     13          1           0        2.665808   -0.867056   -0.738162
     14          1           0        2.612082    1.114405    0.805341
 ---------------------------------------------------------------------

 SCF Done:  E(RB2PLYPD3) =  -157.875873668     A.U. after   11 cycles
 E2(B2PLYPD3) =    -0.2547829578D+00 E(B2PLYPD3) =    -0.15813065662552D+03

 The electronic state is 1-A.
 Alpha  occ. eigenvalues --  -10.65303 -10.63645 -10.61426 -10.61208  -0.94806
 Alpha  occ. eigenvalues --   -0.83190  -0.73284  -0.64920  -0.55774  -0.50171
 Alpha  occ. eigenvalues --   -0.48298  -0.46862  -0.42443  -0.39857  -0.38021
 Alpha  occ. eigenvalues --   -0.35500  -0.33992
 Alpha virt. eigenvalues --    0.03424   0.05501   0.07469   0.08197   0.09998
 Alpha virt. eigenvalues --    0.10190   0.11784   0.13002   0.13659   0.14066
 Alpha virt. eigenvalues --    0.16007   0.16765   0.18405   0.19218   0.19962

 Mulliken charges:
               1
     1  C   -0.175393
     2  C   -0.110988
     3  H    0.077711
     4  H    0.032843
     5  H    0.035651
     6  C   -0.055541
     7  H    0.113695
     8  H    0.039725
     9  C   -0.176680
    10  H    0.080659
    11  H    0.013489
    12  H    0.069695
    13  H    0.044313
    14  H    0.010820
 Sum of Mulliken charges =   0.00000

 Dipole moment (field-independent basis, Debye):
    X=             -0.7222    Y=             -0.1355    Z=             -0.2364  Tot=              0.7719
 Quadrupole moment (field-independent basis, Debye-Ang):
   XX=            -32.0802   YY=            -29.3853   ZZ=            -28.9712
   XY=             -1.7726   XZ=             -0.8096   YZ=              1.3955

 Normal termination of Gaussian 09 at Wed Aug 26 13:35:12 2020.
