 Gaussian 09, Revision D.01,
 Gaussian 09:  ES64L-G09RevD.01 24-Apr-2013

 --------------------
 #p B2PLYPD3/Def2QZVP
 --------------------

 ----------
 butane_opt
 ----------
 Symbolic Z-matrix:
 Charge =  0 Multiplicity = 1

                         Standard orientation:
 ---------------------------------------------------------------------
 Center     Atomic      Atomic             Coordinates (Angstroms)
 Number     Number       Type             X           Y           Z
 ---------------------------------------------------------------------
      1          6           0       -2.018022   -0.177805   -0.081306
      2          6           0       -0.527664    0.541424    0.089628
      3          1           0       -2.896101    0.529540    0.136238
      4          1           0       -2.139099   -0.665147    0.611788
      5          1           0       -2.336780   -0.805321   -0.940494
      6          6           0        0.619705   -0.437688   -0.021401
      7          1           0       -0.463296    1.518031    1.209219
      8          1           0       -0.235776    1.135471   -0.566363
      9          6           0        1.962340    0.019067   -0.072902
     10          1           0        0.427597   -0.905820   -0.775548
     11          1           0        0.556910   -1.181316    0.913657
     12          1           0        2.239616    1.126028   -1.183042
     13          1           0        2.665884   -0.690295    0.657361
     14          1           0        1.962890    0.268844    0.453073
 ---------------------------------------------------------------------

 SCF Done:  E(RB2PLYPD3) =  -157.269844105     A.U. after   12 cycles
 E2(B2PLYPD3) =    -0.2533828442D+00 E(B2PLYPD3) =    -0.15752322694875D+03

 The electronic state is 1-A.
 Alpha  occ. eigenvalues --  -10.63697 -10.61657 -10.59800 -10.59750  -0.97533
 Alpha  occ. eigenvalues --   -0.87287  -0.79952  -0.70118  -0.54218  -0.50117
 Alpha  occ. eigenvalues --   -0.48187  -0.47804  -0.43189  -0.42402  -0.38613
 Alpha  occ. eigenvalues --   -0.35984  -0.34863
 Alpha virt. eigenvalues --    0.01994   0.04997   0.06501   0.06822   0.10268
 Alpha virt. eigenvalues --    0.11274   0.12347   0.12996   0.13761   0.15302
 Alpha virt. eigenvalues --    0.16014   0.16663   0.17662   0.19506   0.20157

 Mulliken charges:
               1
     1  C   -0.213841
     2  C   -0.095425
     3  H    0.029901
     4  H    0.148536
     5  H    0.044278
     6  C    0.019859
     7  H   -0.028480
     8  H    0.089789
     9  C   -0.890417
    10  H    0.096000
    11  H   -0.003766
    12  H    0.029743
    13  H    0.060566
    14  H    0.713258
 Sum of Mulliken charges =   0.00000

 Dipole moment (field-independent basis, Debye):
    X=             -0.4154    Y=             -0.3214    Z=              0.2535  Tot=              0.5832
 Quadrupole moment (field-independent basis, Debye-Ang):
   XX=            -29.8455   YY=            -29.4187   ZZ=            -28.2730
   XY=              1.2632   XZ=              1.6243   YZ=             -0.8872

 Normal termination of Gaussian 09 at Wed Aug 26 10:49:15 2020.
