 Gaussian 09, Revision D.01,
 Gaussian 09:  ES64L-G09RevD.01 24-Apr-2013

 --------------------
 #p B2PLYPD3/Def2QZVP
 --------------------

 ----------
 butane_opt
 ----------
 Symbolic Z-matrix:
 Charge =  0 Multiplicity = 1

                         Standard orientation:
 ---------------------------------------------------------------------
 Center     Atomic      Atomic             Coordinates (Angstroms)
 Number     Number       Type             X           Y           Z
 ---------------------------------------------------------------------
      1          6           0       -1.906240   -0.091557    0.129168
      2          6           0       -0.539815    0.423495   -0.195399
      3          1           0       -2.849969    0.914861   -0.197298
      4          1           0       -1.953078   -0.885526    1.384665
      5          1           0       -1.850972   -0.373377   -0.493703
      6          6           0        0.536578   -0.533987   -0.163716
      7          1           0       -0.133941    0.858209    0.458131
      8          1           0       -0.640792    1.073437   -1.139797
      9          6           0        1.956036    0.131190    0.153552
     10          1           0        0.473940   -1.235037   -0.946992
     11          1           0        0.006745   -1.186232    0.935902
     12          1           0        2.022671    0.388269   -0.532765
     13          1           0        2.695648   -0.531950   -0.379126
     14          1           0        1.950389    1.402499    1.369353
 ---------------------------------------------------------------------

 SCF Done:  E(RB2PLYPD3) =  -157.300614779     A.U. after   12 cycles
 E2(B2PLYPD3) =    -0.2608421769D+00 E(B2PLYPD3) =    -0.15756145695552D+03

 The electronic state is 1-A.
 Alpha  occ. eigenvalues --  -10.63986 -10.62891 -10.61960 -10.58339  -0.97379
 Alpha  occ. eigenvalues --   -0.90599  -0.80337  -0.67655  -0.55386  -0.49712
 Alpha  occ. eigenvalues --   -0.48043  -0.44875  -0.40626  -0.39006  -0.37922
 Alpha  occ. eigenvalues --   -0.36426  -0.33914
 Alpha virt. eigenvalues --   -0.01630   0.04089   0.06120   0.06472   0.09441
 Alpha virt. eigenvalues --    0.10079   0.11386   0.12690   0.13641   0.14913
 Alpha virt. eigenvalues --    0.15360   0.16279   0.16658   0.19256   0.20421

 Mulliken charges:
               1
     1  C   -0.686543
     2  C   -0.083261
     3  H    0.027288
     4  H    0.055343
     5  H    0.551659
     6  C   -0.058604
     7  H    0.138943
     8  H    0.012552
     9  C   -0.582640
    10  H    0.051554
    11  H   -0.010147
    12  H    0.465951
    13  H    0.052559
    14  H    0.065346
 Sum of Mulliken charges =   0.00000

 Dipole moment (field-independent basis, Debye):
    X=              0.5984    Y=              0.3209    Z=             -1.0968  Tot=              1.2900
 Quadrupole moment (field-independent basis, Debye-Ang):
   XX=            -32.0518   YY=            -29.9566   ZZ=            -27.7353
   XY=              0.6850   XZ=             -1.4034   YZ=              1.0208

 Normal termination of Gaussian 09 at Wed Aug 26 23:13:59 2020.
