 Gaussian 09, Revision D.01,
 Gaussian 09:  ES64L-G09RevD.01 24-Apr-2013

 --------------------
 #p B2PLYPD3/Def2QZVP
 --------------------

 ----------
 butane_opt
 ----------
 Symbolic Z-matrix:
 Charge =  0 Multiplicity = 1

                         Standard orientation:
 ---------------------------------------------------------------------
 Center     Atomic      Atomic             Coordinates (Angstroms)
 Number     Number       Type             X           Y           Z
 ---------------------------------------------------------------------
      1          6           0       -1.841290    0.119336   -0.132737
      2          6           0       -0.550496   -0.572376    0.171028
      3          1           0       -2.591479   -0.548320   -0.778274
      4          1           0       -1.629764    0.649127   -0.862733
      5          1           0       -2.608682    0.918531    1.005752
      6          6           0        0.566026    0.452320    0.128028
      7          1           0       -0.374172   -1.207134   -0.708252
      8          1           0       -0.637324   -1.164142    0.947791
      9          6           0        1.930351   -0.042425   -0.099065
     10          1           0        0.392903    1.153473    1.055058
     11          1           0        0.263361    1.452971   -0.780680
     12          1           0        1.912555   -0.980379    0.899293
     13          1           0        2.532849    0.698863   -0.196145
     14          1           0        2.112204   -0.714117   -0.985338
 ---------------------------------------------------------------------

 SCF Done:  E(RB2PLYPD3) =  -157.907825983     A.U. after   11 cycles
 E2(B2PLYPD3) =    -0.2530577851D+00 E(B2PLYPD3) =    -0.15816088376840D+03

 The electronic state is 1-A.
 Alpha  occ. eigenvalues --  -10.64337 -10.62840 -10.62366 -10.60320  -0.93063
 Alpha  occ. eigenvalues --   -0.84996  -0.73193  -0.66552  -0.54810  -0.51751
 Alpha  occ. eigenvalues --   -0.49508  -0.44334  -0.43011  -0.41883  -0.39287
 Alpha  occ. eigenvalues --   -0.35652  -0.32555
 Alpha virt. eigenvalues --    0.04066   0.05212   0.06418   0.07448   0.09031
 Alpha virt. eigenvalues --    0.11080   0.11611   0.12234   0.13310   0.15066
 Alpha virt. eigenvalues --    0.16019   0.16797   0.18847   0.19507   0.20005

 Mulliken charges:
               1
     1  C   -0.203997
     2  C   -0.019243
     3  H    0.028271
     4  H    0.123171
     5  H    0.004083
     6  C   -0.016508
     7  H    0.037623
     8  H    0.055742
     9  C   -0.148573
    10  H    0.039432
    11  H   -0.041563
    12  H    0.016565
    13  H    0.083553
    14  H    0.041444
 Sum of Mulliken charges =   0.00000

 Dipole moment (field-independent basis, Debye):
    X=              0.5292    Y=             -0.3675    Z=             -0.4715  Tot=              0.7984
 Quadrupole moment (field-independent basis, Debye-Ang):
   XX=            -31.8589   YY=            -29.6275   ZZ=            -28.8445
   XY=              0.9746   XZ=             -0.3118   YZ=              0.2635

 Normal termination of Gaussian 09 at Wed Aug 26 14:30:28 2020.
