 Gaussian 09, Revision D.01,
 Gaussian 09:  ES64L-G09RevD.01 24-Apr-2013

 --------------------
 #p B2PLYPD3/Def2QZVP
 --------------------

 ----------
 butane_opt
 ----------
 Symbolic Z-matrix:
 Charge =  0 Multiplicity = 1

                         Standard orientation:
 ---------------------------------------------------------------------
 Center     Atomic      Atomic             Coordinates (Angstroms)
 Number     Number       Type             X           Y           Z
 ---------------------------------------------------------------------
      1          6           0       -1.975309    0.111402   -0.178018
      2          6           0       -0.646994   -0.474341    0.038706
      3          1           0       -2.745950   -0.779225    0.179141
      4          1           0       -2.045215    0.669639   -0.939984
      5          1           0       -2.041761    0.679744    0.621797
      6          6           0        0.579546    0.569187    0.247717
      7          1           0       -0.317322   -0.942727   -0.775418
      8          1           0       -0.473422   -1.363889    1.117195
      9          6           0        1.946490   -0.182498   -0.157316
     10          1           0        0.604313    1.407615    1.358761
     11          1           0        0.341041    1.128715   -0.498500
     12          1           0        2.602265   -1.155174    0.778037
     13          1           0        2.864343    0.645293   -0.714883
     14          1           0        1.789302   -0.432498   -0.832688
 ---------------------------------------------------------------------

 SCF Done:  E(RB2PLYPD3) =  -157.706073282     A.U. after   11 cycles
 E2(B2PLYPD3) =    -0.2538899460D+00 E(B2PLYPD3) =    -0.15795996322817D+03

 The electronic state is 1-A.
 Alpha  occ. eigenvalues --  -10.63870 -10.63466 -10.63290 -10.59144  -0.92688
 Alpha  occ. eigenvalues --   -0.86512  -0.75416  -0.67486  -0.55574  -0.50680
 Alpha  occ. eigenvalues --   -0.48295  -0.46017  -0.41847  -0.39734  -0.38606
 Alpha  occ. eigenvalues --   -0.37367  -0.33690
 Alpha virt. eigenvalues --    0.03784   0.05338   0.07394   0.07502   0.08779
 Alpha virt. eigenvalues --    0.10463   0.11977   0.12458   0.14265   0.14868
 Alpha virt. eigenvalues --    0.15651   0.16132   0.18182   0.18947   0.19555

 Mulliken charges:
               1
     1  C   -0.185860
     2  C   -0.056910
     3  H    0.063049
     4  H    0.058363
     5  H    0.076041
     6  C   -0.078224
     7  H    0.068181
     8  H   -0.004563
     9  C   -0.558409
    10  H    0.017202
    11  H    0.105269
    12  H    0.050477
    13  H    0.019919
    14  H    0.425465
 Sum of Mulliken charges =   0.00000

 Dipole moment (field-independent basis, Debye):
    X=             -0.5764    Y=              0.2286    Z=             -0.7972  Tot=              1.0100
 Quadrupole moment (field-independent basis, Debye-Ang):
   XX=            -31.3296   YY=            -29.8351   ZZ=            -28.3734
   XY=             -0.9931   XZ=             -0.6417   YZ=             -0.6493

 Normal termination of Gaussian 09 at Wed Aug 26 14:21:13 2020.
