 Gaussian 09, Revision D.01,
 Gaussian 09:  ES64L-G09RevD.01 24-Apr-2013

 --------------------
 #p B2PLYPD3/Def2QZVP
 --------------------

 ----------
 butane_opt
 ----------
 Symbolic Z-matrix:
 Charge =  0 Multiplicity = 1

                         Standard orientation:
 ---------------------------------------------------------------------
 Center     Atomic      Atomic             Coordinates (Angstroms)
 Number     Number       Type             X           Y           Z
 ---------------------------------------------------------------------
      1          6           0       -1.995677    0.113624   -0.122909
      2          6           0       -0.584792   -0.540917    0.112723
      3          1           0       -2.974852   -0.787441   -0.318180
      4          1           0       -2.065040    1.039844   -1.105381
      5          1           0       -2.036455    0.508139    0.537666
      6          6           0        0.551891    0.529045    0.347356
      7          1           0       -0.000098   -1.176091   -0.677839
      8          1           0       -0.863528   -1.169021    0.941768
      9          6           0        2.044462   -0.064614   -0.203482
     10          1           0        0.551618    1.252993    1.344321
     11          1           0        0.222110    1.302692   -0.519999
     12          1           0        2.737882   -1.116847    0.820418
     13          1           0        2.654019    0.553954   -0.881676
     14          1           0        1.679044   -0.631051   -0.943225
 ---------------------------------------------------------------------

 SCF Done:  E(RB2PLYPD3) =  -157.786095856     A.U. after   11 cycles
 E2(B2PLYPD3) =    -0.2560837134D+00 E(B2PLYPD3) =    -0.15804217956935D+03

 The electronic state is 1-A.
 Alpha  occ. eigenvalues --  -10.65955 -10.65196 -10.63195 -10.62603  -0.90960
 Alpha  occ. eigenvalues --   -0.83225  -0.73870  -0.66270  -0.52699  -0.50003
 Alpha  occ. eigenvalues --   -0.47832  -0.42170  -0.41921  -0.40083  -0.38377
 Alpha  occ. eigenvalues --   -0.37438  -0.34754
 Alpha virt. eigenvalues --    0.02954   0.04984   0.07594   0.07755   0.09091
 Alpha virt. eigenvalues --    0.10503   0.11464   0.11716   0.14072   0.14805
 Alpha virt. eigenvalues --    0.15597   0.16497   0.17846   0.18642   0.19212

 Mulliken charges:
               1
     1  C   -0.445063
     2  C   -0.027313
     3  H    0.049276
     4  H    0.016575
     5  H    0.347047
     6  C   -0.068943
     7  H    0.045090
     8  H    0.043208
     9  C   -0.197926
    10  H    0.038840
    11  H    0.033381
    12  H    0.009139
    13  H    0.071342
    14  H    0.085349
 Sum of Mulliken charges =   0.00000

 Dipole moment (field-independent basis, Debye):
    X=             -0.3997    Y=              0.0874    Z=             -0.2141  Tot=              0.4618
 Quadrupole moment (field-independent basis, Debye-Ang):
   XX=            -31.8619   YY=            -29.7945   ZZ=            -28.9476
   XY=              0.5870   XZ=             -2.2667   YZ=             -0.2372

 Normal termination of Gaussian 09 at Wed Aug 26 18:52:46 2020.
