 Gaussian 09, Revision D.01,
 Gaussian 09:  ES64L-G09RevD.01 24-Apr-2013

 --------------------
 #p B2PLYPD3/Def2QZVP
 --------------------

 ----------
 butane_opt
 ----------
 Symbolic Z-matrix:
 Charge =  0 Multiplicity = 1

                         Standard orientation:
 ---------------------------------------------------------------------
 Center     Atomic      Atomic             Coordinates (Angstroms)
 Number     Number       Type             X           Y           Z
 ---------------------------------------------------------------------
      1          6           0        1.936835    0.116960    0.039342
      2          6           0        0.463683   -0.567318   -0.144302
      3          1           0        2.781348   -0.694342    0.470802
      4          1           0        1.870488    0.350171    0.764284
      5          1           0        2.497134    1.067986   -1.007256
      6          6           0       -0.571916    0.518038   -0.012533
      7          1           0        0.290339   -1.083374    0.679786
      8          1           0        0.178245   -1.279975   -1.020711
      9          6           0       -1.860175   -0.059912    0.026416
     10          1           0       -0.493365    1.002296   -0.602119
     11          1           0       -0.313564    1.531393    1.103753
     12          1           0       -2.166627   -0.553791   -0.784663
     13          1           0       -2.541647    0.771874   -0.173191
     14          1           0       -1.912911   -1.158847    1.115769
 ---------------------------------------------------------------------

 SCF Done:  E(RB2PLYPD3) =  -157.604575986     A.U. after   12 cycles
 E2(B2PLYPD3) =    -0.2545936310D+00 E(B2PLYPD3) =    -0.15785916961732D+03

 The electronic state is 1-A.
 Alpha  occ. eigenvalues --  -10.62933 -10.62601 -10.61724 -10.60600  -0.95503
 Alpha  occ. eigenvalues --   -0.86218  -0.75833  -0.71332  -0.55924  -0.49903
 Alpha  occ. eigenvalues --   -0.49062  -0.46555  -0.42552  -0.39225  -0.38049
 Alpha  occ. eigenvalues --   -0.36771  -0.33929
 Alpha virt. eigenvalues --    0.02419   0.04329   0.05575   0.07692   0.09307
 Alpha virt. eigenvalues --    0.10473   0.11446   0.12890   0.13564   0.14890
 Alpha virt. eigenvalues --    0.15825   0.16460   0.18209   0.19117   0.19598

 Mulliken charges:
               1
     1  C   -0.494483
     2  C   -0.040988
     3  H    0.024235
     4  H    0.379040
     5  H    0.043408
     6  C   -0.289594
     7  H    0.084787
     8  H    0.042502
     9  C   -0.114271
    10  H    0.289684
    11  H   -0.030665
    12  H    0.056079
    13  H    0.045774
    14  H    0.004493
 Sum of Mulliken charges =   0.00000

 Dipole moment (field-independent basis, Debye):
    X=             -0.4196    Y=             -0.0832    Z=             -0.6410  Tot=              0.7706
 Quadrupole moment (field-independent basis, Debye-Ang):
   XX=            -31.3147   YY=            -29.4600   ZZ=            -28.8010
   XY=             -0.0513   XZ=              2.9157   YZ=             -1.2548

 Normal termination of Gaussian 09 at Wed Aug 26 22:19:45 2020.
