 Gaussian 09, Revision D.01,
 Gaussian 09:  ES64L-G09RevD.01 24-Apr-2013

 --------------------
 #p B2PLYPD3/Def2QZVP
 --------------------

 ----------
 butane_opt
 ----------
 Symbolic Z-matrix:
 Charge =  0 Multiplicity = 1

                         Standard orientation:
 ---------------------------------------------------------------------
 Center     Atomic      Atomic             Coordinates (Angstroms)
 Number     Number       Type             X           Y           Z
 ---------------------------------------------------------------------
      1          6           0       -1.881300    0.064016   -0.226512
      2          6           0       -0.568216   -0.326468    0.418278
      3          1           0       -2.713400   -0.916461   -0.518723
      4          1           0       -1.681027    0.260966   -1.098875
      5          1           0       -2.244204    0.885778    0.484613
      6          6           0        0.533094    0.611191    0.059148
      7          1           0       -0.612675   -1.110283   -0.375085
      8          1           0       -0.728055   -0.960856    1.509282
      9          6           0        1.962235   -0.249942   -0.168551
     10          1           0        0.615654    1.436765    0.744385
     11          1           0        0.092569    0.874666   -0.747732
     12          1           0        2.269873   -0.499042    0.571262
     13          1           0        2.751458    0.565418   -0.282652
     14          1           0        1.974927   -1.129730   -0.780661
 ---------------------------------------------------------------------

 SCF Done:  E(RB2PLYPD3) =  -157.899045430     A.U. after   11 cycles
 E2(B2PLYPD3) =    -0.2503683454D+00 E(B2PLYPD3) =    -0.15814941377529D+03

 The electronic state is 1-A.
 Alpha  occ. eigenvalues --  -10.61649 -10.61048 -10.60527 -10.58378  -0.93426
 Alpha  occ. eigenvalues --   -0.84542  -0.76640  -0.65917  -0.55858  -0.51176
 Alpha  occ. eigenvalues --   -0.48096  -0.47956  -0.44102  -0.42312  -0.39512
 Alpha  occ. eigenvalues --   -0.36921  -0.32290
 Alpha virt. eigenvalues --    0.05102   0.06714   0.08166   0.08434   0.10511
 Alpha virt. eigenvalues --    0.11522   0.12504   0.13820   0.14704   0.15050
 Alpha virt. eigenvalues --    0.15983   0.17219   0.19049   0.19305   0.20902

 Mulliken charges:
               1
     1  C   -0.203230
     2  C   -0.071208
     3  H    0.021780
     4  H    0.109507
     5  H    0.047126
     6  C   -0.083383
     7  H    0.034691
     8  H    0.029301
     9  C   -0.247017
    10  H    0.038986
    11  H    0.087697
    12  H    0.157324
    13  H    0.022171
    14  H    0.056252
 Sum of Mulliken charges =   0.00000

 Dipole moment (field-independent basis, Debye):
    X=              0.2942    Y=              0.0462    Z=             -0.1363  Tot=              0.3275
 Quadrupole moment (field-independent basis, Debye-Ang):
   XX=            -30.6240   YY=            -28.6477   ZZ=            -28.3744
   XY=              0.1661   XZ=              1.4104   YZ=              1.0474

 Normal termination of Gaussian 09 at Wed Aug 26 14:49:22 2020.
