 Gaussian 09, Revision D.01,
 Gaussian 09:  ES64L-G09RevD.01 24-Apr-2013

 --------------------
 #p B2PLYPD3/Def2QZVP
 --------------------

 ----------
 butane_opt
 ----------
 Symbolic Z-matrix:
 Charge =  0 Multiplicity = 1

                         Standard orientation:
 ---------------------------------------------------------------------
 Center     Atomic      Atomic             Coordinates (Angstroms)
 Number     Number       Type             X           Y           Z
 ---------------------------------------------------------------------
      1          6           0        1.898558    0.011611   -0.220503
      2          6           0        0.582437   -0.447687    0.279331
      3          1           0        2.591611   -0.615965   -0.534742
      4          1           0        2.285697    0.958566    0.633235
      5          1           0        1.625844    0.436244   -1.085574
      6          6           0       -0.501349    0.631840    0.115857
      7          1           0        0.503869   -1.232677    1.510770
      8          1           0        0.559010   -0.764063   -0.165070
      9          6           0       -1.925070   -0.207096   -0.203899
     10          1           0       -0.321954    0.943810   -0.518655
     11          1           0       -0.504684    1.470209    0.945700
     12          1           0       -1.748759   -1.114355   -1.095914
     13          1           0       -2.861301    0.621965   -0.371284
     14          1           0       -2.456787   -0.635742    0.856817
 ---------------------------------------------------------------------

 SCF Done:  E(RB2PLYPD3) =  -157.103046876     A.U. after   11 cycles
 E2(B2PLYPD3) =    -0.2524970736D+00 E(B2PLYPD3) =    -0.15735554394929D+03

 The electronic state is 1-A.
 Alpha  occ. eigenvalues --  -10.66470 -10.61478 -10.60665 -10.59829  -0.98587
 Alpha  occ. eigenvalues --   -0.84932  -0.74444  -0.71387  -0.55825  -0.51475
 Alpha  occ. eigenvalues --   -0.48570  -0.47277  -0.41406  -0.39878  -0.38271
 Alpha  occ. eigenvalues --   -0.36869  -0.36193
 Alpha virt. eigenvalues --    0.04517   0.05898   0.07121   0.08197   0.10883
 Alpha virt. eigenvalues --    0.11097   0.11462   0.12612   0.13928   0.15020
 Alpha virt. eigenvalues --    0.16028   0.16617   0.17920   0.19123   0.21417

 Mulliken charges:
               1
     1  C   -0.104305
     2  C   -0.913587
     3  H    0.059134
     4  H    0.022259
     5  H    0.049955
     6  C   -0.403582
     7  H    0.014835
     8  H    0.821738
     9  C   -0.186349
    10  H    0.441910
    11  H    0.061063
    12  H    0.061071
    13  H    0.033507
    14  H    0.042351
 Sum of Mulliken charges =   0.00000

 Dipole moment (field-independent basis, Debye):
    X=              0.0958    Y=              0.0892    Z=             -0.7649  Tot=              0.7760
 Quadrupole moment (field-independent basis, Debye-Ang):
   XX=            -30.3897   YY=            -28.9747   ZZ=            -28.2644
   XY=             -1.1126   XZ=             -1.6557   YZ=              1.1917

 Normal termination of Gaussian 09 at Wed Aug 26 13:35:41 2020.
