 Gaussian 09, Revision D.01,
 Gaussian 09:  ES64L-G09RevD.01 24-Apr-2013

 --------------------
 #p B2PLYPD3/Def2QZVP
 --------------------

 ----------
 butane_opt
 ----------
 Symbolic Z-matrix:
 Charge =  0 Multiplicity = 1

                         Standard orientation:
 ---------------------------------------------------------------------
 Center     Atomic      Atomic             Coordinates (Angstroms)
 Number     Number       Type             X           Y           Z
 ---------------------------------------------------------------------
      1          6           0        1.931755   -0.117119    0.116387
      2          6           0        0.471935    0.497208   -0.289869
      3          1           0        2.614232    0.656554    0.117639
      4          1           0        2.323527   -0.647197   -0.544688
      5          1           0        2.180460   -0.819241    1.297323
      6          6           0       -0.595682   -0.428919   -0.070264
      7          1           0        0.362501    1.265639   -1.284791
      8          1           0        0.286240    1.037337    0.365079
      9          6           0       -1.856698    0.072321    0.135770
     10          1           0       -0.183324   -1.168126    0.927243
     11          1           0       -0.641502   -1.324956   -1.014814
     12          1           0       -1.906946    1.537085    1.414750
     13          1           0       -2.728927   -0.757692   -0.240476
     14          1           0       -2.014125    0.079647   -0.389407
 ---------------------------------------------------------------------

 SCF Done:  E(RB2PLYPD3) =  -157.042450375     A.U. after   13 cycles
 E2(B2PLYPD3) =    -0.2612154976D+00 E(B2PLYPD3) =    -0.15730366587274D+03

 The electronic state is 1-A.
 Alpha  occ. eigenvalues --  -10.64641 -10.64393 -10.61326 -10.60884  -1.00116
 Alpha  occ. eigenvalues --   -0.89437  -0.78641  -0.67555  -0.55486  -0.51062
 Alpha  occ. eigenvalues --   -0.48399  -0.45609  -0.41437  -0.39880  -0.39255
 Alpha  occ. eigenvalues --   -0.33524  -0.33341
 Alpha virt. eigenvalues --   -0.03675   0.03690   0.05175   0.06861   0.09305
 Alpha virt. eigenvalues --    0.10741   0.11962   0.12799   0.13785   0.14861
 Alpha virt. eigenvalues --    0.15510   0.15955   0.18052   0.19642   0.21133

 Mulliken charges:
               1
     1  C   -0.146737
     2  C   -0.155061
     3  H    0.041201
     4  H    0.067561
     5  H    0.021788
     6  C    0.029972
     7  H    0.019883
     8  H    0.174739
     9  C   -0.888049
    10  H    0.018502
    11  H   -0.008221
    12  H    0.013490
    13  H    0.041759
    14  H    0.769173
 Sum of Mulliken charges =   0.00000

 Dipole moment (field-independent basis, Debye):
    X=              0.3790    Y=              0.1907    Z=             -0.9453  Tot=              1.0361
 Quadrupole moment (field-independent basis, Debye-Ang):
   XX=            -29.8058   YY=            -29.7007   ZZ=            -29.1536
   XY=              0.4078   XZ=              1.9766   YZ=              0.8196

 Normal termination of Gaussian 09 at Wed Aug 26 11:26:05 2020.
