 Gaussian 09, Revision D.01,
 Gaussian 09:  ES64L-G09RevD.01 24-Apr-2013

 --------------------
 #p B2PLYPD3/Def2QZVP
 --------------------

 ----------
 butane_opt
 ----------
 Symbolic Z-matrix:
 Charge =  0 Multiplicity = 1

                         Standard orientation:
 ---------------------------------------------------------------------
 Center     Atomic      Atomic             Coordinates (Angstroms)
 Number     Number       Type             X           Y           Z
 ---------------------------------------------------------------------
      1          6           0       -1.980660    0.063459   -0.116990
      2          6           0       -0.592519   -0.463055    0.112573
      3          1           0       -2.856292   -0.737898   -0.239248
      4          1           0       -1.831484    0.813881   -1.062545
      5          1           0       -2.235409    0.667560    0.698508
      6          6           0        0.584600    0.549880    0.125508
      7          1           0       -0.381739   -0.967225   -0.593178
      8          1           0       -0.626070   -1.115264    1.072737
      9          6           0        1.987998   -0.143823   -0.097749
     10          1           0        0.412680    1.407108    1.154544
     11          1           0        0.368094    1.008934   -0.663807
     12          1           0        2.330939   -0.854464    0.909193
     13          1           0        2.722193    0.468442   -0.424049
     14          1           0        2.100579   -0.729845   -0.992203
 ---------------------------------------------------------------------

 SCF Done:  E(RB2PLYPD3) =  -157.983306901     A.U. after   11 cycles
 E2(B2PLYPD3) =    -0.2486255948D+00 E(B2PLYPD3) =    -0.15823193249542D+03

 The electronic state is 1-A.
 Alpha  occ. eigenvalues --  -10.62353 -10.61715 -10.61625 -10.58767  -0.92035
 Alpha  occ. eigenvalues --   -0.83244  -0.73891  -0.67775  -0.54391  -0.50066
 Alpha  occ. eigenvalues --   -0.47701  -0.46146  -0.42439  -0.40728  -0.39835
 Alpha  occ. eigenvalues --   -0.37273  -0.36348
 Alpha virt. eigenvalues --    0.05335   0.06322   0.08000   0.08499   0.10841
 Alpha virt. eigenvalues --    0.11992   0.12433   0.12704   0.14530   0.14892
 Alpha virt. eigenvalues --    0.15671   0.16830   0.19003   0.19679   0.20796

 Mulliken charges:
               1
     1  C   -0.149772
     2  C   -0.091364
     3  H    0.050609
     4  H    0.015602
     5  H    0.059135
     6  C   -0.108578
     7  H    0.120534
     8  H    0.009886
     9  C   -0.130417
    10  H    0.005611
    11  H    0.100111
    12  H    0.038200
    13  H    0.051810
    14  H    0.028634
 Sum of Mulliken charges =   0.00000

 Dipole moment (field-independent basis, Debye):
    X=              0.1270    Y=             -0.1080    Z=             -0.5108  Tot=              0.5373
 Quadrupole moment (field-independent basis, Debye-Ang):
   XX=            -29.1732   YY=            -29.7909   ZZ=            -28.3125
   XY=              0.3682   XZ=             -1.7324   YZ=             -0.1539

 Normal termination of Gaussian 09 at Wed Aug 26 22:34:28 2020.
