 Gaussian 09, Revision D.01,
 Gaussian 09:  ES64L-G09RevD.01 24-Apr-2013

 --------------------
 #p B2PLYPD3/Def2QZVP
 --------------------

 ----------
 butane_opt
 ----------
 Symbolic Z-matrix:
 Charge =  0 Multiplicity = 1

                         Standard orientation:
 ---------------------------------------------------------------------
 Center     Atomic      Atomic             Coordinates (Angstroms)
 Number     Number       Type             X           Y           Z
 ---------------------------------------------------------------------
      1          6           0        1.987832    0.118741    0.027286
      2          6           0        0.582990   -0.484207   -0.037400
      3          1           0        2.709349   -0.629269   -0.084617
      4          1           0        2.184789    1.105981    1.131417
      5          1           0        2.124376    0.380248   -0.644842
      6          6           0       -0.589847    0.483419   -0.129343
      7          1           0        0.370126   -1.196372    0.896354
      8          1           0        0.353401   -1.232474   -0.966072
      9          6           0       -1.963033   -0.108752    0.078017
     10          1           0       -0.612113    1.210831   -1.079521
     11          1           0       -0.378466    1.102730    0.611320
     12          1           0       -2.145210   -0.610149   -0.736807
     13          1           0       -2.736596    0.596610    0.200148
     14          1           0       -1.977310   -0.783341    1.041260
 ---------------------------------------------------------------------

 SCF Done:  E(RB2PLYPD3) =  -157.844081459     A.U. after   11 cycles
 E2(B2PLYPD3) =    -0.2487308087D+00 E(B2PLYPD3) =    -0.15809281226728D+03

 The electronic state is 1-A.
 Alpha  occ. eigenvalues --  -10.63195 -10.59984 -10.59821 -10.58868  -0.92328
 Alpha  occ. eigenvalues --   -0.86779  -0.75833  -0.66239  -0.54089  -0.50110
 Alpha  occ. eigenvalues --   -0.49636  -0.47639  -0.41612  -0.40899  -0.40104
 Alpha  occ. eigenvalues --   -0.37561  -0.35606
 Alpha virt. eigenvalues --    0.04842   0.06127   0.07673   0.07899   0.10562
 Alpha virt. eigenvalues --    0.11337   0.12781   0.13460   0.14912   0.15000
 Alpha virt. eigenvalues --    0.15777   0.16365   0.18956   0.19731   0.21384

 Mulliken charges:
               1
     1  C   -0.470042
     2  C   -0.003897
     3  H    0.062184
     4  H    0.027766
     5  H    0.347499
     6  C   -0.036160
     7  H    0.023734
     8  H   -0.000511
     9  C   -0.137150
    10  H   -0.000744
    11  H    0.051472
    12  H    0.064235
    13  H    0.044426
    14  H    0.027188
 Sum of Mulliken charges =   0.00000

 Dipole moment (field-independent basis, Debye):
    X=             -0.0147    Y=              0.0472    Z=             -0.3446  Tot=              0.3481
 Quadrupole moment (field-independent basis, Debye-Ang):
   XX=            -28.7769   YY=            -29.4356   ZZ=            -28.3271
   XY=             -0.5738   XZ=             -0.7603   YZ=              0.3486

 Normal termination of Gaussian 09 at Wed Aug 26 21:52:04 2020.
