 Gaussian 09, Revision D.01,
 Gaussian 09:  ES64L-G09RevD.01 24-Apr-2013

 --------------------
 #p B2PLYPD3/Def2QZVP
 --------------------

 ----------
 butane_opt
 ----------
 Symbolic Z-matrix:
 Charge =  0 Multiplicity = 1

                         Standard orientation:
 ---------------------------------------------------------------------
 Center     Atomic      Atomic             Coordinates (Angstroms)
 Number     Number       Type             X           Y           Z
 ---------------------------------------------------------------------
      1          6           0        1.821858    0.069441   -0.112849
      2          6           0        0.618857   -0.496454    0.060758
      3          1           0        2.623625   -0.814078   -0.510350
      4          1           0        2.552328    1.236140    1.153781
      5          1           0        1.574583    0.305575   -0.838950
      6          6           0       -0.503768    0.555301   -0.026762
      7          1           0        0.493636   -1.268439    1.305066
      8          1           0        0.393840   -0.811104   -0.506537
      9          6           0       -1.966633   -0.111295   -0.002951
     10          1           0       -0.483783    1.084354   -0.940048
     11          1           0       -0.205753    1.141529    0.728613
     12          1           0       -2.112419   -0.842220   -0.874376
     13          1           0       -2.674236    0.564998    0.083791
     14          1           0       -1.983704   -0.698720    0.889838
 ---------------------------------------------------------------------

 SCF Done:  E(RB2PLYPD3) =  -157.518114883     A.U. after   12 cycles
 E2(B2PLYPD3) =    -0.2548928555D+00 E(B2PLYPD3) =    -0.15777300773882D+03

 The electronic state is 1-A.
 Alpha  occ. eigenvalues --  -10.63264 -10.60347 -10.60126 -10.60102  -1.01149
 Alpha  occ. eigenvalues --   -0.86098  -0.76025  -0.71312  -0.58432  -0.51359
 Alpha  occ. eigenvalues --   -0.49842  -0.49344  -0.42802  -0.41706  -0.39013
 Alpha  occ. eigenvalues --   -0.35099  -0.33050
 Alpha virt. eigenvalues --   -0.01189   0.05941   0.06880   0.07350   0.09567
 Alpha virt. eigenvalues --    0.10650   0.12412   0.13435   0.14408   0.14749
 Alpha virt. eigenvalues --    0.15306   0.16379   0.18538   0.19435   0.20142

 Mulliken charges:
               1
     1  C   -0.350262
     2  C   -0.635207
     3  H    0.044839
     4  H   -0.005561
     5  H    0.314155
     6  C   -0.056681
     7  H   -0.017746
     8  H    0.595881
     9  C   -0.141818
    10  H    0.032039
    11  H    0.072268
    12  H    0.032281
    13  H    0.062866
    14  H    0.052946
 Sum of Mulliken charges =   0.00000

 Dipole moment (field-independent basis, Debye):
    X=             -0.7459    Y=             -0.0685    Z=             -0.9939  Tot=              1.2446
 Quadrupole moment (field-independent basis, Debye-Ang):
   XX=            -31.1730   YY=            -29.9818   ZZ=            -28.1564
   XY=             -1.0524   XZ=             -0.7960   YZ=              0.9786

 Normal termination of Gaussian 09 at Wed Aug 26 15:33:46 2020.
