 Gaussian 09, Revision D.01,
 Gaussian 09:  ES64L-G09RevD.01 24-Apr-2013

 --------------------
 #p B2PLYPD3/Def2QZVP
 --------------------

 ----------
 butane_opt
 ----------
 Symbolic Z-matrix:
 Charge =  0 Multiplicity = 1

                         Standard orientation:
 ---------------------------------------------------------------------
 Center     Atomic      Atomic             Coordinates (Angstroms)
 Number     Number       Type             X           Y           Z
 ---------------------------------------------------------------------
      1          6           0        1.928250    0.089235   -0.138795
      2          6           0        0.551295   -0.489567    0.254901
      3          1           0        2.801581   -0.724917   -0.735057
      4          1           0        2.707988    1.023387    0.821890
      5          1           0        1.789963    0.226754   -0.745032
      6          6           0       -0.537301    0.630319   -0.034897
      7          1           0        0.743894   -1.280321    1.225028
      8          1           0        0.469786   -0.952308   -0.452039
      9          6           0       -2.006094   -0.148692   -0.107651
     10          1           0       -0.228595    0.877896   -0.737533
     11          1           0       -0.619162    1.481527    0.851468
     12          1           0       -2.258508   -0.882265   -1.024533
     13          1           0       -2.822315    0.577931    0.050523
     14          1           0       -2.201531   -0.835448    0.903932
 ---------------------------------------------------------------------

 SCF Done:  E(RB2PLYPD3) =  -157.427499897     A.U. after   12 cycles
 E2(B2PLYPD3) =    -0.2535945675D+00 E(B2PLYPD3) =    -0.15768109446454D+03

 The electronic state is 1-A.
 Alpha  occ. eigenvalues --  -10.64077 -10.62358 -10.62109 -10.60825  -0.95852
 Alpha  occ. eigenvalues --   -0.85353  -0.75163  -0.71472  -0.54737  -0.50362
 Alpha  occ. eigenvalues --   -0.47020  -0.45722  -0.41335  -0.40565  -0.39762
 Alpha  occ. eigenvalues --   -0.37153  -0.34545
 Alpha virt. eigenvalues --    0.04025   0.05594   0.06983   0.08181   0.08755
 Alpha virt. eigenvalues --    0.10748   0.12069   0.12711   0.13874   0.14902
 Alpha virt. eigenvalues --    0.15800   0.16812   0.18544   0.19516   0.20710

 Mulliken charges:
               1
     1  C   -0.858722
     2  C   -0.172599
     3  H    0.023814
     4  H    0.037674
     5  H    0.670524
     6  C   -0.267116
     7  H    0.049712
     8  H    0.231084
     9  C   -0.163742
    10  H    0.261836
    11  H    0.042084
    12  H    0.042841
    13  H    0.058051
    14  H    0.044558
 Sum of Mulliken charges =   0.00000

 Dipole moment (field-independent basis, Debye):
    X=             -0.5807    Y=              0.0573    Z=             -0.5994  Tot=              0.8366
 Quadrupole moment (field-independent basis, Debye-Ang):
   XX=            -31.2323   YY=            -29.4173   ZZ=            -28.0062
   XY=             -0.0800   XZ=             -0.6806   YZ=              0.7386

 Normal termination of Gaussian 09 at Wed Aug 26 13:24:48 2020.
