 Gaussian 09, Revision D.01,
 Gaussian 09:  ES64L-G09RevD.01 24-Apr-2013

 --------------------
 #p B2PLYPD3/Def2QZVP
 --------------------

 ----------
 butane_opt
 ----------
 Symbolic Z-matrix:
 Charge =  0 Multiplicity = 1

                         Standard orientation:
 ---------------------------------------------------------------------
 Center     Atomic      Atomic             Coordinates (Angstroms)
 Number     Number       Type             X           Y           Z
 ---------------------------------------------------------------------
      1          6           0        1.877958    0.016363   -0.178706
      2          6           0        0.586372   -0.459375    0.258677
      3          1           0        2.514704   -0.720770   -0.520343
      4          1           0        2.481765    1.060867    0.734316
      5          1           0        1.323683    0.432774   -1.079459
      6          6           0       -0.482841    0.627454    0.084302
      7          1           0        0.619531   -1.158993    1.382113
      8          1           0        0.481321   -0.984119   -0.534251
      9          6           0       -1.965207   -0.219734   -0.056921
     10          1           0       -0.201090    1.122382   -0.782429
     11          1           0       -0.539355    1.377549    0.907704
     12          1           0       -1.723598   -0.942682   -0.917865
     13          1           0       -2.674384    0.476097   -0.469253
     14          1           0       -2.380272   -0.451357    0.635354
 ---------------------------------------------------------------------

 SCF Done:  E(RB2PLYPD3) =  -157.894456879     A.U. after   11 cycles
 E2(B2PLYPD3) =    -0.2517679792D+00 E(B2PLYPD3) =    -0.15814622485809D+03

 The electronic state is 1-A.
 Alpha  occ. eigenvalues --  -10.63174 -10.61994 -10.61322 -10.58871  -0.94404
 Alpha  occ. eigenvalues --   -0.84191  -0.74838  -0.65639  -0.55398  -0.52836
 Alpha  occ. eigenvalues --   -0.49521  -0.47211  -0.43053  -0.40801  -0.37058
 Alpha  occ. eigenvalues --   -0.36392  -0.35263
 Alpha virt. eigenvalues --    0.04691   0.06458   0.07543   0.08182   0.10158
 Alpha virt. eigenvalues --    0.11059   0.12149   0.13077   0.14591   0.15214
 Alpha virt. eigenvalues --    0.16149   0.17659   0.18124   0.18947   0.20667

 Mulliken charges:
               1
     1  C   -0.145792
     2  C   -0.131440
     3  H    0.078897
     4  H   -0.003911
     5  H    0.036406
     6  C   -0.062882
     7  H    0.007714
     8  H    0.125872
     9  C   -0.232150
    10  H    0.076205
    11  H    0.037744
    12  H    0.048024
    13  H    0.024650
    14  H    0.140661
 Sum of Mulliken charges =   0.00000

 Dipole moment (field-independent basis, Debye):
    X=             -0.4902    Y=             -0.2806    Z=             -0.4929  Tot=              0.7496
 Quadrupole moment (field-independent basis, Debye-Ang):
   XX=            -30.7680   YY=            -29.5803   ZZ=            -28.4305
   XY=             -1.7116   XZ=             -0.9022   YZ=              0.7554

 Normal termination of Gaussian 09 at Wed Aug 26 20:28:19 2020.
