 Gaussian 09, Revision D.01,
 Gaussian 09:  ES64L-G09RevD.01 24-Apr-2013

 --------------------
 #p B2PLYPD3/Def2QZVP
 --------------------

 ----------
 butane_opt
 ----------
 Symbolic Z-matrix:
 Charge =  0 Multiplicity = 1

                         Standard orientation:
 ---------------------------------------------------------------------
 Center     Atomic      Atomic             Coordinates (Angstroms)
 Number     Number       Type             X           Y           Z
 ---------------------------------------------------------------------
      1          6           0        1.918499    0.092461    0.047512
      2          6           0        0.569458   -0.488207   -0.026209
      3          1           0        2.767830   -0.770288   -0.354410
      4          1           0        2.244952    1.025729    1.118890
      5          1           0        1.820390    0.487939   -0.686224
      6          6           0       -0.497119    0.558825   -0.051558
      7          1           0        0.314673   -1.150343    0.813698
      8          1           0        0.532112   -1.196832   -0.891336
      9          6           0       -1.974441   -0.108879    0.075880
     10          1           0       -0.532926    1.354652   -1.022930
     11          1           0       -0.369541    0.994052    0.668941
     12          1           0       -2.143892   -0.699032   -0.819118
     13          1           0       -2.629673    0.509825   -0.113189
     14          1           0       -2.102306   -0.880902    1.011927
 ---------------------------------------------------------------------

 SCF Done:  E(RB2PLYPD3) =  -157.861110846     A.U. after   11 cycles
 E2(B2PLYPD3) =    -0.2496251824D+00 E(B2PLYPD3) =    -0.15811073602844D+03

 The electronic state is 1-A.
 Alpha  occ. eigenvalues --  -10.61631 -10.60776 -10.60093 -10.59707  -0.93787
 Alpha  occ. eigenvalues --   -0.84854  -0.75543  -0.68045  -0.53983  -0.50335
 Alpha  occ. eigenvalues --   -0.48498  -0.46135  -0.42866  -0.40732  -0.38422
 Alpha  occ. eigenvalues --   -0.37986  -0.36511
 Alpha virt. eigenvalues --    0.04751   0.06137   0.07506   0.07660   0.10689
 Alpha virt. eigenvalues --    0.11739   0.12511   0.13414   0.14138   0.15181
 Alpha virt. eigenvalues --    0.15694   0.16395   0.18628   0.19763   0.21467

 Mulliken charges:
               1
     1  C   -0.333835
     2  C    0.005257
     3  H    0.031841
     4  H    0.027549
     5  H    0.229752
     6  C   -0.174056
     7  H    0.025259
     8  H    0.027720
     9  C   -0.151392
    10  H    0.002267
    11  H    0.170247
    12  H    0.025284
    13  H    0.072786
    14  H    0.041321
 Sum of Mulliken charges =   0.00000

 Dipole moment (field-independent basis, Debye):
    X=             -0.3889    Y=              0.0398    Z=             -0.3536  Tot=              0.5272
 Quadrupole moment (field-independent basis, Debye-Ang):
   XX=            -30.7277   YY=            -28.8486   ZZ=            -28.2215
   XY=             -0.3541   XZ=             -0.3263   YZ=              0.2989

 Normal termination of Gaussian 09 at Wed Aug 26 23:09:01 2020.
