 Gaussian 09, Revision D.01,
 Gaussian 09:  ES64L-G09RevD.01 24-Apr-2013

 --------------------
 #p B2PLYPD3/Def2QZVP
 --------------------

 ----------
 butane_opt
 ----------
 Symbolic Z-matrix:
 Charge =  0 Multiplicity = 1

                         Standard orientation:
 ---------------------------------------------------------------------
 Center     Atomic      Atomic             Coordinates (Angstroms)
 Number     Number       Type             X           Y           Z
 ---------------------------------------------------------------------
      1          6           0       -1.945130    0.058757   -0.145078
      2          6           0       -0.617923   -0.463956    0.080644
      3          1           0       -2.735549   -0.648807    0.245743
      4          1           0       -2.148929    0.982741   -1.127773
      5          1           0       -1.962880    0.382121    0.504895
      6          6           0        0.455898    0.629719    0.178650
      7          1           0       -0.504081   -1.056824   -0.678258
      8          1           0       -0.570039   -1.524640    1.183067
      9          6           0        2.023564   -0.169088   -0.123255
     10          1           0        0.547298    1.598932    1.245596
     11          1           0        0.380522    1.000437   -0.481551
     12          1           0        2.935894   -0.676988    0.609942
     13          1           0        2.757463    0.434266   -0.518248
     14          1           0        1.801854   -0.823831   -0.929177
 ---------------------------------------------------------------------

 SCF Done:  E(RB2PLYPD3) =  -157.554783147     A.U. after   12 cycles
 E2(B2PLYPD3) =    -0.2544496950D+00 E(B2PLYPD3) =    -0.15780923284252D+03

 The electronic state is 1-A.
 Alpha  occ. eigenvalues --  -10.63776 -10.63582 -10.62073 -10.58629  -0.95635
 Alpha  occ. eigenvalues --   -0.86010  -0.76077  -0.70526  -0.54090  -0.49755
 Alpha  occ. eigenvalues --   -0.48341  -0.45963  -0.42026  -0.39805  -0.38914
 Alpha  occ. eigenvalues --   -0.36622  -0.34600
 Alpha virt. eigenvalues --    0.03777   0.05119   0.05845   0.06851   0.10026
 Alpha virt. eigenvalues --    0.11528   0.11773   0.14182   0.14370   0.14766
 Alpha virt. eigenvalues --    0.15074   0.15724   0.16949   0.19622   0.20093

 Mulliken charges:
               1
     1  C   -0.589418
     2  C    0.001156
     3  H    0.064576
     4  H    0.053159
     5  H    0.450755
     6  C   -0.445171
     7  H    0.082167
     8  H   -0.027461
     9  C   -0.165031
    10  H    0.035427
    11  H    0.406448
    12  H    0.037396
    13  H    0.042673
    14  H    0.053324
 Sum of Mulliken charges =   0.00000

 Dipole moment (field-independent basis, Debye):
    X=             -0.1003    Y=              0.5110    Z=             -0.5968  Tot=              0.7921
 Quadrupole moment (field-independent basis, Debye-Ang):
   XX=            -28.6474   YY=            -29.4700   ZZ=            -29.1087
   XY=              0.0608   XZ=             -1.0283   YZ=              0.0680

 Normal termination of Gaussian 09 at Wed Aug 26 21:14:07 2020.
