 Gaussian 09, Revision D.01,
 Gaussian 09:  ES64L-G09RevD.01 24-Apr-2013

 --------------------
 #p B2PLYPD3/Def2QZVP
 --------------------

 ----------
 butane_opt
 ----------
 Symbolic Z-matrix:
 Charge =  0 Multiplicity = 1

                         Standard orientation:
 ---------------------------------------------------------------------
 Center     Atomic      Atomic             Coordinates (Angstroms)
 Number     Number       Type             X           Y           Z
 ---------------------------------------------------------------------
      1          6           0       -2.050628    0.063942   -0.102867
      2          6           0       -0.553741   -0.490497    0.102386
      3          1           0       -2.733959   -0.706939    0.041403
      4          1           0       -2.107853    1.204102   -1.450053
      5          1           0       -2.061374    0.260897    0.498167
      6          6           0        0.571222    0.534054    0.211337
      7          1           0       -0.659750   -0.754152   -0.520850
      8          1           0       -0.421606   -1.184333    1.040222
      9          6           0        2.015370   -0.115344   -0.193041
     10          1           0        0.617210    1.565547    1.494504
     11          1           0        0.343554    0.806344   -0.275850
     12          1           0        2.456483   -0.874806    0.689556
     13          1           0        2.649965    0.509664   -0.593586
     14          1           0        2.023991   -0.779256   -1.030403
 ---------------------------------------------------------------------

 SCF Done:  E(RB2PLYPD3) =  -156.760630236     A.U. after   12 cycles
 E2(B2PLYPD3) =    -0.2557991303D+00 E(B2PLYPD3) =    -0.15701642936617D+03

 The electronic state is 1-A.
 Alpha  occ. eigenvalues --  -10.62832 -10.61523 -10.61448 -10.58877  -0.98099
 Alpha  occ. eigenvalues --   -0.89389  -0.79602  -0.75817  -0.58149  -0.51326
 Alpha  occ. eigenvalues --   -0.47975  -0.46779  -0.43578  -0.40871  -0.38111
 Alpha  occ. eigenvalues --   -0.36014  -0.33903
 Alpha virt. eigenvalues --    0.00302   0.03306   0.06127   0.07412   0.10058
 Alpha virt. eigenvalues --    0.10913   0.12025   0.13126   0.13481   0.14923
 Alpha virt. eigenvalues --    0.15710   0.16451   0.18416   0.18833   0.20651

 Mulliken charges:
               1
     1  C   -0.770674
     2  C   -0.578293
     3  H    0.096373
     4  H    0.016627
     5  H    0.602664
     6  C   -0.799771
     7  H    0.585226
     8  H    0.059917
     9  C   -0.089484
    10  H   -0.005314
    11  H    0.753237
    12  H    0.036555
    13  H    0.063012
    14  H    0.029924
 Sum of Mulliken charges =   0.00000

 Dipole moment (field-independent basis, Debye):
    X=              0.0332    Y=             -0.5945    Z=             -0.3402  Tot=              0.6858
 Quadrupole moment (field-independent basis, Debye-Ang):
   XX=            -28.9289   YY=            -29.3798   ZZ=            -27.8803
   XY=              0.6912   XZ=             -1.9930   YZ=             -1.0873

 Normal termination of Gaussian 09 at Wed Aug 26 23:50:31 2020.
