 Gaussian 09, Revision D.01,
 Gaussian 09:  ES64L-G09RevD.01 24-Apr-2013

 --------------------
 #p B2PLYPD3/Def2QZVP
 --------------------

 ----------
 butane_opt
 ----------
 Symbolic Z-matrix:
 Charge =  0 Multiplicity = 1

                         Standard orientation:
 ---------------------------------------------------------------------
 Center     Atomic      Atomic             Coordinates (Angstroms)
 Number     Number       Type             X           Y           Z
 ---------------------------------------------------------------------
      1          6           0       -1.994526   -0.007906    0.156988
      2          6           0       -0.604596   -0.478563   -0.193103
      3          1           0       -2.543676   -0.694374    0.108551
      4          1           0       -2.159424    0.687568   -0.619747
      5          1           0       -2.038030    0.904306    1.337579
      6          6           0        0.532475    0.613083   -0.271134
      7          1           0       -0.644268   -1.207573   -1.081346
      8          1           0       -0.218709   -1.045470    0.496843
      9          6           0        1.976605   -0.142295    0.126772
     10          1           0        0.122454    1.284304    0.792497
     11          1           0        0.714521    1.444167   -1.051076
     12          1           0        2.046056   -1.033893    1.117671
     13          1           0        2.653501    0.396166    0.682730
     14          1           0        2.607834   -0.641117   -0.700838
 ---------------------------------------------------------------------

 SCF Done:  E(RB2PLYPD3) =  -157.919423693     A.U. after   11 cycles
 E2(B2PLYPD3) =    -0.2527289470D+00 E(B2PLYPD3) =    -0.15817215264020D+03

 The electronic state is 1-A.
 Alpha  occ. eigenvalues --  -10.66048 -10.63248 -10.60987 -10.60835  -0.90792
 Alpha  occ. eigenvalues --   -0.81948  -0.73921  -0.66511  -0.54138  -0.51428
 Alpha  occ. eigenvalues --   -0.47569  -0.45069  -0.41936  -0.39645  -0.37310
 Alpha  occ. eigenvalues --   -0.36219  -0.35827
 Alpha virt. eigenvalues --    0.04832   0.05592   0.07400   0.07764   0.10187
 Alpha virt. eigenvalues --    0.11229   0.12305   0.12937   0.13698   0.14384
 Alpha virt. eigenvalues --    0.15265   0.16200   0.19064   0.19756   0.20578

 Mulliken charges:
               1
     1  C   -0.202661
     2  C   -0.005878
     3  H    0.117530
     4  H    0.061536
     5  H   -0.002112
     6  C   -0.082492
     7  H    0.003265
     8  H    0.078113
     9  C   -0.163095
    10  H    0.010123
    11  H    0.067491
    12  H   -0.002541
    13  H    0.066775
    14  H    0.053946
 Sum of Mulliken charges =   0.00000

 Dipole moment (field-independent basis, Debye):
    X=              0.0709    Y=             -0.1702    Z=             -0.4541  Tot=              0.4901
 Quadrupole moment (field-independent basis, Debye-Ang):
   XX=            -29.4002   YY=            -29.2531   ZZ=            -29.3707
   XY=              0.8598   XZ=              0.9097   YZ=             -0.2732

 Normal termination of Gaussian 09 at Wed Aug 26 10:26:50 2020.
