 Gaussian 09, Revision D.01,
 Gaussian 09:  ES64L-G09RevD.01 24-Apr-2013

 --------------------
 #p B2PLYPD3/Def2QZVP
 --------------------

 ----------
 butane_opt
 ----------
 Symbolic Z-matrix:
 Charge =  0 Multiplicity = 1

                         Standard orientation:
 ---------------------------------------------------------------------
 Center     Atomic      Atomic             Coordinates (Angstroms)
 Number     Number       Type             X           Y           Z
 ---------------------------------------------------------------------
      1          6           0        1.933334    0.098541    0.114878
      2          6           0        0.565970   -0.532870   -0.038195
      3          1           0        2.899531   -0.858936   -0.455188
      4          1           0        2.594005    1.351302    1.258093
      5          1           0        1.775333    0.282232   -0.484235
      6          6           0       -0.551858    0.531226   -0.261742
      7          1           0        0.486032   -0.857115    0.768574
      8          1           0        0.509862   -1.420798   -0.857804
      9          6           0       -1.986778   -0.055203    0.200434
     10          1           0       -0.454945    1.251976   -1.240949
     11          1           0       -0.263472    1.007773    0.314312
     12          1           0       -2.459669   -0.671146   -0.586455
     13          1           0       -2.628381    0.415282   -0.056655
     14          1           0       -2.222306   -0.750731    1.248061
 ---------------------------------------------------------------------

 SCF Done:  E(RB2PLYPD3) =  -157.270241895     A.U. after   13 cycles
 E2(B2PLYPD3) =    -0.2574627651D+00 E(B2PLYPD3) =    -0.15752770466002D+03

 The electronic state is 1-A.
 Alpha  occ. eigenvalues --  -10.63589 -10.60661 -10.60580 -10.60311  -0.96993
 Alpha  occ. eigenvalues --   -0.87973  -0.79941  -0.71788  -0.54284  -0.50247
 Alpha  occ. eigenvalues --   -0.47337  -0.44155  -0.43020  -0.40454  -0.37868
 Alpha  occ. eigenvalues --   -0.37391  -0.33470
 Alpha virt. eigenvalues --   -0.01749   0.04452   0.05765   0.07548   0.10234
 Alpha virt. eigenvalues --    0.10725   0.12407   0.13440   0.13833   0.15610
 Alpha virt. eigenvalues --    0.15873   0.16246   0.17598   0.19725   0.20028

 Mulliken charges:
               1
     1  C   -0.865881
     2  C   -0.089198
     3  H    0.026815
     4  H    0.046106
     5  H    0.673815
     6  C   -0.324483
     7  H    0.160652
     8  H    0.044790
     9  C   -0.243103
    10  H    0.032309
    11  H    0.306116
    12  H    0.014031
    13  H    0.163781
    14  H    0.054248
 Sum of Mulliken charges =   0.00000

 Dipole moment (field-independent basis, Debye):
    X=             -0.9741    Y=              0.1857    Z=             -0.3915  Tot=              1.0661
 Quadrupole moment (field-independent basis, Debye-Ang):
   XX=            -30.3764   YY=            -28.8647   ZZ=            -28.3191
   XY=              0.7856   XZ=              0.1031   YZ=              0.2326

 Normal termination of Gaussian 09 at Wed Aug 26 12:54:53 2020.
