 Gaussian 09, Revision D.01,
 Gaussian 09:  ES64L-G09RevD.01 24-Apr-2013

 --------------------
 #p B2PLYPD3/Def2QZVP
 --------------------

 ----------
 butane_opt
 ----------
 Symbolic Z-matrix:
 Charge =  0 Multiplicity = 1

                         Standard orientation:
 ---------------------------------------------------------------------
 Center     Atomic      Atomic             Coordinates (Angstroms)
 Number     Number       Type             X           Y           Z
 ---------------------------------------------------------------------
      1          6           0        1.985105    0.130024    0.092748
      2          6           0        0.583738   -0.628598   -0.048654
      3          1           0        2.506999   -0.490790   -0.660006
      4          1           0        2.442084    1.634326    1.232941
      5          1           0        2.138509    0.234407   -0.409924
      6          6           0       -0.597530    0.423351   -0.242041
      7          1           0        0.424870   -1.247030    1.069999
      8          1           0        0.360038   -1.229178   -0.841606
      9          6           0       -1.920452   -0.073459    0.185953
     10          1           0       -0.794901    1.153877   -1.358222
     11          1           0       -0.372583    1.177128    0.537361
     12          1           0       -2.098598   -0.412029   -0.544408
     13          1           0       -2.670531    0.731787   -0.072608
     14          1           0       -2.241058   -0.660403    1.118432
 ---------------------------------------------------------------------

 SCF Done:  E(RB2PLYPD3) =  -156.939059419     A.U. after   15 cycles
 E2(B2PLYPD3) =    -0.2628875249D+00 E(B2PLYPD3) =    -0.15720194694426D+03

 The electronic state is 1-A.
 Alpha  occ. eigenvalues --  -10.64979 -10.64225 -10.62722 -10.56889  -0.99480
 Alpha  occ. eigenvalues --   -0.90824  -0.78917  -0.65938  -0.54464  -0.50874
 Alpha  occ. eigenvalues --   -0.46889  -0.45435  -0.39628  -0.37937  -0.37364
 Alpha  occ. eigenvalues --   -0.35103  -0.31549
 Alpha virt. eigenvalues --   -0.05162   0.04975   0.06011   0.06729   0.09819
 Alpha virt. eigenvalues --    0.10496   0.11959   0.12954   0.13778   0.15235
 Alpha virt. eigenvalues --    0.16108   0.17138   0.17640   0.18300   0.20954

 Mulliken charges:
               1
     1  C   -0.946649
     2  C   -0.080106
     3  H    0.032095
     4  H    0.074613
     5  H    0.840427
     6  C   -0.043073
     7  H    0.034344
     8  H    0.074292
     9  C   -0.313538
    10  H    0.007984
    11  H    0.035468
    12  H    0.192742
    13  H    0.027436
    14  H    0.063964
 Sum of Mulliken charges =   0.00000

 Dipole moment (field-independent basis, Debye):
    X=             -0.1713    Y=              0.1181    Z=             -0.9715  Tot=              0.9935
 Quadrupole moment (field-independent basis, Debye-Ang):
   XX=            -30.7207   YY=            -29.1511   ZZ=            -27.3607
   XY=              1.8427   XZ=             -1.6950   YZ=              1.2043

 Normal termination of Gaussian 09 at Wed Aug 26 11:54:13 2020.
