 Gaussian 09, Revision D.01,
 Gaussian 09:  ES64L-G09RevD.01 24-Apr-2013

 --------------------
 #p B2PLYPD3/Def2QZVP
 --------------------

 ----------
 butane_opt
 ----------
 Symbolic Z-matrix:
 Charge =  0 Multiplicity = 1

                         Standard orientation:
 ---------------------------------------------------------------------
 Center     Atomic      Atomic             Coordinates (Angstroms)
 Number     Number       Type             X           Y           Z
 ---------------------------------------------------------------------
      1          6           0       -1.976443    0.057216   -0.165859
      2          6           0       -0.594327   -0.427852    0.320028
      3          1           0       -2.770391   -0.991399   -0.632117
      4          1           0       -1.382932    0.343978   -0.939579
      5          1           0       -2.730625    0.829464    0.637567
      6          6           0        0.524304    0.593782   -0.018539
      7          1           0       -0.621723   -0.920354   -0.279726
      8          1           0       -0.713814   -0.836685    1.275789
      9          6           0        2.064274   -0.216870   -0.062215
     10          1           0        0.487510    1.505837    0.775178
     11          1           0        0.116582    1.083357   -0.867422
     12          1           0        2.448330   -0.447879    0.730798
     13          1           0        2.873430    0.513355   -0.204738
     14          1           0        2.186783   -1.117331   -0.936238
 ---------------------------------------------------------------------

 SCF Done:  E(RB2PLYPD3) =  -157.791556419     A.U. after   11 cycles
 E2(B2PLYPD3) =    -0.2529674747D+00 E(B2PLYPD3) =    -0.15804452389413D+03

 The electronic state is 1-A.
 Alpha  occ. eigenvalues --  -10.64233 -10.64219 -10.61956 -10.57321  -0.95087
 Alpha  occ. eigenvalues --   -0.83018  -0.73822  -0.68206  -0.57146  -0.48879
 Alpha  occ. eigenvalues --   -0.47026  -0.46176  -0.42814  -0.40976  -0.39377
 Alpha  occ. eigenvalues --   -0.36756  -0.34237
 Alpha virt. eigenvalues --    0.04718   0.05855   0.08312   0.08791   0.09792
 Alpha virt. eigenvalues --    0.10458   0.12544   0.13566   0.14421   0.14957
 Alpha virt. eigenvalues --    0.15922   0.16602   0.17886   0.18547   0.20176

 Mulliken charges:
               1
     1  C   -0.185017
     2  C   -0.433134
     3  H    0.012694
     4  H    0.075733
     5  H    0.044767
     6  C   -0.057502
     7  H    0.398510
     8  H    0.060727
     9  C   -0.156691
    10  H    0.019881
    11  H    0.061350
    12  H    0.090383
    13  H    0.028902
    14  H    0.039397
 Sum of Mulliken charges =   0.00000

 Dipole moment (field-independent basis, Debye):
    X=              0.6800    Y=             -0.0822    Z=              0.1884  Tot=              0.7104
 Quadrupole moment (field-independent basis, Debye-Ang):
   XX=            -29.9366   YY=            -29.4092   ZZ=            -28.8401
   XY=              0.1620   XZ=             -0.1089   YZ=              0.8767

 Normal termination of Gaussian 09 at Wed Aug 26 16:19:10 2020.
