 Gaussian 09, Revision D.01,
 Gaussian 09:  ES64L-G09RevD.01 24-Apr-2013

 --------------------
 #p B2PLYPD3/Def2QZVP
 --------------------

 ----------
 butane_opt
 ----------
 Symbolic Z-matrix:
 Charge =  0 Multiplicity = 1

                         Standard orientation:
 ---------------------------------------------------------------------
 Center     Atomic      Atomic             Coordinates (Angstroms)
 Number     Number       Type             X           Y           Z
 ---------------------------------------------------------------------
      1          6           0       -1.925488    0.105006   -0.123968
      2          6           0       -0.617285   -0.466010    0.114422
      3          1           0       -2.631442   -0.775007    0.091056
      4          1           0       -2.033907    0.831355   -1.083550
      5          1           0       -2.115998    0.354547    0.435904
      6          6           0        0.498314    0.566196    0.151376
      7          1           0       -0.519455   -1.052397   -0.778278
      8          1           0       -0.736028   -1.141410    1.110984
      9          6           0        2.008990   -0.146553   -0.201124
     10          1           0        0.419930    1.654848    1.275799
     11          1           0        0.441882    0.883935   -0.570492
     12          1           0        2.602332   -0.981999    0.978392
     13          1           0        2.707301    0.488019   -0.318568
     14          1           0        2.078203   -0.613728   -0.785482
 ---------------------------------------------------------------------

 SCF Done:  E(RB2PLYPD3) =  -157.321793164     A.U. after   12 cycles
 E2(B2PLYPD3) =    -0.2517354323D+00 E(B2PLYPD3) =    -0.15757352859584D+03

 The electronic state is 1-A.
 Alpha  occ. eigenvalues --  -10.63429 -10.61642 -10.60350 -10.57394  -0.95410
 Alpha  occ. eigenvalues --   -0.88583  -0.80624  -0.70191  -0.55732  -0.53397
 Alpha  occ. eigenvalues --   -0.50121  -0.47529  -0.43948  -0.39717  -0.38173
 Alpha  occ. eigenvalues --   -0.36613  -0.34826
 Alpha virt. eigenvalues --    0.03308   0.05352   0.06112   0.08090   0.09938
 Alpha virt. eigenvalues --    0.10975   0.11796   0.12781   0.14607   0.14791
 Alpha virt. eigenvalues --    0.15639   0.16644   0.18937   0.19458   0.20029

 Mulliken charges:
               1
     1  C   -0.690941
     2  C    0.056185
     3  H    0.057346
     4  H    0.063911
     5  H    0.495247
     6  C   -0.391858
     7  H    0.055509
     8  H    0.022116
     9  C   -0.404802
    10  H    0.013257
    11  H    0.368832
    12  H   -0.025244
    13  H    0.072551
    14  H    0.307893
 Sum of Mulliken charges =   0.00000

 Dipole moment (field-independent basis, Debye):
    X=             -0.5379    Y=              0.3446    Z=             -0.8530  Tot=              1.0657
 Quadrupole moment (field-independent basis, Debye-Ang):
   XX=            -30.1993   YY=            -29.4318   ZZ=            -27.8015
   XY=              0.9085   XZ=             -2.6972   YZ=             -0.2199

 Normal termination of Gaussian 09 at Wed Aug 26 22:02:38 2020.
