 Gaussian 09, Revision D.01,
 Gaussian 09:  ES64L-G09RevD.01 24-Apr-2013

 --------------------
 #p B2PLYPD3/Def2QZVP
 --------------------

 ----------
 butane_opt
 ----------
 Symbolic Z-matrix:
 Charge =  0 Multiplicity = 1

                         Standard orientation:
 ---------------------------------------------------------------------
 Center     Atomic      Atomic             Coordinates (Angstroms)
 Number     Number       Type             X           Y           Z
 ---------------------------------------------------------------------
      1          6           0       -1.927515    0.035504   -0.076824
      2          6           0       -0.599016   -0.401460    0.060224
      3          1           0       -2.869917   -0.923032    0.001698
      4          1           0       -2.004508    0.957226   -1.129234
      5          1           0       -2.028321    0.545402    0.736092
      6          6           0        0.530128    0.560243    0.154788
      7          1           0       -0.240449   -0.957781   -0.841874
      8          1           0       -0.441494   -0.973437    0.843880
      9          6           0        1.945342   -0.192862   -0.087276
     10          1           0        0.538287    1.310316    1.273175
     11          1           0        0.301461    0.867018   -0.484179
     12          1           0        2.623090   -0.900370    0.908512
     13          1           0        2.574435    0.590064   -0.933200
     14          1           0        1.853779   -0.523953   -0.680342
 ---------------------------------------------------------------------

 SCF Done:  E(RB2PLYPD3) =  -157.480911502     A.U. after   11 cycles
 E2(B2PLYPD3) =    -0.2532594988D+00 E(B2PLYPD3) =    -0.15773417100120D+03

 The electronic state is 1-A.
 Alpha  occ. eigenvalues --  -10.63636 -10.62094 -10.60265 -10.58949  -0.96905
 Alpha  occ. eigenvalues --   -0.87324  -0.78826  -0.68372  -0.57265  -0.50250
 Alpha  occ. eigenvalues --   -0.47604  -0.46776  -0.42530  -0.40925  -0.38827
 Alpha  occ. eigenvalues --   -0.36409  -0.34694
 Alpha virt. eigenvalues --    0.03941   0.04729   0.07168   0.08183   0.09463
 Alpha virt. eigenvalues --    0.10375   0.12101   0.12232   0.13635   0.14997
 Alpha virt. eigenvalues --    0.16032   0.16266   0.17523   0.18786   0.20890

 Mulliken charges:
               1
     1  C   -0.176043
     2  C   -0.020636
     3  H    0.046146
     4  H    0.008426
     5  H    0.092958
     6  C   -0.437378
     7  H    0.015878
     8  H    0.060666
     9  C   -0.681800
    10  H    0.016279
    11  H    0.434875
    12  H    0.077948
    13  H    0.018613
    14  H    0.544067
 Sum of Mulliken charges =   0.00000

 Dipole moment (field-independent basis, Debye):
    X=             -0.1514    Y=             -0.5261    Z=              0.0476  Tot=              0.5495
 Quadrupole moment (field-independent basis, Debye-Ang):
   XX=            -31.5179   YY=            -29.9581   ZZ=            -27.6977
   XY=             -0.8532   XZ=             -1.1106   YZ=             -0.7715

 Normal termination of Gaussian 09 at Wed Aug 26 13:04:42 2020.
