 Gaussian 09, Revision D.01,
 Gaussian 09:  ES64L-G09RevD.01 24-Apr-2013

 --------------------
 #p B2PLYPD3/Def2QZVP
 --------------------

 ----------
 butane_opt
 ----------
 Symbolic Z-matrix:
 Charge =  0 Multiplicity = 1

                         Standard orientation:
 ---------------------------------------------------------------------
 Center     Atomic      Atomic             Coordinates (Angstroms)
 Number     Number       Type             X           Y           Z
 ---------------------------------------------------------------------
      1          6           0        1.953708    0.116658   -0.115681
      2          6           0        0.620221   -0.542926    0.092526
      3          1           0        2.744667   -0.813990   -0.422842
      4          1           0        2.519692    1.093315    0.902735
      5          1           0        1.829799    0.362107   -0.669052
      6          6           0       -0.567879    0.529828    0.055506
      7          1           0        0.626075   -1.352099    1.204335
      8          1           0        0.378433   -0.942531   -0.505018
      9          6           0       -2.064853   -0.135418   -0.048833
     10          1           0       -0.041856    1.527787   -1.027289
     11          1           0       -0.546937    1.146003    0.845159
     12          1           0       -2.269849   -1.017600   -1.046854
     13          1           0       -2.769461    0.644731    0.125971
     14          1           0       -2.117743   -0.456575    0.691743
 ---------------------------------------------------------------------

 SCF Done:  E(RB2PLYPD3) =  -157.264382749     A.U. after   12 cycles
 E2(B2PLYPD3) =    -0.2538135432D+00 E(B2PLYPD3) =    -0.15751819629218D+03

 The electronic state is 1-A.
 Alpha  occ. eigenvalues --  -10.65501 -10.62035 -10.61124 -10.61044  -0.95151
 Alpha  occ. eigenvalues --   -0.87608  -0.78856  -0.69769  -0.55216  -0.49846
 Alpha  occ. eigenvalues --   -0.48283  -0.47589  -0.41678  -0.41097  -0.40086
 Alpha  occ. eigenvalues --   -0.36361  -0.33939
 Alpha virt. eigenvalues --    0.03922   0.04446   0.05709   0.08278   0.09090
 Alpha virt. eigenvalues --    0.10423   0.11953   0.13188   0.13841   0.14463
 Alpha virt. eigenvalues --    0.15166   0.16007   0.17634   0.18754   0.19891

 Mulliken charges:
               1
     1  C   -0.787982
     2  C   -0.336677
     3  H    0.065350
     4  H    0.039528
     5  H    0.653119
     6  C   -0.055964
     7  H    0.006735
     8  H    0.366866
     9  C   -0.350415
    10  H   -0.044902
    11  H    0.081135
    12  H    0.049778
    13  H    0.058587
    14  H    0.254841
 Sum of Mulliken charges =   0.00000

 Dipole moment (field-independent basis, Debye):
    X=             -0.5503    Y=             -0.3445    Z=              0.2945  Tot=              0.7129
 Quadrupole moment (field-independent basis, Debye-Ang):
   XX=            -29.5094   YY=            -29.5684   ZZ=            -28.7161
   XY=              0.0785   XZ=             -1.5474   YZ=              1.8493

 Normal termination of Gaussian 09 at Wed Aug 26 13:36:42 2020.
