 Gaussian 09, Revision D.01,
 Gaussian 09:  ES64L-G09RevD.01 24-Apr-2013

 --------------------
 #p B2PLYPD3/Def2QZVP
 --------------------

 ----------
 butane_opt
 ----------
 Symbolic Z-matrix:
 Charge =  0 Multiplicity = 1

                         Standard orientation:
 ---------------------------------------------------------------------
 Center     Atomic      Atomic             Coordinates (Angstroms)
 Number     Number       Type             X           Y           Z
 ---------------------------------------------------------------------
      1          6           0       -1.917170    0.104666    0.079348
      2          6           0       -0.532714   -0.509818   -0.014395
      3          1           0       -2.596752   -0.621875   -0.379995
      4          1           0       -1.969646    0.308762   -0.544831
      5          1           0       -2.234464    1.140489    1.111228
      6          6           0        0.537899    0.484668   -0.174107
      7          1           0       -0.626027   -1.172238   -0.806064
      8          1           0       -0.235697   -1.025441    0.792218
      9          6           0        1.900467   -0.126479    0.090155
     10          1           0        0.392191    1.181795    0.629235
     11          1           0        0.435094    1.152446   -1.140010
     12          1           0        1.964635   -0.781477    1.058111
     13          1           0        2.729639    0.711227    0.029636
     14          1           0        2.210132   -0.611908   -0.635531
 ---------------------------------------------------------------------

 SCF Done:  E(RB2PLYPD3) =  -157.670939286     A.U. after   11 cycles
 E2(B2PLYPD3) =    -0.2492375402D+00 E(B2PLYPD3) =    -0.15792017682623D+03

 The electronic state is 1-A.
 Alpha  occ. eigenvalues --  -10.60455 -10.59615 -10.59102 -10.58600  -0.95363
 Alpha  occ. eigenvalues --   -0.87804  -0.77243  -0.67975  -0.54854  -0.50586
 Alpha  occ. eigenvalues --   -0.49073  -0.46745  -0.42137  -0.40868  -0.39349
 Alpha  occ. eigenvalues --   -0.37318  -0.36906
 Alpha virt. eigenvalues --    0.04759   0.06194   0.07290   0.08202   0.10776
 Alpha virt. eigenvalues --    0.11357   0.12327   0.13398   0.14536   0.15639
 Alpha virt. eigenvalues --    0.16243   0.16437   0.18897   0.19644   0.21824

 Mulliken charges:
               1
     1  C   -0.726394
     2  C    0.022761
     3  H    0.038785
     4  H    0.557683
     5  H    0.051164
     6  C   -0.027338
     7  H    0.020409
     8  H    0.042969
     9  C   -0.160433
    10  H    0.041192
    11  H    0.010271
    12  H    0.040441
    13  H    0.020903
    14  H    0.067586
 Sum of Mulliken charges =   0.00000

 Dipole moment (field-independent basis, Debye):
    X=              0.1690    Y=             -0.1499    Z=             -0.6328  Tot=              0.6719
 Quadrupole moment (field-independent basis, Debye-Ang):
   XX=            -30.3077   YY=            -28.7453   ZZ=            -27.7056
   XY=             -0.3924   XZ=              1.2025   YZ=              0.5993

 Normal termination of Gaussian 09 at Wed Aug 26 10:41:37 2020.
