 Gaussian 09, Revision D.01,
 Gaussian 09:  ES64L-G09RevD.01 24-Apr-2013

 --------------------
 #p B2PLYPD3/Def2QZVP
 --------------------

 ----------
 butane_opt
 ----------
 Symbolic Z-matrix:
 Charge =  0 Multiplicity = 1

                         Standard orientation:
 ---------------------------------------------------------------------
 Center     Atomic      Atomic             Coordinates (Angstroms)
 Number     Number       Type             X           Y           Z
 ---------------------------------------------------------------------
      1          6           0        1.916140   -0.167637   -0.156820
      2          6           0        0.496503    0.581290    0.108486
      3          1           0        2.758570    0.693906    0.039428
      4          1           0        2.109080   -1.058413   -1.155161
      5          1           0        2.092743   -0.459945    0.497034
      6          6           0       -0.530293   -0.524185    0.198508
      7          1           0        0.273213    0.991052   -0.659459
      8          1           0        0.452955    1.456342    1.183980
      9          6           0       -1.911590    0.059085   -0.167071
     10          1           0       -0.615007   -1.440018    1.459841
     11          1           0       -0.118442   -0.750923   -0.318947
     12          1           0       -2.226721    0.767220    0.739115
     13          1           0       -2.587000   -0.809686   -0.520128
     14          1           0       -1.963957    0.919140   -1.164316
 ---------------------------------------------------------------------

 SCF Done:  E(RB2PLYPD3) =  -157.474637259     A.U. after   11 cycles
 E2(B2PLYPD3) =    -0.2549177842D+00 E(B2PLYPD3) =    -0.15772955504285D+03

 The electronic state is 1-A.
 Alpha  occ. eigenvalues --  -10.64706 -10.63051 -10.61159 -10.60901  -0.97218
 Alpha  occ. eigenvalues --   -0.84747  -0.75700  -0.70372  -0.53609  -0.48609
 Alpha  occ. eigenvalues --   -0.47655  -0.46594  -0.42864  -0.40607  -0.38164
 Alpha  occ. eigenvalues --   -0.36090  -0.34869
 Alpha virt. eigenvalues --    0.03473   0.05174   0.05708   0.07276   0.10676
 Alpha virt. eigenvalues --    0.11168   0.11515   0.13238   0.13722   0.14514
 Alpha virt. eigenvalues --    0.15052   0.15915   0.18343   0.18734   0.20612

 Mulliken charges:
               1
     1  C   -0.533526
     2  C   -0.106633
     3  H    0.041301
     4  H    0.062894
     5  H    0.379047
     6  C   -0.560911
     7  H    0.159562
     8  H    0.003076
     9  C   -0.138168
    10  H    0.005946
    11  H    0.543236
    12  H    0.068699
    13  H    0.065953
    14  H    0.009523
 Sum of Mulliken charges =   0.00000

 Dipole moment (field-independent basis, Debye):
    X=              0.1220    Y=             -0.0735    Z=             -0.2359  Tot=              0.2756
 Quadrupole moment (field-independent basis, Debye-Ang):
   XX=            -30.4060   YY=            -29.5418   ZZ=            -28.8215
   XY=             -0.6703   XZ=              0.6254   YZ=              0.7060

 Normal termination of Gaussian 09 at Wed Aug 26 14:16:37 2020.
