 Gaussian 09, Revision D.01,
 Gaussian 09:  ES64L-G09RevD.01 24-Apr-2013

 --------------------
 #p B2PLYPD3/Def2QZVP
 --------------------

 ----------
 butane_opt
 ----------
 Symbolic Z-matrix:
 Charge =  0 Multiplicity = 1

                         Standard orientation:
 ---------------------------------------------------------------------
 Center     Atomic      Atomic             Coordinates (Angstroms)
 Number     Number       Type             X           Y           Z
 ---------------------------------------------------------------------
      1          6           0       -1.945295    0.054442   -0.144452
      2          6           0       -0.516703   -0.458811    0.223551
      3          1           0       -2.756619   -0.754774   -0.718325
      4          1           0       -1.451260    0.373821   -0.757977
      5          1           0       -2.307128    1.076882    0.964907
      6          6           0        0.469903    0.582824    0.104583
      7          1           0       -0.430647   -0.890356   -0.422980
      8          1           0       -0.341759   -1.205197    1.222030
      9          6           0        1.899494   -0.165017   -0.108040
     10          1           0        0.557650    1.073845    0.713185
     11          1           0        0.388077    1.240319   -0.891470
     12          1           0        2.416220   -0.657313    0.847681
     13          1           0        2.749167    0.682954   -0.325775
     14          1           0        1.731903   -1.020810   -1.085127
 ---------------------------------------------------------------------

 SCF Done:  E(RB2PLYPD3) =  -157.648368327     A.U. after   11 cycles
 E2(B2PLYPD3) =    -0.2539486711D+00 E(B2PLYPD3) =    -0.15790231699837D+03

 The electronic state is 1-A.
 Alpha  occ. eigenvalues --  -10.65395 -10.63245 -10.59545 -10.59399  -0.97264
 Alpha  occ. eigenvalues --   -0.84829  -0.71994  -0.71418  -0.55591  -0.51555
 Alpha  occ. eigenvalues --   -0.48261  -0.45701  -0.41302  -0.40226  -0.38332
 Alpha  occ. eigenvalues --   -0.37611  -0.34921
 Alpha virt. eigenvalues --    0.03357   0.05145   0.07198   0.08241   0.10172
 Alpha virt. eigenvalues --    0.10615   0.11611   0.11953   0.13934   0.15132
 Alpha virt. eigenvalues --    0.16145   0.16664   0.17877   0.19663   0.20868

 Mulliken charges:
               1
     1  C   -0.316355
     2  C   -0.344967
     3  H    0.051953
     4  H    0.225918
     5  H    0.010160
     6  C   -0.218431
     7  H    0.345774
     8  H    0.037255
     9  C   -0.168439
    10  H    0.227570
    11  H    0.026546
    12  H    0.048870
    13  H    0.037158
    14  H    0.036986
 Sum of Mulliken charges =   0.00000

 Dipole moment (field-independent basis, Debye):
    X=              0.5750    Y=             -0.0470    Z=             -0.3029  Tot=              0.6516
 Quadrupole moment (field-independent basis, Debye-Ang):
   XX=            -32.0637   YY=            -29.3762   ZZ=            -28.4126
   XY=              1.6757   XZ=              1.6904   YZ=              1.0748

 Normal termination of Gaussian 09 at Wed Aug 26 13:32:00 2020.
