 Gaussian 09, Revision D.01,
 Gaussian 09:  ES64L-G09RevD.01 24-Apr-2013

 --------------------
 #p B2PLYPD3/Def2QZVP
 --------------------

 ----------
 butane_opt
 ----------
 Symbolic Z-matrix:
 Charge =  0 Multiplicity = 1

                         Standard orientation:
 ---------------------------------------------------------------------
 Center     Atomic      Atomic             Coordinates (Angstroms)
 Number     Number       Type             X           Y           Z
 ---------------------------------------------------------------------
      1          6           0        2.053834   -0.148204    0.042456
      2          6           0        0.475822    0.624499    0.034004
      3          1           0        2.740417    0.486150   -0.737493
      4          1           0        2.056012   -0.383323   -0.683266
      5          1           0        2.664394   -1.163599    1.229548
      6          6           0       -0.637814   -0.463529   -0.076075
      7          1           0        0.521740    1.054155   -0.749746
      8          1           0        0.332858    1.353599    1.003832
      9          6           0       -1.906893    0.055648    0.044130
     10          1           0       -0.659084   -1.111372    0.722116
     11          1           0       -0.424145   -1.087439   -1.094615
     12          1           0       -2.320830    0.633459    0.856500
     13          1           0       -2.657631   -0.652867   -0.078671
     14          1           0       -2.163432    0.460756   -0.735298
 ---------------------------------------------------------------------

 SCF Done:  E(RB2PLYPD3) =  -157.684254975     A.U. after   12 cycles
 E2(B2PLYPD3) =    -0.2537200546D+00 E(B2PLYPD3) =    -0.15793797502939D+03

 The electronic state is 1-A.
 Alpha  occ. eigenvalues --  -10.62798 -10.62396 -10.60490 -10.55975  -0.93717
 Alpha  occ. eigenvalues --   -0.87625  -0.78079  -0.69412  -0.55077  -0.50553
 Alpha  occ. eigenvalues --   -0.49367  -0.47383  -0.40890  -0.38898  -0.38245
 Alpha  occ. eigenvalues --   -0.35460  -0.34744
 Alpha virt. eigenvalues --    0.01257   0.05709   0.06902   0.07971   0.09901
 Alpha virt. eigenvalues --    0.10329   0.12245   0.12882   0.14647   0.15798
 Alpha virt. eigenvalues --    0.16429   0.17346   0.18280   0.18710   0.20984

 Mulliken charges:
               1
     1  C   -0.549880
     2  C   -0.136414
     3  H    0.012558
     4  H    0.421270
     5  H    0.054865
     6  C   -0.017811
     7  H    0.136415
     8  H    0.038187
     9  C   -0.123604
    10  H    0.054288
    11  H    0.010560
    12  H    0.036445
    13  H    0.019137
    14  H    0.043983
 Sum of Mulliken charges =   0.00000

 Dipole moment (field-independent basis, Debye):
    X=             -0.8834    Y=             -0.1255    Z=             -0.7992  Tot=              1.1978
 Quadrupole moment (field-independent basis, Debye-Ang):
   XX=            -30.4350   YY=            -29.7418   ZZ=            -26.9479
   XY=             -0.9671   XZ=             -1.6818   YZ=             -0.7189

 Normal termination of Gaussian 09 at Wed Aug 26 19:20:27 2020.
