 Gaussian 09, Revision D.01,
 Gaussian 09:  ES64L-G09RevD.01 24-Apr-2013

 --------------------
 #p B2PLYPD3/Def2QZVP
 --------------------

 ----------
 butane_opt
 ----------
 Symbolic Z-matrix:
 Charge =  0 Multiplicity = 1

                         Standard orientation:
 ---------------------------------------------------------------------
 Center     Atomic      Atomic             Coordinates (Angstroms)
 Number     Number       Type             X           Y           Z
 ---------------------------------------------------------------------
      1          6           0       -1.921702    0.097938    0.071029
      2          6           0       -0.598320   -0.481683   -0.049918
      3          1           0       -2.770466   -0.745514   -0.163601
      4          1           0       -1.901732    0.408268   -0.634451
      5          1           0       -2.000771    0.938931    1.094325
      6          6           0        0.520082    0.525252   -0.068478
      7          1           0       -0.466600   -1.208764   -1.008923
      8          1           0       -0.256488   -0.829334    0.677557
      9          6           0        1.966206   -0.124697    0.051737
     10          1           0        0.416981    1.038419    0.723763
     11          1           0        0.342037    1.344349   -1.043327
     12          1           0        2.044927   -1.007398    1.043504
     13          1           0        2.683687    0.517101   -0.163443
     14          1           0        2.110828   -0.556923   -0.551624
 ---------------------------------------------------------------------

 SCF Done:  E(RB2PLYPD3) =  -157.665535525     A.U. after   11 cycles
 E2(B2PLYPD3) =    -0.2487774009D+00 E(B2PLYPD3) =    -0.15791431292614D+03

 The electronic state is 1-A.
 Alpha  occ. eigenvalues --  -10.61071 -10.59418 -10.58415 -10.58081  -0.95193
 Alpha  occ. eigenvalues --   -0.87851  -0.79094  -0.68707  -0.55089  -0.50235
 Alpha  occ. eigenvalues --   -0.49674  -0.46756  -0.44382  -0.42493  -0.39055
 Alpha  occ. eigenvalues --   -0.37695  -0.35651
 Alpha virt. eigenvalues --    0.05497   0.06019   0.07583   0.08077   0.10618
 Alpha virt. eigenvalues --    0.12144   0.12360   0.13574   0.14318   0.15452
 Alpha virt. eigenvalues --    0.15950   0.16274   0.18995   0.19606   0.22332

 Mulliken charges:
               1
     1  C   -0.427508
     2  C   -0.128530
     3  H    0.044033
     4  H    0.326124
     5  H    0.046540
     6  C   -0.048240
     7  H    0.010597
     8  H    0.147681
     9  C   -0.392642
    10  H    0.082539
    11  H   -0.021623
    12  H    0.029918
    13  H    0.046653
    14  H    0.284457
 Sum of Mulliken charges =   0.00000

 Dipole moment (field-independent basis, Debye):
    X=              0.3197    Y=             -0.0986    Z=             -0.2704  Tot=              0.4302
 Quadrupole moment (field-independent basis, Debye-Ang):
   XX=            -29.5038   YY=            -29.1781   ZZ=            -27.9063
   XY=             -0.1678   XZ=             -0.2249   YZ=              0.5332

 Normal termination of Gaussian 09 at Wed Aug 26 22:50:15 2020.
