 Gaussian 09, Revision D.01,
 Gaussian 09:  ES64L-G09RevD.01 24-Apr-2013

 --------------------
 #p B2PLYPD3/Def2QZVP
 --------------------

 ----------
 butane_opt
 ----------
 Symbolic Z-matrix:
 Charge =  0 Multiplicity = 1

                         Standard orientation:
 ---------------------------------------------------------------------
 Center     Atomic      Atomic             Coordinates (Angstroms)
 Number     Number       Type             X           Y           Z
 ---------------------------------------------------------------------
      1          6           0        1.857737    0.059221    0.000316
      2          6           0        0.619822   -0.481649    0.024952
      3          1           0        2.740145   -0.718184   -0.052900
      4          1           0        1.731798    0.952273    1.037469
      5          1           0        2.188897    0.594516   -0.756493
      6          6           0       -0.517721    0.540392    0.072557
      7          1           0        0.444490   -0.870314    0.606930
      8          1           0        0.413644   -1.163405   -0.952929
      9          6           0       -1.997197   -0.135911   -0.006367
     10          1           0       -0.214869    1.368374   -0.866486
     11          1           0       -0.428981    1.011982    0.716461
     12          1           0       -1.615193   -0.614980   -0.753228
     13          1           0       -2.713176    0.639345   -0.468905
     14          1           0       -2.322600   -1.091929    0.941332
 ---------------------------------------------------------------------

 SCF Done:  E(RB2PLYPD3) =  -157.667213690     A.U. after   11 cycles
 E2(B2PLYPD3) =    -0.2513237019D+00 E(B2PLYPD3) =    -0.15791853739151D+03

 The electronic state is 1-A.
 Alpha  occ. eigenvalues --  -10.62519 -10.61626 -10.60017 -10.57109  -0.96386
 Alpha  occ. eigenvalues --   -0.84816  -0.74977  -0.72445  -0.56395  -0.53085
 Alpha  occ. eigenvalues --   -0.49393  -0.45737  -0.45270  -0.39013  -0.38554
 Alpha  occ. eigenvalues --   -0.36109  -0.35560
 Alpha virt. eigenvalues --    0.04969   0.05323   0.07530   0.07993   0.10466
 Alpha virt. eigenvalues --    0.11371   0.12186   0.12958   0.13927   0.15374
 Alpha virt. eigenvalues --    0.15762   0.15927   0.19173   0.19978   0.21232

 Mulliken charges:
               1
     1  C   -0.103064
     2  C   -0.403777
     3  H    0.037051
     4  H   -0.003387
     5  H    0.061292
     6  C   -0.224262
     7  H    0.407025
     8  H    0.012772
     9  C   -0.229833
    10  H    0.002963
    11  H    0.226530
    12  H    0.113370
    13  H    0.063604
    14  H    0.039717
 Sum of Mulliken charges =   0.00000

 Dipole moment (field-independent basis, Debye):
    X=              0.2191    Y=             -0.1837    Z=             -0.2386  Tot=              0.3724
 Quadrupole moment (field-independent basis, Debye-Ang):
   XX=            -30.4103   YY=            -29.0425   ZZ=            -28.6865
   XY=             -0.5430   XZ=             -1.2871   YZ=             -0.6018

 Normal termination of Gaussian 09 at Wed Aug 26 12:44:15 2020.
