 Gaussian 09, Revision D.01,
 Gaussian 09:  ES64L-G09RevD.01 24-Apr-2013

 --------------------
 #p B2PLYPD3/Def2QZVP
 --------------------

 ----------
 butane_opt
 ----------
 Symbolic Z-matrix:
 Charge =  0 Multiplicity = 1

                         Standard orientation:
 ---------------------------------------------------------------------
 Center     Atomic      Atomic             Coordinates (Angstroms)
 Number     Number       Type             X           Y           Z
 ---------------------------------------------------------------------
      1          6           0       -1.926452   -0.141655   -0.087498
      2          6           0       -0.529053    0.566756    0.013519
      3          1           0       -2.607765    0.360227   -0.172767
      4          1           0       -2.416875   -0.575651    0.906149
      5          1           0       -2.086027   -0.714947   -0.860218
      6          6           0        0.557806   -0.426783    0.098207
      7          1           0       -0.252893    1.173373    0.853270
      8          1           0       -0.233909    1.141731   -0.823418
      9          6           0        1.855768    0.050090   -0.108727
     10          1           0        0.539308   -0.811496   -0.380917
     11          1           0        0.323718   -1.327080    1.247177
     12          1           0        1.689069    0.243625   -0.723062
     13          1           0        2.868515   -0.965955   -0.486771
     14          1           0        2.428445    1.185727    0.947548
 ---------------------------------------------------------------------

 SCF Done:  E(RB2PLYPD3) =  -157.113979029     A.U. after   12 cycles
 E2(B2PLYPD3) =    -0.2533076369D+00 E(B2PLYPD3) =    -0.15736728666557D+03

 The electronic state is 1-A.
 Alpha  occ. eigenvalues --  -10.64043 -10.61478 -10.60004 -10.58070  -1.01980
 Alpha  occ. eigenvalues --   -0.88494  -0.79384  -0.74080  -0.56770  -0.51713
 Alpha  occ. eigenvalues --   -0.51068  -0.48227  -0.43160  -0.41140  -0.40776
 Alpha  occ. eigenvalues --   -0.35334  -0.34306
 Alpha virt. eigenvalues --    0.01708   0.05901   0.06456   0.07254   0.09632
 Alpha virt. eigenvalues --    0.10177   0.12451   0.13031   0.14829   0.15410
 Alpha virt. eigenvalues --    0.15788   0.16500   0.18139   0.19371   0.20676

 Mulliken charges:
               1
     1  C   -0.189751
     2  C    0.023603
     3  H    0.116056
     4  H    0.029259
     5  H    0.035132
     6  C   -0.718207
     7  H    0.064695
     8  H    0.038805
     9  C   -0.715778
    10  H    0.658512
    11  H   -0.012187
    12  H    0.620458
    13  H    0.039242
    14  H    0.010161
 Sum of Mulliken charges =   0.00000

 Dipole moment (field-independent basis, Debye):
    X=             -0.9556    Y=              0.3453    Z=             -1.1009  Tot=              1.4981
 Quadrupole moment (field-independent basis, Debye-Ang):
   XX=            -29.1987   YY=            -29.9487   ZZ=            -28.2279
   XY=             -0.2243   XZ=             -0.7350   YZ=              1.2143

 Normal termination of Gaussian 09 at Wed Aug 26 23:01:05 2020.
