 Gaussian 09, Revision D.01,
 Gaussian 09:  ES64L-G09RevD.01 24-Apr-2013

 --------------------
 #p B2PLYPD3/Def2QZVP
 --------------------

 ----------
 butane_opt
 ----------
 Symbolic Z-matrix:
 Charge =  0 Multiplicity = 1

                         Standard orientation:
 ---------------------------------------------------------------------
 Center     Atomic      Atomic             Coordinates (Angstroms)
 Number     Number       Type             X           Y           Z
 ---------------------------------------------------------------------
      1          6           0       -1.969425    0.121629   -0.216150
      2          6           0       -0.616072   -0.562923    0.266981
      3          1           0       -2.835399   -0.703810   -0.635085
      4          1           0       -1.973768    0.531109   -0.837456
      5          1           0       -2.639689    1.121122    0.770781
      6          6           0        0.579538    0.500583    0.098997
      7          1           0       -0.261566   -0.938098   -0.358164
      8          1           0       -0.519511   -1.191336    1.245255
      9          6           0        2.029726   -0.122894   -0.132946
     10          1           0        0.583585    1.476861    1.102308
     11          1           0        0.345805    0.841698   -0.816559
     12          1           0        2.086911   -0.723970    0.791237
     13          1           0        2.960471    0.806689   -0.344067
     14          1           0        2.110558   -0.838638   -1.019540
 ---------------------------------------------------------------------

 SCF Done:  E(RB2PLYPD3) =  -157.690705783     A.U. after   11 cycles
 E2(B2PLYPD3) =    -0.2535141602D+00 E(B2PLYPD3) =    -0.15794421994341D+03

 The electronic state is 1-A.
 Alpha  occ. eigenvalues --  -10.64230 -10.63975 -10.63430 -10.60879  -0.93039
 Alpha  occ. eigenvalues --   -0.83653  -0.76980  -0.66944  -0.54627  -0.51359
 Alpha  occ. eigenvalues --   -0.46313  -0.45906  -0.43590  -0.39490  -0.38286
 Alpha  occ. eigenvalues --   -0.37020  -0.34409
 Alpha virt. eigenvalues --    0.03724   0.05016   0.07497   0.08362   0.09077
 Alpha virt. eigenvalues --    0.10387   0.11823   0.12097   0.14046   0.15309
 Alpha virt. eigenvalues --    0.15674   0.16183   0.18753   0.18900   0.19438

 Mulliken charges:
               1
     1  C   -0.450611
     2  C   -0.303560
     3  H    0.039967
     4  H    0.345470
     5  H    0.005294
     6  C   -0.098788
     7  H    0.327643
     8  H    0.055754
     9  C   -0.175648
    10  H    0.010957
    11  H    0.082942
    12  H    0.069019
    13  H    0.049574
    14  H    0.041987
 Sum of Mulliken charges =   0.00000

 Dipole moment (field-independent basis, Debye):
    X=              0.4136    Y=             -0.5226    Z=             -0.8493  Tot=              1.0796
 Quadrupole moment (field-independent basis, Debye-Ang):
   XX=            -31.9339   YY=            -29.8630   ZZ=            -28.3013
   XY=              0.0321   XZ=              0.7172   YZ=             -0.3178

 Normal termination of Gaussian 09 at Wed Aug 26 13:51:57 2020.
