 Gaussian 09, Revision D.01,
 Gaussian 09:  ES64L-G09RevD.01 24-Apr-2013

 --------------------
 #p B2PLYPD3/Def2QZVP
 --------------------

 ----------
 butane_opt
 ----------
 Symbolic Z-matrix:
 Charge =  0 Multiplicity = 1

                         Standard orientation:
 ---------------------------------------------------------------------
 Center     Atomic      Atomic             Coordinates (Angstroms)
 Number     Number       Type             X           Y           Z
 ---------------------------------------------------------------------
      1          6           0        2.074890   -0.167188   -0.118891
      2          6           0        0.575203    0.574078    0.077731
      3          1           0        2.861574    0.480440   -0.184087
      4          1           0        2.049963   -1.236742   -1.047293
      5          1           0        2.343918   -0.621027    0.642000
      6          6           0       -0.699859   -0.370171    0.284190
      7          1           0        0.481633    1.122014   -0.798567
      8          1           0        0.266936    1.542190    0.880027
      9          6           0       -1.955359    0.009419   -0.203092
     10          1           0       -0.632052   -1.419237    1.675642
     11          1           0       -0.513103   -0.687119   -0.310202
     12          1           0       -2.459467    1.036451    0.662256
     13          1           0       -2.670293   -0.803673   -0.907188
     14          1           0       -1.698359    0.309874   -0.852219
 ---------------------------------------------------------------------

 SCF Done:  E(RB2PLYPD3) =  -157.421954424     A.U. after   12 cycles
 E2(B2PLYPD3) =    -0.2569299129D+00 E(B2PLYPD3) =    -0.15767888433667D+03

 The electronic state is 1-A.
 Alpha  occ. eigenvalues --  -10.65518 -10.63156 -10.62282 -10.61961  -0.99597
 Alpha  occ. eigenvalues --   -0.85343  -0.77486  -0.69997  -0.55577  -0.51142
 Alpha  occ. eigenvalues --   -0.48063  -0.45679  -0.44392  -0.40767  -0.39100
 Alpha  occ. eigenvalues --   -0.34614  -0.32520
 Alpha virt. eigenvalues --    0.02161   0.04417   0.04651   0.07650   0.09207
 Alpha virt. eigenvalues --    0.10346   0.11141   0.13020   0.13420   0.14329
 Alpha virt. eigenvalues --    0.14849   0.16173   0.16414   0.18142   0.20524

 Mulliken charges:
               1
     1  C   -0.153167
     2  C   -0.076826
     3  H    0.065402
     4  H    0.018987
     5  H    0.096732
     6  C   -0.637276
     7  H    0.058767
     8  H    0.018563
     9  C   -0.463626
    10  H   -0.045678
    11  H    0.641103
    12  H    0.022962
    13  H    0.062155
    14  H    0.391901
 Sum of Mulliken charges =   0.00000

 Dipole moment (field-independent basis, Debye):
    X=              0.7373    Y=              0.3700    Z=             -1.3680  Tot=              1.5975
 Quadrupole moment (field-independent basis, Debye-Ang):
   XX=            -29.3500   YY=            -30.2609   ZZ=            -29.6737
   XY=              0.0046   XZ=              2.1656   YZ=              1.1805

 Normal termination of Gaussian 09 at Wed Aug 26 20:11:21 2020.
