 Gaussian 09, Revision D.01,
 Gaussian 09:  ES64L-G09RevD.01 24-Apr-2013

 --------------------
 #p B2PLYPD3/Def2QZVP
 --------------------

 ----------
 butane_opt
 ----------
 Symbolic Z-matrix:
 Charge =  0 Multiplicity = 1

                         Standard orientation:
 ---------------------------------------------------------------------
 Center     Atomic      Atomic             Coordinates (Angstroms)
 Number     Number       Type             X           Y           Z
 ---------------------------------------------------------------------
      1          6           0       -2.001210   -0.205126   -0.110187
      2          6           0       -0.456471    0.538025    0.060049
      3          1           0       -2.760620    0.569232   -0.268619
      4          1           0       -2.130432   -0.444586    0.626476
      5          1           0       -2.192930   -1.119794   -0.906289
      6          6           0        0.615337   -0.378436    0.288447
      7          1           0       -0.543311    1.644039    0.922911
      8          1           0       -0.251324    0.735963   -0.664238
      9          6           0        1.854867    0.069198   -0.190679
     10          1           0        0.458916   -0.852453   -0.317734
     11          1           0        0.624262   -1.056602    1.513327
     12          1           0        1.528114    0.708731   -1.226120
     13          1           0        2.759012   -1.084404   -0.523123
     14          1           0        2.433175    0.757912    0.557622
 ---------------------------------------------------------------------

 SCF Done:  E(RB2PLYPD3) =  -157.584582000     A.U. after   11 cycles
 E2(B2PLYPD3) =    -0.2528866090D+00 E(B2PLYPD3) =    -0.15783746860945D+03

 The electronic state is 1-A.
 Alpha  occ. eigenvalues --  -10.66137 -10.61490 -10.59426 -10.59365  -0.99176
 Alpha  occ. eigenvalues --   -0.84913  -0.76954  -0.68546  -0.56442  -0.49936
 Alpha  occ. eigenvalues --   -0.47947  -0.47149  -0.44746  -0.41554  -0.37490
 Alpha  occ. eigenvalues --   -0.36293  -0.35480
 Alpha virt. eigenvalues --    0.03781   0.05774   0.06624   0.07242   0.09581
 Alpha virt. eigenvalues --    0.11005   0.12053   0.13501   0.14286   0.14854
 Alpha virt. eigenvalues --    0.15030   0.15849   0.18537   0.19313   0.20500

 Mulliken charges:
               1
     1  C   -0.369519
     2  C   -0.371299
     3  H    0.055147
     4  H    0.279892
     5  H    0.037987
     6  C   -0.350174
     7  H    0.007748
     8  H    0.362313
     9  C   -0.164573
    10  H    0.385612
    11  H    0.008690
    12  H    0.040089
    13  H    0.015525
    14  H    0.062562
 Sum of Mulliken charges =   0.00000

 Dipole moment (field-independent basis, Debye):
    X=             -0.4439    Y=             -0.0001    Z=             -0.2478  Tot=              0.5084
 Quadrupole moment (field-independent basis, Debye-Ang):
   XX=            -30.4580   YY=            -29.5536   ZZ=            -28.8799
   XY=              0.4138   XZ=              0.3522   YZ=              0.4517

 Normal termination of Gaussian 09 at Wed Aug 26 14:39:00 2020.
