 Gaussian 09, Revision D.01,
 Gaussian 09:  ES64L-G09RevD.01 24-Apr-2013

 --------------------
 #p B2PLYPD3/Def2QZVP
 --------------------

 ----------
 butane_opt
 ----------
 Symbolic Z-matrix:
 Charge =  0 Multiplicity = 1

                         Standard orientation:
 ---------------------------------------------------------------------
 Center     Atomic      Atomic             Coordinates (Angstroms)
 Number     Number       Type             X           Y           Z
 ---------------------------------------------------------------------
      1          6           0       -1.966641    0.110287    0.038230
      2          6           0       -0.552677   -0.501484    0.008007
      3          1           0       -2.794032   -0.674384   -0.403668
      4          1           0       -1.885436    0.354503   -0.691840
      5          1           0       -2.358516    1.091659    1.139453
      6          6           0        0.583398    0.549064   -0.159198
      7          1           0       -0.665886   -1.162806   -0.761785
      8          1           0       -0.433776   -1.132223    0.902056
      9          6           0        1.933599   -0.122533    0.078519
     10          1           0        0.491925    1.204498    0.676784
     11          1           0        0.492911    1.071979   -0.945757
     12          1           0        2.107017   -0.768025    1.050374
     13          1           0        2.706672    0.545305   -0.087384
     14          1           0        2.353044   -0.742511   -0.671577
 ---------------------------------------------------------------------

 SCF Done:  E(RB2PLYPD3) =  -157.859998483     A.U. after   11 cycles
 E2(B2PLYPD3) =    -0.2494022427D+00 E(B2PLYPD3) =    -0.15810940072530D+03

 The electronic state is 1-A.
 Alpha  occ. eigenvalues --  -10.60964 -10.60319 -10.59740 -10.59617  -0.92893
 Alpha  occ. eigenvalues --   -0.86000  -0.74874  -0.69256  -0.55026  -0.49865
 Alpha  occ. eigenvalues --   -0.48493  -0.46246  -0.43568  -0.39661  -0.39122
 Alpha  occ. eigenvalues --   -0.37463  -0.36054
 Alpha virt. eigenvalues --    0.04467   0.06137   0.07669   0.08553   0.10278
 Alpha virt. eigenvalues --    0.11441   0.12524   0.13093   0.14472   0.15342
 Alpha virt. eigenvalues --    0.16068   0.16764   0.18870   0.19671   0.21593

 Mulliken charges:
               1
     1  C   -0.503606
     2  C   -0.012918
     3  H    0.032078
     4  H    0.360147
     5  H    0.036797
     6  C   -0.053229
     7  H    0.044318
     8  H    0.032664
     9  C   -0.123587
    10  H    0.043728
    11  H    0.051439
    12  H    0.042844
    13  H    0.032890
    14  H    0.016435
 Sum of Mulliken charges =   0.00000

 Dipole moment (field-independent basis, Debye):
    X=              0.5140    Y=              0.0559    Z=             -0.7049  Tot=              0.8742
 Quadrupole moment (field-independent basis, Debye-Ang):
   XX=            -30.3229   YY=            -28.9255   ZZ=            -27.8129
   XY=              0.3139   XZ=              0.6434   YZ=              0.1762

 Normal termination of Gaussian 09 at Wed Aug 26 23:53:11 2020.
