 Gaussian 09, Revision D.01,
 Gaussian 09:  ES64L-G09RevD.01 24-Apr-2013

 --------------------
 #p B2PLYPD3/Def2QZVP
 --------------------

 ----------
 butane_opt
 ----------
 Symbolic Z-matrix:
 Charge =  0 Multiplicity = 1

                         Standard orientation:
 ---------------------------------------------------------------------
 Center     Atomic      Atomic             Coordinates (Angstroms)
 Number     Number       Type             X           Y           Z
 ---------------------------------------------------------------------
      1          6           0       -1.932334    0.157504   -0.215456
      2          6           0       -0.553593   -0.542826    0.208940
      3          1           0       -2.675527   -0.533827   -0.760761
      4          1           0       -1.525537    0.323036   -0.696524
      5          1           0       -2.616607    1.064457    0.955703
      6          6           0        0.560715    0.419165    0.141529
      7          1           0       -0.014873   -1.125702   -0.476601
      8          1           0       -0.775884   -1.428445    1.198165
      9          6           0        1.943135   -0.086062   -0.078557
     10          1           0        0.418512    1.053187    1.055976
     11          1           0        0.127724    1.386023   -0.895093
     12          1           0        2.238130   -0.479100    0.530320
     13          1           0        2.745214    0.891176   -0.115724
     14          1           0        1.971316   -0.837492   -1.134198
 ---------------------------------------------------------------------

 SCF Done:  E(RB2PLYPD3) =  -157.425091019     A.U. after   12 cycles
 E2(B2PLYPD3) =    -0.2579045282D+00 E(B2PLYPD3) =    -0.15768299554688D+03

 The electronic state is 1-A.
 Alpha  occ. eigenvalues --  -10.64987 -10.63576 -10.62112 -10.61761  -0.95716
 Alpha  occ. eigenvalues --   -0.88608  -0.77630  -0.65145  -0.55539  -0.52473
 Alpha  occ. eigenvalues --   -0.48361  -0.45148  -0.42557  -0.39873  -0.37846
 Alpha  occ. eigenvalues --   -0.35794  -0.33035
 Alpha virt. eigenvalues --    0.02284   0.04042   0.05956   0.07803   0.09007
 Alpha virt. eigenvalues --    0.10324   0.11578   0.12802   0.13421   0.15079
 Alpha virt. eigenvalues --    0.15527   0.16070   0.17716   0.18627   0.20309

 Mulliken charges:
               1
     1  C   -0.716380
     2  C   -0.055687
     3  H    0.083614
     4  H    0.589481
     5  H    0.039608
     6  C   -0.011789
     7  H    0.045048
     8  H    0.013279
     9  C   -0.368756
    10  H    0.043822
    11  H   -0.013232
    12  H    0.261019
    13  H    0.050551
    14  H    0.039422
 Sum of Mulliken charges =   0.00000

 Dipole moment (field-independent basis, Debye):
    X=              0.5269    Y=             -0.3533    Z=              0.1016  Tot=              0.6425
 Quadrupole moment (field-independent basis, Debye-Ang):
   XX=            -29.3078   YY=            -30.4066   ZZ=            -29.1468
   XY=             -0.0158   XZ=              0.6703   YZ=              1.0890

 Normal termination of Gaussian 09 at Wed Aug 26 14:46:09 2020.
