 Gaussian 09, Revision D.01,
 Gaussian 09:  ES64L-G09RevD.01 24-Apr-2013

 --------------------
 #p B2PLYPD3/Def2QZVP
 --------------------

 ----------
 butane_opt
 ----------
 Symbolic Z-matrix:
 Charge =  0 Multiplicity = 1

                         Standard orientation:
 ---------------------------------------------------------------------
 Center     Atomic      Atomic             Coordinates (Angstroms)
 Number     Number       Type             X           Y           Z
 ---------------------------------------------------------------------
      1          6           0       -2.036756   -0.161725   -0.132961
      2          6           0       -0.477545    0.595555    0.239504
      3          1           0       -2.855406    0.637806   -0.469423
      4          1           0       -2.816273   -1.023405    0.793990
      5          1           0       -2.027269   -0.733137   -1.075309
      6          6           0        0.630803   -0.452316    0.061626
      7          1           0       -0.427382    1.500944    1.316469
      8          1           0       -0.506486    0.985924   -0.480169
      9          6           0        1.997445    0.115884   -0.144319
     10          1           0        0.343560   -1.057070   -0.679812
     11          1           0        0.801647   -1.355580    1.070886
     12          1           0        1.913668    0.982013   -1.248638
     13          1           0        2.893376   -0.826008    0.113427
     14          1           0        1.996882    0.304128    0.515475
 ---------------------------------------------------------------------

 SCF Done:  E(RB2PLYPD3) =  -157.532034101     A.U. after   12 cycles
 E2(B2PLYPD3) =    -0.2567501256D+00 E(B2PLYPD3) =    -0.15778878422655D+03

 The electronic state is 1-A.
 Alpha  occ. eigenvalues --  -10.66446 -10.64262 -10.63134 -10.61463  -0.94711
 Alpha  occ. eigenvalues --   -0.85591  -0.73350  -0.68868  -0.53665  -0.48713
 Alpha  occ. eigenvalues --   -0.46844  -0.45575  -0.41671  -0.38504  -0.38332
 Alpha  occ. eigenvalues --   -0.36802  -0.35436
 Alpha virt. eigenvalues --    0.03733   0.04381   0.05883   0.06777   0.09478
 Alpha virt. eigenvalues --    0.10185   0.11485   0.12544   0.13366   0.13837
 Alpha virt. eigenvalues --    0.15308   0.15866   0.17853   0.19098   0.19784

 Mulliken charges:
               1
     1  C   -0.171804
     2  C   -0.332109
     3  H    0.036847
     4  H    0.020616
     5  H    0.062660
     6  C    0.024982
     7  H    0.042624
     8  H    0.302694
     9  C   -0.677641
    10  H    0.071209
    11  H   -0.020737
    12  H    0.053878
    13  H    0.048206
    14  H    0.538575
 Sum of Mulliken charges =   0.00000

 Dipole moment (field-independent basis, Debye):
    X=              0.0608    Y=              0.3876    Z=             -0.6246  Tot=              0.7376
 Quadrupole moment (field-independent basis, Debye-Ang):
   XX=            -31.8644   YY=            -29.6809   ZZ=            -28.7495
   XY=             -0.6682   XZ=              2.1460   YZ=             -0.1394

 Normal termination of Gaussian 09 at Wed Aug 26 16:34:16 2020.
