 Gaussian 09, Revision D.01,
 Gaussian 09:  ES64L-G09RevD.01 24-Apr-2013

 --------------------
 #p B2PLYPD3/Def2QZVP
 --------------------

 ----------
 butane_opt
 ----------
 Symbolic Z-matrix:
 Charge =  0 Multiplicity = 1

                         Standard orientation:
 ---------------------------------------------------------------------
 Center     Atomic      Atomic             Coordinates (Angstroms)
 Number     Number       Type             X           Y           Z
 ---------------------------------------------------------------------
      1          6           0        1.983826   -0.189856   -0.080397
      2          6           0        0.519398    0.545242    0.040038
      3          1           0        2.755067    0.461494   -0.723813
      4          1           0        1.941287   -0.575422   -0.558952
      5          1           0        2.656030   -0.956795    0.975562
      6          6           0       -0.645618   -0.414019    0.118222
      7          1           0        0.527843    0.734041   -0.620032
      8          1           0        0.473217    1.697141    1.054140
      9          6           0       -1.951375    0.066394   -0.051054
     10          1           0       -0.644684   -0.834117    0.995368
     11          1           0       -0.491531   -0.984156   -0.655455
     12          1           0       -1.993465    0.533250    0.633885
     13          1           0       -2.807384   -0.782183   -0.265808
     14          1           0       -1.853769    0.660183   -0.995749
 ---------------------------------------------------------------------

 SCF Done:  E(RB2PLYPD3) =  -157.196287440     A.U. after   12 cycles
 E2(B2PLYPD3) =    -0.2504301570D+00 E(B2PLYPD3) =    -0.15744671759674D+03

 The electronic state is 1-A.
 Alpha  occ. eigenvalues --  -10.62093 -10.62004 -10.57822 -10.57130  -0.97388
 Alpha  occ. eigenvalues --   -0.90393  -0.80691  -0.70848  -0.59737  -0.50993
 Alpha  occ. eigenvalues --   -0.50165  -0.47040  -0.44631  -0.40459  -0.38999
 Alpha  occ. eigenvalues --   -0.38503  -0.35019
 Alpha virt. eigenvalues --    0.04175   0.06001   0.06400   0.08836   0.10233
 Alpha virt. eigenvalues --    0.10950   0.11313   0.12628   0.14957   0.15242
 Alpha virt. eigenvalues --    0.16023   0.16687   0.17974   0.19288   0.20049

 Mulliken charges:
               1
     1  C   -0.797232
     2  C   -0.625075
     3  H    0.069983
     4  H    0.625084
     5  H    0.044589
     6  C    0.011873
     7  H    0.595800
     8  H   -0.004189
     9  C   -0.259653
    10  H    0.052980
    11  H    0.040382
    12  H    0.175403
    13  H    0.044146
    14  H    0.025909
 Sum of Mulliken charges =   0.00000

 Dipole moment (field-independent basis, Debye):
    X=             -0.2995    Y=             -0.5361    Z=             -0.8033  Tot=              1.0111
 Quadrupole moment (field-independent basis, Debye-Ang):
   XX=            -30.2082   YY=            -29.5866   ZZ=            -27.1989
   XY=              0.1747   XZ=             -1.5410   YZ=             -0.0438

 Normal termination of Gaussian 09 at Wed Aug 26 15:39:22 2020.
