 Gaussian 09, Revision D.01,
 Gaussian 09:  ES64L-G09RevD.01 24-Apr-2013

 --------------------
 #p B2PLYPD3/Def2QZVP
 --------------------

 ----------
 butane_opt
 ----------
 Symbolic Z-matrix:
 Charge =  0 Multiplicity = 1

                         Standard orientation:
 ---------------------------------------------------------------------
 Center     Atomic      Atomic             Coordinates (Angstroms)
 Number     Number       Type             X           Y           Z
 ---------------------------------------------------------------------
      1          6           0       -1.987532   -0.181832   -0.111799
      2          6           0       -0.508875    0.534532    0.089144
      3          1           0       -2.870971    0.663804    0.000859
      4          1           0       -2.028617   -0.597231    0.628883
      5          1           0       -2.082984   -0.888875   -1.023486
      6          6           0        0.588008   -0.467355    0.160126
      7          1           0       -0.457995    1.200640    0.746755
      8          1           0       -0.230774    1.036524   -0.781036
      9          6           0        1.914193    0.117738   -0.144271
     10          1           0        0.658721   -0.801585   -0.344832
     11          1           0        0.609953   -1.371306    1.300616
     12          1           0        1.762926    0.410562   -0.959036
     13          1           0        2.712352   -0.719597   -0.524370
     14          1           0        1.892623    1.048563    0.996453
 ---------------------------------------------------------------------

 SCF Done:  E(RB2PLYPD3) =  -157.399723052     A.U. after   12 cycles
 E2(B2PLYPD3) =    -0.2514678651D+00 E(B2PLYPD3) =    -0.15765119091676D+03

 The electronic state is 1-A.
 Alpha  occ. eigenvalues --  -10.62694 -10.60320 -10.59585 -10.59486  -0.98122
 Alpha  occ. eigenvalues --   -0.85852  -0.75780  -0.72910  -0.55693  -0.51870
 Alpha  occ. eigenvalues --   -0.49907  -0.47176  -0.43750  -0.42454  -0.38486
 Alpha  occ. eigenvalues --   -0.35615  -0.34998
 Alpha virt. eigenvalues --    0.03324   0.06218   0.07089   0.08184   0.10325
 Alpha virt. eigenvalues --    0.10951   0.11975   0.13598   0.14445   0.14803
 Alpha virt. eigenvalues --    0.15653   0.16835   0.18488   0.19231   0.20439

 Mulliken charges:
               1
     1  C   -0.283376
     2  C    0.015510
     3  H    0.027923
     4  H    0.181628
     5  H    0.051384
     6  C   -0.810592
     7  H    0.063124
     8  H    0.035324
     9  C   -0.181650
    10  H    0.698634
    11  H   -0.006834
    12  H    0.143382
    13  H    0.036153
    14  H    0.029389
 Sum of Mulliken charges =   0.00000

 Dipole moment (field-independent basis, Debye):
    X=             -0.2703    Y=             -0.0161    Z=             -0.7419  Tot=              0.7898
 Quadrupole moment (field-independent basis, Debye-Ang):
   XX=            -31.2034   YY=            -29.2750   ZZ=            -27.7409
   XY=             -1.0430   XZ=             -2.1156   YZ=              1.3932

 Normal termination of Gaussian 09 at Wed Aug 26 21:44:00 2020.
