 Gaussian 09, Revision D.01,
 Gaussian 09:  ES64L-G09RevD.01 24-Apr-2013

 --------------------
 #p B2PLYPD3/Def2QZVP
 --------------------

 ----------
 butane_opt
 ----------
 Symbolic Z-matrix:
 Charge =  0 Multiplicity = 1

                         Standard orientation:
 ---------------------------------------------------------------------
 Center     Atomic      Atomic             Coordinates (Angstroms)
 Number     Number       Type             X           Y           Z
 ---------------------------------------------------------------------
      1          6           0       -2.094785   -0.147983   -0.033610
      2          6           0       -0.506160    0.615918   -0.035161
      3          1           0       -2.909138    0.487101   -0.020884
      4          1           0       -2.196543   -0.642723    0.831206
      5          1           0       -2.248957   -1.140136   -0.956391
      6          6           0        0.606750   -0.428167    0.271094
      7          1           0       -0.240896    1.414096    0.840023
      8          1           0       -0.410775    1.093717   -1.067065
      9          6           0        1.951550    0.059699   -0.152106
     10          1           0        0.678453   -1.145563   -0.531578
     11          1           0        0.620950   -1.046065    1.249193
     12          1           0        1.416201    0.372904   -0.764289
     13          1           0        2.787292   -0.971904   -0.588973
     14          1           0        2.759282    0.981775    0.707464
 ---------------------------------------------------------------------

 SCF Done:  E(RB2PLYPD3) =  -157.846078704     A.U. after   11 cycles
 E2(B2PLYPD3) =    -0.2554035413D+00 E(B2PLYPD3) =    -0.15810148224486D+03

 The electronic state is 1-A.
 Alpha  occ. eigenvalues --  -10.65809 -10.63671 -10.63242 -10.62604  -0.94720
 Alpha  occ. eigenvalues --   -0.82225  -0.73072  -0.65669  -0.53316  -0.50451
 Alpha  occ. eigenvalues --   -0.48052  -0.43984  -0.42241  -0.39721  -0.39028
 Alpha  occ. eigenvalues --   -0.37008  -0.33524
 Alpha virt. eigenvalues --    0.04163   0.05207   0.07533   0.07692   0.08667
 Alpha virt. eigenvalues --    0.10240   0.12012   0.13340   0.13578   0.14790
 Alpha virt. eigenvalues --    0.15441   0.15982   0.17857   0.19069   0.20101

 Mulliken charges:
               1
     1  C   -0.160963
     2  C   -0.122429
     3  H    0.069656
     4  H    0.073879
     5  H    0.022599
     6  C   -0.044744
     7  H    0.052246
     8  H    0.057617
     9  C   -0.273026
    10  H    0.064937
    11  H    0.038765
    12  H    0.188408
    13  H    0.030285
    14  H    0.002770
 Sum of Mulliken charges =   0.00000

 Dipole moment (field-independent basis, Debye):
    X=             -0.8274    Y=             -0.2752    Z=             -0.0013  Tot=              0.8720
 Quadrupole moment (field-independent basis, Debye-Ang):
   XX=            -31.4934   YY=            -29.6943   ZZ=            -29.2303
   XY=             -1.1275   XZ=             -0.2688   YZ=              0.3740

 Normal termination of Gaussian 09 at Wed Aug 26 09:54:20 2020.
