 Gaussian 09, Revision D.01,
 Gaussian 09:  ES64L-G09RevD.01 24-Apr-2013

 --------------------
 #p B2PLYPD3/Def2QZVP
 --------------------

 ----------
 butane_opt
 ----------
 Symbolic Z-matrix:
 Charge =  0 Multiplicity = 1

                         Standard orientation:
 ---------------------------------------------------------------------
 Center     Atomic      Atomic             Coordinates (Angstroms)
 Number     Number       Type             X           Y           Z
 ---------------------------------------------------------------------
      1          6           0       -1.981920   -0.097628   -0.077438
      2          6           0       -0.652993    0.398789    0.107386
      3          1           0       -2.894874    0.827379   -0.267883
      4          1           0       -2.163877   -0.690080    0.808376
      5          1           0       -1.821426   -0.697628   -0.882594
      6          6           0        0.581218   -0.560079    0.120817
      7          1           0       -0.723693    1.094404    0.939814
      8          1           0       -0.391082    1.318219   -0.808603
      9          6           0        2.034651    0.125682   -0.025613
     10          1           0        0.440735   -1.111213   -0.711937
     11          1           0        0.550950   -1.242276    0.960643
     12          1           0        1.733849    0.740986   -0.847823
     13          1           0        2.584552   -0.382572   -0.980530
     14          1           0        2.799126    0.942196    1.039620
 ---------------------------------------------------------------------

 SCF Done:  E(RB2PLYPD3) =  -157.931098170     A.U. after   11 cycles
 E2(B2PLYPD3) =    -0.2542358196D+00 E(B2PLYPD3) =    -0.15818533399011D+03

 The electronic state is 1-A.
 Alpha  occ. eigenvalues --  -10.65259 -10.62293 -10.62085 -10.61090  -0.92036
 Alpha  occ. eigenvalues --   -0.84076  -0.71932  -0.65922  -0.54633  -0.48902
 Alpha  occ. eigenvalues --   -0.48354  -0.46579  -0.40893  -0.39560  -0.38686
 Alpha  occ. eigenvalues --   -0.35518  -0.34861
 Alpha virt. eigenvalues --    0.03071   0.05023   0.07651   0.07676   0.09863
 Alpha virt. eigenvalues --    0.10941   0.11344   0.12339   0.14013   0.15330
 Alpha virt. eigenvalues --    0.15667   0.16914   0.18397   0.18903   0.19968

 Mulliken charges:
               1
     1  C   -0.159738
     2  C   -0.002415
     3  H    0.046175
     4  H    0.059344
     5  H    0.056705
     6  C   -0.044077
     7  H    0.025481
     8  H   -0.035887
     9  C   -0.234860
    10  H    0.067405
    11  H    0.035406
    12  H    0.076006
    13  H    0.045063
    14  H    0.065392
 Sum of Mulliken charges =   0.00000

 Dipole moment (field-independent basis, Debye):
    X=             -0.3178    Y=             -0.1810    Z=             -0.2135  Tot=              0.4234
 Quadrupole moment (field-independent basis, Debye-Ang):
   XX=            -31.4653   YY=            -30.0189   ZZ=            -28.1301
   XY=              0.3718   XZ=             -0.9138   YZ=              0.6445

 Normal termination of Gaussian 09 at Wed Aug 26 12:02:58 2020.
