 Gaussian 09, Revision D.01,
 Gaussian 09:  ES64L-G09RevD.01 24-Apr-2013

 --------------------
 #p B2PLYPD3/Def2QZVP
 --------------------

 ----------
 butane_opt
 ----------
 Symbolic Z-matrix:
 Charge =  0 Multiplicity = 1

                         Standard orientation:
 ---------------------------------------------------------------------
 Center     Atomic      Atomic             Coordinates (Angstroms)
 Number     Number       Type             X           Y           Z
 ---------------------------------------------------------------------
      1          6           0       -1.968163   -0.078272   -0.190235
      2          6           0       -0.604443    0.388422    0.351993
      3          1           0       -2.765541    0.885868   -0.675341
      4          1           0       -2.626781   -1.060989    0.654076
      5          1           0       -1.535623   -0.519487   -0.936207
      6          6           0        0.606702   -0.525511    0.048172
      7          1           0       -0.712539    1.230426    1.450962
      8          1           0       -0.610191    1.029374   -0.329202
      9          6           0        2.045092    0.175210   -0.086130
     10          1           0        0.201939   -1.060347   -0.939753
     11          1           0        0.659318   -1.329905    0.785185
     12          1           0        1.821430    1.288949   -1.109424
     13          1           0        2.646436   -0.469029   -0.114883
     14          1           0        2.446422    0.246042    0.471790
 ---------------------------------------------------------------------

 SCF Done:  E(RB2PLYPD3) =  -157.542357480     A.U. after   11 cycles
 E2(B2PLYPD3) =    -0.2554697993D+00 E(B2PLYPD3) =    -0.15779782727938D+03

 The electronic state is 1-A.
 Alpha  occ. eigenvalues --  -10.64894 -10.64203 -10.62096 -10.59566  -0.95817
 Alpha  occ. eigenvalues --   -0.90907  -0.76653  -0.66450  -0.53007  -0.50805
 Alpha  occ. eigenvalues --   -0.48352  -0.45210  -0.42118  -0.40184  -0.37314
 Alpha  occ. eigenvalues --   -0.36478  -0.34601
 Alpha virt. eigenvalues --    0.03622   0.04846   0.06772   0.07010   0.09349
 Alpha virt. eigenvalues --    0.10227   0.11218   0.13151   0.14075   0.15250
 Alpha virt. eigenvalues --    0.16172   0.16276   0.17590   0.18875   0.20645

 Mulliken charges:
               1
     1  C   -0.200019
     2  C   -0.117682
     3  H    0.044650
     4  H    0.005222
     5  H    0.112263
     6  C    0.014868
     7  H   -0.003664
     8  H    0.132069
     9  C   -0.587783
    10  H    0.023409
    11  H    0.026705
    12  H    0.043071
    13  H    0.090690
    14  H    0.416202
 Sum of Mulliken charges =   0.00000

 Dipole moment (field-independent basis, Debye):
    X=              0.9081    Y=             -0.1983    Z=             -0.3048  Tot=              0.9782
 Quadrupole moment (field-independent basis, Debye-Ang):
   XX=            -29.7320   YY=            -29.4031   ZZ=            -29.6768
   XY=             -2.1481   XZ=              2.3762   YZ=             -1.3379

 Normal termination of Gaussian 09 at Wed Aug 26 13:00:06 2020.
