 Gaussian 09, Revision D.01,
 Gaussian 09:  ES64L-G09RevD.01 24-Apr-2013

 --------------------
 #p B2PLYPD3/Def2QZVP
 --------------------

 ----------
 butane_opt
 ----------
 Symbolic Z-matrix:
 Charge =  0 Multiplicity = 1

                         Standard orientation:
 ---------------------------------------------------------------------
 Center     Atomic      Atomic             Coordinates (Angstroms)
 Number     Number       Type             X           Y           Z
 ---------------------------------------------------------------------
      1          6           0        1.854997    0.073439   -0.150779
      2          6           0        0.601785   -0.428302    0.234549
      3          1           0        2.786597   -1.040558   -0.621616
      4          1           0        2.397723    1.141527    0.794631
      5          1           0        1.577528    0.295393   -0.877159
      6          6           0       -0.491767    0.557102   -0.010215
      7          1           0        0.506522   -1.193211    1.385532
      8          1           0        0.346239   -0.792353   -0.289565
      9          6           0       -1.997501   -0.155823   -0.099647
     10          1           0       -0.069385    1.024468   -0.722747
     11          1           0       -0.326827    1.301801    0.814335
     12          1           0       -1.847037   -1.088760   -0.803976
     13          1           0       -2.804897    0.600473   -0.181146
     14          1           0       -2.371543   -0.527281    0.658267
 ---------------------------------------------------------------------

 SCF Done:  E(RB2PLYPD3) =  -157.517032704     A.U. after   12 cycles
 E2(B2PLYPD3) =    -0.2536610206D+00 E(B2PLYPD3) =    -0.15777069372416D+03

 The electronic state is 1-A.
 Alpha  occ. eigenvalues --  -10.64159 -10.61583 -10.61171 -10.58639  -1.00193
 Alpha  occ. eigenvalues --   -0.84874  -0.77356  -0.72108  -0.57020  -0.49943
 Alpha  occ. eigenvalues --   -0.48683  -0.48081  -0.42958  -0.41360  -0.38764
 Alpha  occ. eigenvalues --   -0.37021  -0.33927
 Alpha virt. eigenvalues --    0.02350   0.05913   0.07069   0.07866   0.09636
 Alpha virt. eigenvalues --    0.10348   0.12290   0.13133   0.14337   0.14869
 Alpha virt. eigenvalues --    0.15420   0.16335   0.18334   0.19367   0.19851

 Mulliken charges:
               1
     1  C   -0.356276
     2  C   -0.624929
     3  H    0.009929
     4  H    0.036664
     5  H    0.289203
     6  C   -0.086043
     7  H    0.012522
     8  H    0.592240
     9  C   -0.142341
    10  H    0.079638
    11  H    0.028954
    12  H    0.035843
    13  H    0.042058
    14  H    0.082537
 Sum of Mulliken charges =   0.00000

 Dipole moment (field-independent basis, Debye):
    X=             -0.9982    Y=              0.1211    Z=             -0.3840  Tot=              1.0764
 Quadrupole moment (field-independent basis, Debye-Ang):
   XX=            -30.8123   YY=            -29.2134   ZZ=            -29.1153
   XY=              0.6537   XZ=             -1.2342   YZ=              0.8866

 Normal termination of Gaussian 09 at Wed Aug 26 19:24:28 2020.
