 Gaussian 09, Revision D.01,
 Gaussian 09:  ES64L-G09RevD.01 24-Apr-2013

 --------------------
 #p B2PLYPD3/Def2QZVP
 --------------------

 ----------
 butane_opt
 ----------
 Symbolic Z-matrix:
 Charge =  0 Multiplicity = 1

                         Standard orientation:
 ---------------------------------------------------------------------
 Center     Atomic      Atomic             Coordinates (Angstroms)
 Number     Number       Type             X           Y           Z
 ---------------------------------------------------------------------
      1          6           0        1.895812    0.082603   -0.279133
      2          6           0        0.589724   -0.403575    0.244041
      3          1           0        2.745587   -0.724892   -0.036860
      4          1           0        2.269330    0.784101    0.539548
      5          1           0        2.070103    0.542482   -1.103001
      6          6           0       -0.589666    0.571412    0.175239
      7          1           0        0.992465   -1.200418    1.308755
      8          1           0        0.424805   -0.871469   -0.464751
      9          6           0       -2.011858   -0.219589   -0.155251
     10          1           0       -0.465267    0.910397   -0.618813
     11          1           0       -0.476673    1.302829    1.124315
     12          1           0       -1.914864   -0.917261   -0.900651
     13          1           0       -2.711977    0.479261   -0.382053
     14          1           0       -2.237573   -0.490142    0.624130
 ---------------------------------------------------------------------

 SCF Done:  E(RB2PLYPD3) =  -157.854930022     A.U. after   11 cycles
 E2(B2PLYPD3) =    -0.2483251361D+00 E(B2PLYPD3) =    -0.15810325515849D+03

 The electronic state is 1-A.
 Alpha  occ. eigenvalues --  -10.60199 -10.60075 -10.59449 -10.56571  -0.93437
 Alpha  occ. eigenvalues --   -0.85378  -0.76412  -0.68723  -0.56229  -0.52452
 Alpha  occ. eigenvalues --   -0.49894  -0.46838  -0.45615  -0.41808  -0.37968
 Alpha  occ. eigenvalues --   -0.36864  -0.34564
 Alpha virt. eigenvalues --    0.05081   0.06960   0.07946   0.08916   0.10941
 Alpha virt. eigenvalues --    0.11740   0.13053   0.13681   0.14783   0.15559
 Alpha virt. eigenvalues --    0.15860   0.16703   0.18875   0.19570   0.21534

 Mulliken charges:
               1
     1  C   -0.147372
     2  C   -0.204710
     3  H    0.030774
     4  H    0.012367
     5  H    0.056173
     6  C   -0.205985
     7  H    0.017510
     8  H    0.191514
     9  C   -0.202459
    10  H    0.177321
    11  H    0.043305
    12  H    0.054132
    13  H    0.036075
    14  H    0.141357
 Sum of Mulliken charges =   0.00000

 Dipole moment (field-independent basis, Debye):
    X=             -0.2884    Y=              0.0678    Z=             -0.5058  Tot=              0.5862
 Quadrupole moment (field-independent basis, Debye-Ang):
   XX=            -28.9380   YY=            -29.3865   ZZ=            -27.5328
   XY=             -0.2627   XZ=              0.2030   YZ=              0.0332

 Normal termination of Gaussian 09 at Wed Aug 26 23:50:21 2020.
