 Gaussian 09, Revision D.01,
 Gaussian 09:  ES64L-G09RevD.01 24-Apr-2013

 --------------------
 #p B2PLYPD3/Def2QZVP
 --------------------

 ----------
 butane_opt
 ----------
 Symbolic Z-matrix:
 Charge =  0 Multiplicity = 1

                         Standard orientation:
 ---------------------------------------------------------------------
 Center     Atomic      Atomic             Coordinates (Angstroms)
 Number     Number       Type             X           Y           Z
 ---------------------------------------------------------------------
      1          6           0       -1.928810    0.058534    0.107781
      2          6           0       -0.546003   -0.487842   -0.036566
      3          1           0       -2.710166   -0.664992   -0.403676
      4          1           0       -1.745721    0.396373   -0.642111
      5          1           0       -2.266984    1.147924    1.260187
      6          6           0        0.517872    0.562924   -0.107666
      7          1           0       -0.570739   -1.294547   -1.068501
      8          1           0       -0.461345   -1.093934    0.734951
      9          6           0        1.979914   -0.154105    0.082944
     10          1           0        0.440189    1.072364    0.588041
     11          1           0        0.309973    1.431945   -1.132179
     12          1           0        2.209788   -0.947386    1.080703
     13          1           0        2.675682    0.630833   -0.098422
     14          1           0        1.981489   -0.555641   -0.597958
 ---------------------------------------------------------------------

 SCF Done:  E(RB2PLYPD3) =  -157.678857940     A.U. after   11 cycles
 E2(B2PLYPD3) =    -0.2534525784D+00 E(B2PLYPD3) =    -0.15793231051829D+03

 The electronic state is 1-A.
 Alpha  occ. eigenvalues --  -10.62059 -10.61557 -10.61350 -10.59258  -0.94432
 Alpha  occ. eigenvalues --   -0.86714  -0.76523  -0.68404  -0.54951  -0.48643
 Alpha  occ. eigenvalues --   -0.48267  -0.46731  -0.42928  -0.40527  -0.37780
 Alpha  occ. eigenvalues --   -0.36347  -0.35667
 Alpha virt. eigenvalues --    0.02815   0.05062   0.06012   0.07326   0.10624
 Alpha virt. eigenvalues --    0.11365   0.12131   0.12667   0.13847   0.15443
 Alpha virt. eigenvalues --    0.16013   0.16450   0.18524   0.18687   0.20916

 Mulliken charges:
               1
     1  C   -0.354636
     2  C   -0.016873
     3  H    0.050993
     4  H    0.233908
     5  H    0.026469
     6  C   -0.159934
     7  H   -0.012302
     8  H    0.066090
     9  C   -0.389214
    10  H    0.162920
    11  H    0.003862
    12  H    0.051794
    13  H    0.057624
    14  H    0.279299
 Sum of Mulliken charges =   0.00000

 Dipole moment (field-independent basis, Debye):
    X=              0.4932    Y=             -0.1190    Z=             -0.2936  Tot=              0.5862
 Quadrupole moment (field-independent basis, Debye-Ang):
   XX=            -31.1513   YY=            -28.8851   ZZ=            -28.3721
   XY=              0.3104   XZ=              0.9567   YZ=              0.3651

 Normal termination of Gaussian 09 at Wed Aug 26 10:51:25 2020.
