 Gaussian 09, Revision D.01,
 Gaussian 09:  ES64L-G09RevD.01 24-Apr-2013

 --------------------
 #p B2PLYPD3/Def2QZVP
 --------------------

 ----------
 butane_opt
 ----------
 Symbolic Z-matrix:
 Charge =  0 Multiplicity = 1

                         Standard orientation:
 ---------------------------------------------------------------------
 Center     Atomic      Atomic             Coordinates (Angstroms)
 Number     Number       Type             X           Y           Z
 ---------------------------------------------------------------------
      1          6           0       -1.977882    0.090504   -0.026125
      2          6           0       -0.545292   -0.568914    0.050401
      3          1           0       -2.540689   -0.388600   -0.758455
      4          1           0       -1.877032    0.342483   -0.583631
      5          1           0       -2.681894    1.400676    1.339772
      6          6           0        0.635085    0.487172   -0.119126
      7          1           0       -0.479823   -1.317491   -0.797428
      8          1           0       -0.462209   -1.259560    1.077937
      9          6           0        1.929653   -0.108929    0.010897
     10          1           0        0.497869    1.203876    0.739937
     11          1           0        0.568643    1.084767   -1.179457
     12          1           0        1.886177   -0.835832    1.202050
     13          1           0        2.696356    0.688815    0.099074
     14          1           0        2.143213   -0.318131   -0.636075
 ---------------------------------------------------------------------

 SCF Done:  E(RB2PLYPD3) =  -157.222294229     A.U. after   13 cycles
 E2(B2PLYPD3) =    -0.2585344283D+00 E(B2PLYPD3) =    -0.15748082865750D+03

 The electronic state is 1-A.
 Alpha  occ. eigenvalues --  -10.64834 -10.62663 -10.62101 -10.58907  -0.96496
 Alpha  occ. eigenvalues --   -0.92121  -0.78139  -0.67506  -0.54563  -0.51177
 Alpha  occ. eigenvalues --   -0.48306  -0.45707  -0.41929  -0.39100  -0.38363
 Alpha  occ. eigenvalues --   -0.35923  -0.33610
 Alpha virt. eigenvalues --   -0.03712   0.05189   0.06156   0.07003   0.09179
 Alpha virt. eigenvalues --    0.10391   0.11041   0.12242   0.14030   0.15608
 Alpha virt. eigenvalues --    0.15968   0.17018   0.18016   0.18831   0.20164

 Mulliken charges:
               1
     1  C   -0.814697
     2  C   -0.001209
     3  H    0.049623
     4  H    0.697230
     5  H    0.005296
     6  C   -0.010038
     7  H    0.033655
     8  H    0.026445
     9  C   -0.513143
    10  H    0.059714
    11  H    0.006078
    12  H    0.045750
    13  H    0.053554
    14  H    0.361744
 Sum of Mulliken charges =   0.00000

 Dipole moment (field-independent basis, Debye):
    X=              0.6972    Y=              0.0075    Z=             -1.1992  Tot=              1.3871
 Quadrupole moment (field-independent basis, Debye-Ang):
   XX=            -32.0366   YY=            -30.0951   ZZ=            -27.2569
   XY=              0.5841   XZ=              1.3021   YZ=              0.5119

 Normal termination of Gaussian 09 at Wed Aug 26 22:43:13 2020.
