 Gaussian 09, Revision D.01,
 Gaussian 09:  ES64L-G09RevD.01 24-Apr-2013

 --------------------
 #p B2PLYPD3/Def2QZVP
 --------------------

 ----------
 butane_opt
 ----------
 Symbolic Z-matrix:
 Charge =  0 Multiplicity = 1

                         Standard orientation:
 ---------------------------------------------------------------------
 Center     Atomic      Atomic             Coordinates (Angstroms)
 Number     Number       Type             X           Y           Z
 ---------------------------------------------------------------------
      1          6           0       -1.868401   -0.141654   -0.223277
      2          6           0       -0.571382    0.537077    0.301082
      3          1           0       -2.623229    0.486079   -0.721293
      4          1           0       -2.577770   -0.930163    0.647029
      5          1           0       -1.427915   -0.467134   -0.864909
      6          6           0        0.569121   -0.504904    0.063390
      7          1           0       -0.750027    1.500799    1.341499
      8          1           0       -0.179903    1.074185   -0.385143
      9          6           0        1.931823    0.087773   -0.148337
     10          1           0        0.138870   -0.961600   -0.664643
     11          1           0        0.542258   -1.540557    1.199014
     12          1           0        2.006607    0.935297   -1.195906
     13          1           0        2.611796   -0.669593    0.071053
     14          1           0        1.892349    0.702929    0.616151
 ---------------------------------------------------------------------

 SCF Done:  E(RB2PLYPD3) =  -157.807631480     A.U. after   11 cycles
 E2(B2PLYPD3) =    -0.2541670534D+00 E(B2PLYPD3) =    -0.15806179853357D+03

 The electronic state is 1-A.
 Alpha  occ. eigenvalues --  -10.64318 -10.63252 -10.61714 -10.60669  -0.94933
 Alpha  occ. eigenvalues --   -0.85848  -0.74400  -0.67702  -0.52487  -0.51891
 Alpha  occ. eigenvalues --   -0.50579  -0.46894  -0.42257  -0.40633  -0.38169
 Alpha  occ. eigenvalues --   -0.37681  -0.33215
 Alpha virt. eigenvalues --    0.04178   0.05130   0.06564   0.07009   0.10216
 Alpha virt. eigenvalues --    0.10977   0.12236   0.12919   0.14051   0.14696
 Alpha virt. eigenvalues --    0.15809   0.16059   0.17859   0.19388   0.19988

 Mulliken charges:
               1
     1  C   -0.295225
     2  C   -0.111723
     3  H    0.043085
     4  H    0.043753
     5  H    0.197584
     6  C   -0.074483
     7  H    0.010089
     8  H    0.111609
     9  C   -0.193059
    10  H    0.092502
    11  H   -0.041247
    12  H    0.026896
    13  H    0.078987
    14  H    0.111230
 Sum of Mulliken charges =   0.00000

 Dipole moment (field-independent basis, Debye):
    X=              0.1869    Y=              0.3837    Z=             -0.8510  Tot=              0.9520
 Quadrupole moment (field-independent basis, Debye-Ang):
   XX=            -29.5212   YY=            -30.2390   ZZ=            -29.5577
   XY=             -0.0547   XZ=              0.5290   YZ=             -0.1885

 Normal termination of Gaussian 09 at Wed Aug 26 09:52:58 2020.
