 Gaussian 09, Revision D.01,
 Gaussian 09:  ES64L-G09RevD.01 24-Apr-2013

 --------------------
 #p B2PLYPD3/Def2QZVP
 --------------------

 ----------
 butane_opt
 ----------
 Symbolic Z-matrix:
 Charge =  0 Multiplicity = 1

                         Standard orientation:
 ---------------------------------------------------------------------
 Center     Atomic      Atomic             Coordinates (Angstroms)
 Number     Number       Type             X           Y           Z
 ---------------------------------------------------------------------
      1          6           0       -1.956513   -0.195290    0.066093
      2          6           0       -0.504892    0.613483   -0.203326
      3          1           0       -2.687113    0.509510    0.127016
      4          1           0       -1.858549   -0.984638    1.244331
      5          1           0       -2.337642   -0.406941   -0.520976
      6          6           0        0.542394   -0.457576   -0.091967
      7          1           0       -0.253883    1.023454    0.576218
      8          1           0       -0.117491    1.313610   -1.010613
      9          6           0        1.813204    0.060086    0.100753
     10          1           0        0.735440   -1.095352   -1.001407
     11          1           0        0.267737   -0.916917    0.769255
     12          1           0        1.910698    0.158243   -0.499934
     13          1           0        2.730796   -0.956613   -0.261705
     14          1           0        2.244852    1.231429    1.348492
 ---------------------------------------------------------------------

 SCF Done:  E(RB2PLYPD3) =  -157.199586351     A.U. after   13 cycles
 E2(B2PLYPD3) =    -0.2567949688D+00 E(B2PLYPD3) =    -0.15745638131937D+03

 The electronic state is 1-A.
 Alpha  occ. eigenvalues --  -10.62804 -10.60448 -10.60415 -10.59432  -0.98559
 Alpha  occ. eigenvalues --   -0.89257  -0.81816  -0.69098  -0.55812  -0.52675
 Alpha  occ. eigenvalues --   -0.47798  -0.44958  -0.42900  -0.40859  -0.39353
 Alpha  occ. eigenvalues --   -0.37051  -0.32734
 Alpha virt. eigenvalues --    0.00560   0.04357   0.04878   0.07950   0.09592
 Alpha virt. eigenvalues --    0.10622   0.12063   0.13355   0.14019   0.15154
 Alpha virt. eigenvalues --    0.15605   0.16685   0.17549   0.19565   0.21557

 Mulliken charges:
               1
     1  C   -0.438012
     2  C   -0.147428
     3  H    0.045928
     4  H    0.053728
     5  H    0.310842
     6  C    0.070789
     7  H    0.144741
     8  H    0.034545
     9  C   -0.868893
    10  H    0.021424
    11  H    0.064546
    12  H    0.683480
    13  H    0.002583
    14  H    0.021726
 Sum of Mulliken charges =   0.00000

 Dipole moment (field-independent basis, Debye):
    X=             -0.8867    Y=              0.1229    Z=             -0.6198  Tot=              1.0888
 Quadrupole moment (field-independent basis, Debye-Ang):
   XX=            -30.7019   YY=            -29.7470   ZZ=            -27.7432
   XY=              0.3047   XZ=             -0.9455   YZ=              0.2455

 Normal termination of Gaussian 09 at Wed Aug 26 22:39:30 2020.
