 Gaussian 09, Revision D.01,
 Gaussian 09:  ES64L-G09RevD.01 24-Apr-2013

 --------------------
 #p B2PLYPD3/Def2QZVP
 --------------------

 ----------
 butane_opt
 ----------
 Symbolic Z-matrix:
 Charge =  0 Multiplicity = 1

                         Standard orientation:
 ---------------------------------------------------------------------
 Center     Atomic      Atomic             Coordinates (Angstroms)
 Number     Number       Type             X           Y           Z
 ---------------------------------------------------------------------
      1          6           0        1.909429    0.049513   -0.213306
      2          6           0        0.628518   -0.397526    0.295037
      3          1           0        2.704020   -1.052113   -0.498866
      4          1           0        2.223415    0.925014    0.596666
      5          1           0        1.292623    0.542939   -1.169367
      6          6           0       -0.498689    0.585906    0.017826
      7          1           0        0.684041   -1.108998    1.495386
      8          1           0        0.339328   -0.824566   -0.268477
      9          6           0       -1.980560   -0.198997   -0.046308
     10          1           0       -0.352164    0.908473   -0.602580
     11          1           0       -0.353341    1.599183    0.827770
     12          1           0       -2.044598   -1.176780   -1.014073
     13          1           0       -2.668735    0.360348   -0.257639
     14          1           0       -2.176778   -0.406872    0.571684
 ---------------------------------------------------------------------

 SCF Done:  E(RB2PLYPD3) =  -157.308839199     A.U. after   11 cycles
 E2(B2PLYPD3) =    -0.2529007971D+00 E(B2PLYPD3) =    -0.15756173999573D+03

 The electronic state is 1-A.
 Alpha  occ. eigenvalues --  -10.65592 -10.60939 -10.59123 -10.58632  -0.97228
 Alpha  occ. eigenvalues --   -0.88291  -0.79323  -0.69905  -0.55470  -0.52271
 Alpha  occ. eigenvalues --   -0.48329  -0.47217  -0.44343  -0.40904  -0.38748
 Alpha  occ. eigenvalues --   -0.35920  -0.35330
 Alpha virt. eigenvalues --    0.03891   0.05649   0.07262   0.07682   0.10117
 Alpha virt. eigenvalues --    0.11308   0.11774   0.13332   0.14164   0.15121
 Alpha virt. eigenvalues --    0.15537   0.16193   0.18173   0.19126   0.20297

 Mulliken charges:
               1
     1  C   -0.160856
     2  C   -0.385433
     3  H    0.054985
     4  H    0.060197
     5  H    0.027268
     6  C   -0.499251
     7  H    0.001300
     8  H    0.437370
     9  C   -0.500871
    10  H    0.450724
    11  H    0.016726
    12  H    0.021151
    13  H    0.068986
    14  H    0.407705
 Sum of Mulliken charges =   0.00000

 Dipole moment (field-independent basis, Debye):
    X=             -0.6634    Y=             -0.0221    Z=             -0.3240  Tot=              0.7386
 Quadrupole moment (field-independent basis, Debye-Ang):
   XX=            -29.4527   YY=            -29.2376   ZZ=            -29.0222
   XY=             -0.8644   XZ=              0.5009   YZ=              0.6251

 Normal termination of Gaussian 09 at Wed Aug 26 22:44:22 2020.
