 Gaussian 09, Revision D.01,
 Gaussian 09:  ES64L-G09RevD.01 24-Apr-2013

 --------------------
 #p B2PLYPD3/Def2QZVP
 --------------------

 ----------
 butane_opt
 ----------
 Symbolic Z-matrix:
 Charge =  0 Multiplicity = 1

                         Standard orientation:
 ---------------------------------------------------------------------
 Center     Atomic      Atomic             Coordinates (Angstroms)
 Number     Number       Type             X           Y           Z
 ---------------------------------------------------------------------
      1          6           0       -1.953096    0.012286   -0.193448
      2          6           0       -0.638613   -0.425428    0.298740
      3          1           0       -2.622954   -0.653062   -0.258631
      4          1           0       -1.565887    0.532964   -1.237028
      5          1           0       -2.441080    0.695256    0.502841
      6          6           0        0.599047    0.607755    0.083743
      7          1           0       -0.594670   -0.963074   -0.292117
      8          1           0       -0.689939   -0.908903    1.288141
      9          6           0        2.008168   -0.215258   -0.156211
     10          1           0        0.583677    1.890472    0.938192
     11          1           0        0.039274    0.783070   -0.588642
     12          1           0        2.682456   -0.625305    0.985438
     13          1           0        2.675584    0.287675   -0.666337
     14          1           0        1.840497   -0.915223   -0.868806
 ---------------------------------------------------------------------

 SCF Done:  E(RB2PLYPD3) =  -157.778080220     A.U. after   11 cycles
 E2(B2PLYPD3) =    -0.2518792841D+00 E(B2PLYPD3) =    -0.15802995950382D+03

 The electronic state is 1-A.
 Alpha  occ. eigenvalues --  -10.63831 -10.62630 -10.59971 -10.57955  -0.95158
 Alpha  occ. eigenvalues --   -0.84161  -0.76185  -0.69910  -0.55795  -0.52374
 Alpha  occ. eigenvalues --   -0.48274  -0.46778  -0.41617  -0.40786  -0.40134
 Alpha  occ. eigenvalues --   -0.36021  -0.34581
 Alpha virt. eigenvalues --    0.04588   0.06068   0.06660   0.08878   0.10295
 Alpha virt. eigenvalues --    0.11553   0.12033   0.12913   0.14793   0.14945
 Alpha virt. eigenvalues --    0.16098   0.17160   0.18085   0.18763   0.20508

 Mulliken charges:
               1
     1  C   -0.127473
     2  C   -0.326436
     3  H    0.057397
     4  H    0.023776
     5  H    0.033910
     6  C   -0.205800
     7  H    0.302271
     8  H    0.035845
     9  C   -0.129537
    10  H   -0.002353
    11  H    0.183050
    12  H    0.039714
    13  H    0.059232
    14  H    0.056404
 Sum of Mulliken charges =   0.00000

 Dipole moment (field-independent basis, Debye):
    X=             -0.2440    Y=             -0.7410    Z=             -0.6461  Tot=              1.0130
 Quadrupole moment (field-independent basis, Debye-Ang):
   XX=            -27.7995   YY=            -30.1344   ZZ=            -28.6125
   XY=              0.5359   XZ=             -1.1870   YZ=              0.4266

 Normal termination of Gaussian 09 at Wed Aug 26 09:49:00 2020.
