 Gaussian 09, Revision D.01,
 Gaussian 09:  ES64L-G09RevD.01 24-Apr-2013

 --------------------
 #p B2PLYPD3/Def2QZVP
 --------------------

 ----------
 butane_opt
 ----------
 Symbolic Z-matrix:
 Charge =  0 Multiplicity = 1

                         Standard orientation:
 ---------------------------------------------------------------------
 Center     Atomic      Atomic             Coordinates (Angstroms)
 Number     Number       Type             X           Y           Z
 ---------------------------------------------------------------------
      1          6           0        2.017915   -0.122445    0.062263
      2          6           0        0.556524    0.604582   -0.007374
      3          1           0        2.708882    0.325856    0.049664
      4          1           0        2.380888   -0.543602   -0.809128
      5          1           0        1.960321   -0.943453    1.045605
      6          6           0       -0.594069   -0.533731   -0.238078
      7          1           0        0.633314    1.146644   -0.746647
      8          1           0        0.148858    1.273666    0.954977
      9          6           0       -1.924354    0.083794    0.042367
     10          1           0       -0.713585   -1.101200    0.458101
     11          1           0       -0.640699   -1.170336   -1.110519
     12          1           0       -1.420429    0.464915    0.988540
     13          1           0       -2.673591   -0.807004    0.920793
     14          1           0       -2.720056    1.161315   -0.906453
 ---------------------------------------------------------------------

 SCF Done:  E(RB2PLYPD3) =  -157.741014207     A.U. after   12 cycles
 E2(B2PLYPD3) =    -0.2565157650D+00 E(B2PLYPD3) =    -0.15799752997174D+03

 The electronic state is 1-A.
 Alpha  occ. eigenvalues --  -10.67434 -10.62909 -10.60207 -10.59470  -0.92904
 Alpha  occ. eigenvalues --   -0.86385  -0.75339  -0.66239  -0.54811  -0.50126
 Alpha  occ. eigenvalues --   -0.48549  -0.46680  -0.40955  -0.40054  -0.38264
 Alpha  occ. eigenvalues --   -0.36354  -0.33572
 Alpha virt. eigenvalues --    0.01549   0.05411   0.07002   0.07892   0.09097
 Alpha virt. eigenvalues --    0.09963   0.11724   0.13629   0.14191   0.14523
 Alpha virt. eigenvalues --    0.16029   0.17254   0.18085   0.19168   0.20034

 Mulliken charges:
               1
     1  C   -0.257934
     2  C   -0.072209
     3  H    0.160729
     4  H    0.037379
     5  H    0.030053
     6  C   -0.144638
     7  H    0.099698
     8  H    0.034143
     9  C   -0.193843
    10  H    0.153576
    11  H    0.043846
    12  H    0.067831
    13  H    0.009775
    14  H    0.031596
 Sum of Mulliken charges =   0.00000

 Dipole moment (field-independent basis, Debye):
    X=              1.1619    Y=              0.0835    Z=             -0.0896  Tot=              1.1683
 Quadrupole moment (field-independent basis, Debye-Ang):
   XX=            -31.8877   YY=            -29.5407   ZZ=            -28.4417
   XY=              0.7310   XZ=             -1.3999   YZ=             -0.9616

 Normal termination of Gaussian 09 at Wed Aug 26 22:21:19 2020.
