 Gaussian 09, Revision D.01,
 Gaussian 09:  ES64L-G09RevD.01 24-Apr-2013

 --------------------
 #p B2PLYPD3/Def2QZVP
 --------------------

 ----------
 butane_opt
 ----------
 Symbolic Z-matrix:
 Charge =  0 Multiplicity = 1

                         Standard orientation:
 ---------------------------------------------------------------------
 Center     Atomic      Atomic             Coordinates (Angstroms)
 Number     Number       Type             X           Y           Z
 ---------------------------------------------------------------------
      1          6           0        1.908901    0.033385   -0.172844
      2          6           0        0.520924   -0.385996    0.386684
      3          1           0        2.715229   -0.882727   -0.647799
      4          1           0        2.682939    1.062363    0.594837
      5          1           0        1.569691    0.353747   -1.116420
      6          6           0       -0.514548    0.550717    0.007686
      7          1           0        0.643118   -0.994176    1.490825
      8          1           0        0.123652   -1.048260   -0.336713
      9          6           0       -1.933036   -0.157035   -0.072202
     10          1           0       -0.493201    1.033560   -1.084950
     11          1           0       -0.609474    1.348902    0.833254
     12          1           0       -1.761833   -1.323519   -0.989425
     13          1           0       -2.458466    0.438142   -0.104872
     14          1           0       -2.305102   -0.234459    0.465319
 ---------------------------------------------------------------------

 SCF Done:  E(RB2PLYPD3) =  -157.464542728     A.U. after   12 cycles
 E2(B2PLYPD3) =    -0.2558950864D+00 E(B2PLYPD3) =    -0.15772043781483D+03

 The electronic state is 1-A.
 Alpha  occ. eigenvalues --  -10.65202 -10.63574 -10.62377 -10.57395  -0.98022
 Alpha  occ. eigenvalues --   -0.90365  -0.75703  -0.65197  -0.55368  -0.50406
 Alpha  occ. eigenvalues --   -0.49232  -0.43892  -0.41621  -0.39551  -0.37820
 Alpha  occ. eigenvalues --   -0.36744  -0.34291
 Alpha virt. eigenvalues --    0.04157   0.04958   0.06758   0.07116   0.09480
 Alpha virt. eigenvalues --    0.09685   0.11003   0.13167   0.14033   0.15374
 Alpha virt. eigenvalues --    0.15988   0.16434   0.18568   0.19271   0.21024

 Mulliken charges:
               1
     1  C   -0.184438
     2  C   -0.062602
     3  H    0.033071
     4  H    0.018284
     5  H    0.074448
     6  C    0.003126
     7  H    0.043321
     8  H    0.065260
     9  C   -0.694269
    10  H    0.055341
    11  H    0.009934
    12  H    0.028395
    13  H    0.168889
    14  H    0.441241
 Sum of Mulliken charges =   0.00000

 Dipole moment (field-independent basis, Debye):
    X=             -0.9357    Y=              0.1166    Z=             -0.0174  Tot=              0.9431
 Quadrupole moment (field-independent basis, Debye-Ang):
   XX=            -30.3324   YY=            -29.9703   ZZ=            -28.4866
   XY=             -1.4106   XZ=             -1.2940   YZ=              0.6155

 Normal termination of Gaussian 09 at Wed Aug 26 16:38:42 2020.
