 Gaussian 09, Revision D.01,
 Gaussian 09:  ES64L-G09RevD.01 24-Apr-2013

 --------------------
 #p B2PLYPD3/Def2QZVP
 --------------------

 ----------
 butane_opt
 ----------
 Symbolic Z-matrix:
 Charge =  0 Multiplicity = 1

                         Standard orientation:
 ---------------------------------------------------------------------
 Center     Atomic      Atomic             Coordinates (Angstroms)
 Number     Number       Type             X           Y           Z
 ---------------------------------------------------------------------
      1          6           0        1.920626   -0.158351    0.070120
      2          6           0        0.461539    0.550589   -0.107029
      3          1           0        2.754417    0.505831    0.007242
      4          1           0        2.399311   -0.586024   -0.613798
      5          1           0        1.929209   -0.918304    0.956077
      6          6           0       -0.595979   -0.423503   -0.060116
      7          1           0        0.464102    1.333155   -0.966151
      8          1           0        0.469617    1.124332    0.797810
      9          6           0       -1.800474    0.082626    0.007821
     10          1           0       -0.776468   -1.379404    1.052531
     11          1           0       -0.357662   -1.052446   -0.884922
     12          1           0       -2.285822    1.119701    1.285624
     13          1           0       -2.665959   -0.716747   -0.549740
     14          1           0       -1.845017    0.261739   -0.549446
 ---------------------------------------------------------------------

 SCF Done:  E(RB2PLYPD3) =  -157.305908486     A.U. after   12 cycles
 E2(B2PLYPD3) =    -0.2569306973D+00 E(B2PLYPD3) =    -0.15756283918335D+03

 The electronic state is 1-A.
 Alpha  occ. eigenvalues --  -10.62871 -10.62596 -10.62137 -10.59295  -1.00270
 Alpha  occ. eigenvalues --   -0.87277  -0.78218  -0.67800  -0.58052  -0.52358
 Alpha  occ. eigenvalues --   -0.50694  -0.44007  -0.43581  -0.39988  -0.38413
 Alpha  occ. eigenvalues --   -0.34619  -0.31967
 Alpha virt. eigenvalues --    0.00632   0.04730   0.05777   0.06528   0.09507
 Alpha virt. eigenvalues --    0.11032   0.11975   0.12869   0.13515   0.15328
 Alpha virt. eigenvalues --    0.15630   0.16238   0.18038   0.19976   0.21165

 Mulliken charges:
               1
     1  C   -0.162767
     2  C   -0.038741
     3  H    0.028069
     4  H    0.042174
     5  H    0.058517
     6  C    0.013854
     7  H    0.030804
     8  H    0.054124
     9  C   -0.829950
    10  H   -0.023831
    11  H    0.075951
    12  H    0.032177
    13  H    0.032309
    14  H    0.687311
 Sum of Mulliken charges =   0.00000

 Dipole moment (field-independent basis, Debye):
    X=              0.5656    Y=              0.4305    Z=             -1.1632  Tot=              1.3631
 Quadrupole moment (field-independent basis, Debye-Ang):
   XX=            -30.1625   YY=            -29.9070   ZZ=            -28.3933
   XY=             -0.1319   XZ=             -0.0016   YZ=              0.5890

 Normal termination of Gaussian 09 at Wed Aug 26 11:46:34 2020.
