 Gaussian 09, Revision D.01,
 Gaussian 09:  ES64L-G09RevD.01 24-Apr-2013

 --------------------
 #p B2PLYPD3/Def2QZVP
 --------------------

 ----------
 butane_opt
 ----------
 Symbolic Z-matrix:
 Charge =  0 Multiplicity = 1

                         Standard orientation:
 ---------------------------------------------------------------------
 Center     Atomic      Atomic             Coordinates (Angstroms)
 Number     Number       Type             X           Y           Z
 ---------------------------------------------------------------------
      1          6           0       -1.944908    0.059058   -0.023595
      2          6           0       -0.654538   -0.421027   -0.084437
      3          1           0       -2.836518   -0.859548   -0.027438
      4          1           0       -2.118864    0.771539   -0.821849
      5          1           0       -1.942090    0.655714    0.964165
      6          6           0        0.520936    0.515895    0.160906
      7          1           0       -0.175257   -1.136026   -1.092525
      8          1           0       -0.749097   -1.065130    0.626870
      9          6           0        1.999075   -0.124753   -0.000391
     10          1           0        0.313860    1.087964    1.184556
     11          1           0        0.379424    1.429232   -0.682901
     12          1           0        2.742373   -1.273269    1.042023
     13          1           0        2.821742    0.721070   -0.853847
     14          1           0        2.041041   -0.506584   -0.653951
 ---------------------------------------------------------------------

 SCF Done:  E(RB2PLYPD3) =  -157.708653897     A.U. after   12 cycles
 E2(B2PLYPD3) =    -0.2576752185D+00 E(B2PLYPD3) =    -0.15796632911545D+03

 The electronic state is 1-A.
 Alpha  occ. eigenvalues --  -10.65947 -10.65717 -10.62648 -10.61140  -0.94107
 Alpha  occ. eigenvalues --   -0.85867  -0.74505  -0.66436  -0.54615  -0.50843
 Alpha  occ. eigenvalues --   -0.47884  -0.44705  -0.42966  -0.39332  -0.36869
 Alpha  occ. eigenvalues --   -0.35306  -0.34935
 Alpha virt. eigenvalues --   -0.00538   0.04408   0.05760   0.06838   0.09480
 Alpha virt. eigenvalues --    0.09805   0.11607   0.12264   0.13981   0.15179
 Alpha virt. eigenvalues --    0.15584   0.15992   0.17599   0.19150   0.19662

 Mulliken charges:
               1
     1  C   -0.163458
     2  C   -0.018902
     3  H    0.048267
     4  H    0.049841
     5  H    0.053833
     6  C   -0.010272
     7  H   -0.016450
     8  H    0.076384
     9  C   -0.489436
    10  H    0.024051
    11  H    0.024021
    12  H    0.025734
    13  H    0.003394
    14  H    0.392992
 Sum of Mulliken charges =   0.00000

 Dipole moment (field-independent basis, Debye):
    X=             -0.8341    Y=             -0.2000    Z=             -0.2553  Tot=              0.8949
 Quadrupole moment (field-independent basis, Debye-Ang):
   XX=            -32.6248   YY=            -29.9115   ZZ=            -29.2304
   XY=             -0.8629   XZ=             -1.9843   YZ=             -0.7886

 Normal termination of Gaussian 09 at Wed Aug 26 10:31:54 2020.
