 Gaussian 09, Revision D.01,
 Gaussian 09:  ES64L-G09RevD.01 24-Apr-2013

 --------------------
 #p B2PLYPD3/Def2QZVP
 --------------------

 ----------
 butane_opt
 ----------
 Symbolic Z-matrix:
 Charge =  0 Multiplicity = 1

                         Standard orientation:
 ---------------------------------------------------------------------
 Center     Atomic      Atomic             Coordinates (Angstroms)
 Number     Number       Type             X           Y           Z
 ---------------------------------------------------------------------
      1          6           0        1.890699    0.107053   -0.160476
      2          6           0        0.565175   -0.378583    0.092277
      3          1           0        2.926372   -1.067328    0.085647
      4          1           0        1.747061    0.498108    0.527119
      5          1           0        1.994894    0.864039   -1.074144
      6          6           0       -0.526354    0.576454    0.217358
      7          1           0        0.716386   -1.288081    1.089662
      8          1           0        0.366057   -0.888323   -0.657946
      9          6           0       -1.911316   -0.203179   -0.147062
     10          1           0       -0.226205    1.068965   -0.554242
     11          1           0       -0.588760    1.546208    1.310455
     12          1           0       -1.846789   -0.901283   -0.924646
     13          1           0       -2.814086    0.536621   -0.743898
     14          1           0       -2.384158   -0.979403    0.929410
 ---------------------------------------------------------------------

 SCF Done:  E(RB2PLYPD3) =  -157.708721808     A.U. after   11 cycles
 E2(B2PLYPD3) =    -0.2569089370D+00 E(B2PLYPD3) =    -0.15796563074498D+03

 The electronic state is 1-A.
 Alpha  occ. eigenvalues --  -10.66347 -10.64692 -10.61455 -10.61350  -0.97590
 Alpha  occ. eigenvalues --   -0.84816  -0.73208  -0.68084  -0.55969  -0.49995
 Alpha  occ. eigenvalues --   -0.48324  -0.43670  -0.41695  -0.39972  -0.37515
 Alpha  occ. eigenvalues --   -0.36730  -0.34278
 Alpha virt. eigenvalues --    0.02486   0.04295   0.05894   0.06945   0.09448
 Alpha virt. eigenvalues --    0.10434   0.11601   0.12266   0.13678   0.14768
 Alpha virt. eigenvalues --    0.15172   0.15684   0.18210   0.18790   0.20105

 Mulliken charges:
               1
     1  C   -0.400994
     2  C   -0.070581
     3  H    0.022497
     4  H    0.295376
     5  H    0.049975
     6  C   -0.105418
     7  H   -0.009204
     8  H    0.107256
     9  C   -0.174592
    10  H    0.118314
    11  H    0.019826
    12  H    0.074724
    13  H    0.035710
    14  H    0.037111
 Sum of Mulliken charges =   0.00000

 Dipole moment (field-independent basis, Debye):
    X=             -0.2380    Y=              0.1263    Z=             -0.7514  Tot=              0.7982
 Quadrupole moment (field-independent basis, Debye-Ang):
   XX=            -33.2590   YY=            -29.5243   ZZ=            -28.9354
   XY=              0.3699   XZ=              0.9265   YZ=             -0.3635

 Normal termination of Gaussian 09 at Wed Aug 26 19:52:41 2020.
