 Gaussian 09, Revision D.01,
 Gaussian 09:  ES64L-G09RevD.01 24-Apr-2013

 --------------------
 #p B2PLYPD3/Def2QZVP
 --------------------

 ----------
 butane_opt
 ----------
 Symbolic Z-matrix:
 Charge =  0 Multiplicity = 1

                         Standard orientation:
 ---------------------------------------------------------------------
 Center     Atomic      Atomic             Coordinates (Angstroms)
 Number     Number       Type             X           Y           Z
 ---------------------------------------------------------------------
      1          6           0       -1.987050   -0.170033   -0.090964
      2          6           0       -0.546414    0.586184    0.040810
      3          1           0       -2.705821    0.386090   -0.248948
      4          1           0       -2.312835   -0.650043    0.739189
      5          1           0       -1.981989   -0.903004   -0.920056
      6          6           0        0.603748   -0.477258    0.194000
      7          1           0       -0.660902    1.513267    1.036350
      8          1           0       -0.361190    1.063967   -0.749203
      9          6           0        1.971783    0.080690   -0.133508
     10          1           0        0.471000   -1.097899   -0.589931
     11          1           0        0.562713   -1.167856    1.293241
     12          1           0        1.643075    0.639915   -1.007971
     13          1           0        2.752279   -0.734691   -0.347874
     14          1           0        2.341262    0.832757    0.733181
 ---------------------------------------------------------------------

 SCF Done:  E(RB2PLYPD3) =  -158.000847441     A.U. after   11 cycles
 E2(B2PLYPD3) =    -0.2484470335D+00 E(B2PLYPD3) =    -0.15824929447445D+03

 The electronic state is 1-A.
 Alpha  occ. eigenvalues --  -10.62998 -10.62086 -10.61802 -10.57910  -0.90965
 Alpha  occ. eigenvalues --   -0.83814  -0.74151  -0.66275  -0.52867  -0.49718
 Alpha  occ. eigenvalues --   -0.49361  -0.47146  -0.43551  -0.40448  -0.38716
 Alpha  occ. eigenvalues --   -0.37554  -0.36403
 Alpha virt. eigenvalues --    0.05422   0.06831   0.07697   0.08228   0.10715
 Alpha virt. eigenvalues --    0.11724   0.12621   0.13863   0.14751   0.15149
 Alpha virt. eigenvalues --    0.15720   0.16577   0.19024   0.19224   0.21325

 Mulliken charges:
               1
     1  C   -0.121346
     2  C   -0.105734
     3  H    0.058605
     4  H    0.044236
     5  H    0.021921
     6  C   -0.069426
     7  H   -0.005013
     8  H    0.097604
     9  C   -0.159944
    10  H    0.082256
    11  H    0.008329
    12  H    0.054174
    13  H    0.053626
    14  H    0.040711
 Sum of Mulliken charges =   0.00000

 Dipole moment (field-independent basis, Debye):
    X=             -0.2543    Y=             -0.1513    Z=             -0.5245  Tot=              0.6022
 Quadrupole moment (field-independent basis, Debye-Ang):
   XX=            -28.9824   YY=            -29.4427   ZZ=            -28.5970
   XY=             -0.6998   XZ=             -0.1171   YZ=              0.1613

 Normal termination of Gaussian 09 at Wed Aug 26 21:37:27 2020.
