 Gaussian 09, Revision D.01,
 Gaussian 09:  ES64L-G09RevD.01 24-Apr-2013

 --------------------
 #p B2PLYPD3/Def2QZVP
 --------------------

 ----------
 butane_opt
 ----------
 Symbolic Z-matrix:
 Charge =  0 Multiplicity = 1

                         Standard orientation:
 ---------------------------------------------------------------------
 Center     Atomic      Atomic             Coordinates (Angstroms)
 Number     Number       Type             X           Y           Z
 ---------------------------------------------------------------------
      1          6           0        1.977432    0.060092    0.018383
      2          6           0        0.554458   -0.416019   -0.075132
      3          1           0        2.722397   -0.666914   -0.204160
      4          1           0        2.140420    0.504893    0.792794
      5          1           0        1.953838    0.695066   -0.850166
      6          6           0       -0.533947    0.536525    0.087669
      7          1           0        0.493429   -1.131049    0.951180
      8          1           0        0.717737   -0.980117   -0.920155
      9          6           0       -2.027830   -0.109451   -0.063830
     10          1           0       -0.305844    1.031311   -0.584020
     11          1           0       -0.452793    1.429456    1.255307
     12          1           0       -1.979743   -0.519096   -0.642010
     13          1           0       -2.767215    0.519195   -0.707054
     14          1           0       -2.342911   -1.309626    1.105743
 ---------------------------------------------------------------------

 SCF Done:  E(RB2PLYPD3) =  -157.615762582     A.U. after   12 cycles
 E2(B2PLYPD3) =    -0.2536055420D+00 E(B2PLYPD3) =    -0.15786936812412D+03

 The electronic state is 1-A.
 Alpha  occ. eigenvalues --  -10.63041 -10.62849 -10.61225 -10.57592  -0.94580
 Alpha  occ. eigenvalues --   -0.87494  -0.79178  -0.67828  -0.57045  -0.51828
 Alpha  occ. eigenvalues --   -0.48136  -0.47467  -0.44406  -0.40950  -0.36659
 Alpha  occ. eigenvalues --   -0.35895  -0.34118
 Alpha virt. eigenvalues --    0.00751   0.05544   0.06577   0.07740   0.09593
 Alpha virt. eigenvalues --    0.10696   0.11613   0.12958   0.14319   0.14997
 Alpha virt. eigenvalues --    0.15589   0.17094   0.17726   0.19240   0.20157

 Mulliken charges:
               1
     1  C   -0.147543
     2  C   -0.047860
     3  H    0.047014
     4  H    0.081579
     5  H    0.022124
     6  C   -0.132649
     7  H   -0.017653
     8  H    0.051315
     9  C   -0.571907
    10  H    0.182679
    11  H    0.000260
    12  H    0.455459
    13  H    0.059569
    14  H    0.017614
 Sum of Mulliken charges =   0.00000

 Dipole moment (field-independent basis, Debye):
    X=              0.6300    Y=             -0.0149    Z=             -1.2920  Tot=              1.4375
 Quadrupole moment (field-independent basis, Debye-Ang):
   XX=            -30.4220   YY=            -30.0855   ZZ=            -27.9083
   XY=             -0.4704   XZ=              1.9545   YZ=             -0.0870

 Normal termination of Gaussian 09 at Wed Aug 26 14:02:28 2020.
