 Gaussian 09, Revision D.01,
 Gaussian 09:  ES64L-G09RevD.01 24-Apr-2013

 --------------------
 #p B2PLYPD3/Def2QZVP
 --------------------

 ----------
 butane_opt
 ----------
 Symbolic Z-matrix:
 Charge =  0 Multiplicity = 1

                         Standard orientation:
 ---------------------------------------------------------------------
 Center     Atomic      Atomic             Coordinates (Angstroms)
 Number     Number       Type             X           Y           Z
 ---------------------------------------------------------------------
      1          6           0       -1.995363    0.023995   -0.197635
      2          6           0       -0.655832   -0.352774    0.383229
      3          1           0       -2.759884   -1.010422   -0.706631
      4          1           0       -1.532318    0.079044   -0.848369
      5          1           0       -2.433159    1.239409    0.635347
      6          6           0        0.526711    0.549551   -0.020100
      7          1           0       -0.463045   -1.128400   -0.217576
      8          1           0       -0.563503   -0.854812    1.562674
      9          6           0        2.051184   -0.154347   -0.119646
     10          1           0        0.727249    1.619520    0.667154
     11          1           0        0.252942    1.055507   -1.076637
     12          1           0        2.429059   -0.579281    0.756767
     13          1           0        2.647828    0.227460   -0.118779
     14          1           0        2.134632   -1.046568   -0.929034
 ---------------------------------------------------------------------

 SCF Done:  E(RB2PLYPD3) =  -157.578029353     A.U. after   11 cycles
 E2(B2PLYPD3) =    -0.2554527281D+00 E(B2PLYPD3) =    -0.15783348208136D+03

 The electronic state is 1-A.
 Alpha  occ. eigenvalues --  -10.66391 -10.63794 -10.63036 -10.58661  -0.94727
 Alpha  occ. eigenvalues --   -0.88293  -0.76700  -0.65627  -0.53055  -0.50209
 Alpha  occ. eigenvalues --   -0.47865  -0.46469  -0.41503  -0.40765  -0.39306
 Alpha  occ. eigenvalues --   -0.36339  -0.34356
 Alpha virt. eigenvalues --    0.02574   0.05836   0.06923   0.07483   0.08933
 Alpha virt. eigenvalues --    0.09964   0.11993   0.13286   0.14381   0.14945
 Alpha virt. eigenvalues --    0.15946   0.16988   0.17667   0.19099   0.20165

 Mulliken charges:
               1
     1  C   -0.403989
     2  C   -0.059304
     3  H    0.042102
     4  H    0.301565
     5  H    0.039603
     6  C   -0.028977
     7  H    0.081707
     8  H    0.015786
     9  C   -0.463496
    10  H    0.008362
    11  H    0.027320
    12  H    0.042695
    13  H    0.358785
    14  H    0.037841
 Sum of Mulliken charges =   0.00000

 Dipole moment (field-independent basis, Debye):
    X=              0.8165    Y=             -0.2722    Z=             -0.3678  Tot=              0.9359
 Quadrupole moment (field-independent basis, Debye-Ang):
   XX=            -30.1342   YY=            -29.3727   ZZ=            -29.2172
   XY=              0.8045   XZ=              1.0809   YZ=              1.3347

 Normal termination of Gaussian 09 at Wed Aug 26 13:42:21 2020.
