 Gaussian 09, Revision D.01,
 Gaussian 09:  ES64L-G09RevD.01 24-Apr-2013

 --------------------
 #p B2PLYPD3/Def2QZVP
 --------------------

 ----------
 butane_opt
 ----------
 Symbolic Z-matrix:
 Charge =  0 Multiplicity = 1

                         Standard orientation:
 ---------------------------------------------------------------------
 Center     Atomic      Atomic             Coordinates (Angstroms)
 Number     Number       Type             X           Y           Z
 ---------------------------------------------------------------------
      1          6           0        1.833004   -0.072371    0.071041
      2          6           0        0.654053    0.460811   -0.178736
      3          1           0        2.733552    0.841818   -0.162291
      4          1           0        1.928963   -0.490525   -0.485069
      5          1           0        1.947409   -0.837036    1.349221
      6          6           0       -0.485484   -0.575249    0.007124
      7          1           0        0.568953    0.892891   -1.028841
      8          1           0        0.361216    0.918765    0.496308
      9          6           0       -2.002334    0.186765   -0.010547
     10          1           0       -0.462198   -1.085156    0.977828
     11          1           0       -0.240840   -1.274824   -0.871599
     12          1           0       -2.153892    1.521623    1.250668
     13          1           0       -2.725179   -0.658079   -0.296584
     14          1           0       -1.953417    0.170789   -0.562938
 ---------------------------------------------------------------------

 SCF Done:  E(RB2PLYPD3) =  -156.889301882     A.U. after   13 cycles
 E2(B2PLYPD3) =    -0.2584499671D+00 E(B2PLYPD3) =    -0.15714775184901D+03

 The electronic state is 1-A.
 Alpha  occ. eigenvalues --  -10.64395 -10.62698 -10.59999 -10.55062  -0.98124
 Alpha  occ. eigenvalues --   -0.92201  -0.79079  -0.69723  -0.58779  -0.50764
 Alpha  occ. eigenvalues --   -0.49744  -0.46166  -0.42237  -0.40453  -0.38669
 Alpha  occ. eigenvalues --   -0.34845  -0.33480
 Alpha virt. eigenvalues --   -0.02395   0.04616   0.06308   0.07403   0.09327
 Alpha virt. eigenvalues --    0.10561   0.11143   0.12918   0.13737   0.15509
 Alpha virt. eigenvalues --    0.15990   0.16161   0.18760   0.19107   0.21068

 Mulliken charges:
               1
     1  C   -0.546808
     2  C   -0.110566
     3  H    0.035896
     4  H    0.429353
     5  H    0.020125
     6  C   -0.065309
     7  H    0.051571
     8  H    0.150197
     9  C   -0.964357
    10  H    0.057512
    11  H    0.024594
    12  H    0.065173
    13  H    0.074364
    14  H    0.778257
 Sum of Mulliken charges =   0.00000

 Dipole moment (field-independent basis, Debye):
    X=             -0.1247    Y=              0.0849    Z=             -0.7487  Tot=              0.7638
 Quadrupole moment (field-independent basis, Debye-Ang):
   XX=            -32.2615   YY=            -28.9219   ZZ=            -27.0215
   XY=              0.1938   XZ=             -0.5525   YZ=              0.9148

 Normal termination of Gaussian 09 at Wed Aug 26 23:01:12 2020.
