 Gaussian 09, Revision D.01,
 Gaussian 09:  ES64L-G09RevD.01 24-Apr-2013

 --------------------
 #p B2PLYPD3/Def2QZVP
 --------------------

 ----------
 butane_opt
 ----------
 Symbolic Z-matrix:
 Charge =  0 Multiplicity = 1

                         Standard orientation:
 ---------------------------------------------------------------------
 Center     Atomic      Atomic             Coordinates (Angstroms)
 Number     Number       Type             X           Y           Z
 ---------------------------------------------------------------------
      1          6           0       -1.912418   -0.160610   -0.091946
      2          6           0       -0.531415    0.482693    0.232557
      3          1           0       -2.661794    0.716784   -0.799756
      4          1           0       -2.437578   -1.172929    1.048440
      5          1           0       -1.757074   -0.498412   -0.932997
      6          6           0        0.613202   -0.401950    0.063483
      7          1           0       -0.415848    1.188537    1.199191
      8          1           0       -0.470375    1.307509   -0.710328
      9          6           0        1.918012    0.043579   -0.107575
     10          1           0        0.183154   -1.136215   -0.889417
     11          1           0        0.604145   -0.949206    0.754456
     12          1           0        1.909462    0.750527   -1.035041
     13          1           0        2.730111   -0.762452   -0.087666
     14          1           0        1.791508    0.773585    0.874004
 ---------------------------------------------------------------------

 SCF Done:  E(RB2PLYPD3) =  -157.840697624     A.U. after   11 cycles
 E2(B2PLYPD3) =    -0.2559986104D+00 E(B2PLYPD3) =    -0.15809669623417D+03

 The electronic state is 1-A.
 Alpha  occ. eigenvalues --  -10.65681 -10.64345 -10.62668 -10.59137  -0.95185
 Alpha  occ. eigenvalues --   -0.84932  -0.72893  -0.66158  -0.55173  -0.52078
 Alpha  occ. eigenvalues --   -0.47648  -0.45644  -0.42458  -0.40831  -0.37714
 Alpha  occ. eigenvalues --   -0.34738  -0.34071
 Alpha virt. eigenvalues --    0.02048   0.05256   0.06321   0.07100   0.09903
 Alpha virt. eigenvalues --    0.10457   0.11796   0.12262   0.13214   0.14754
 Alpha virt. eigenvalues --    0.15822   0.16192   0.18493   0.19103   0.19513

 Mulliken charges:
               1
     1  C   -0.239144
     2  C   -0.011147
     3  H    0.021712
     4  H    0.028731
     5  H    0.162787
     6  C   -0.056269
     7  H    0.025426
     8  H   -0.003187
     9  C   -0.157936
    10  H   -0.032904
    11  H    0.115722
    12  H    0.045245
    13  H    0.074978
    14  H    0.025986
 Sum of Mulliken charges =   0.00000

 Dipole moment (field-independent basis, Debye):
    X=              0.5666    Y=             -0.2172    Z=             -0.1762  Tot=              0.6319
 Quadrupole moment (field-independent basis, Debye-Ang):
   XX=            -32.4611   YY=            -30.4668   ZZ=            -28.4145
   XY=             -1.0048   XZ=              1.1183   YZ=             -0.9873

 Normal termination of Gaussian 09 at Wed Aug 26 13:55:16 2020.
