 Gaussian 09, Revision D.01,
 Gaussian 09:  ES64L-G09RevD.01 24-Apr-2013

 --------------------
 #p B2PLYPD3/Def2QZVP
 --------------------

 ----------
 butane_opt
 ----------
 Symbolic Z-matrix:
 Charge =  0 Multiplicity = 1

                         Standard orientation:
 ---------------------------------------------------------------------
 Center     Atomic      Atomic             Coordinates (Angstroms)
 Number     Number       Type             X           Y           Z
 ---------------------------------------------------------------------
      1          6           0        1.894399   -0.209425   -0.081935
      2          6           0        0.538287    0.584530    0.204783
      3          1           0        2.804715    0.671115   -0.551849
      4          1           0        1.701876   -0.856040   -1.054738
      5          1           0        2.626474   -0.947397    0.861009
      6          6           0       -0.627294   -0.417708   -0.003125
      7          1           0        0.382665    1.280695   -0.671415
      8          1           0        0.508546    1.266452    1.159118
      9          6           0       -1.923310    0.067844   -0.071908
     10          1           0       -0.424648   -1.200430    1.131157
     11          1           0       -0.324283   -0.963659   -0.863514
     12          1           0       -1.925844    0.492600    0.676483
     13          1           0       -2.894698   -0.821268    0.017475
     14          1           0       -1.747298    0.926481   -0.990617
 ---------------------------------------------------------------------

 SCF Done:  E(RB2PLYPD3) =  -157.882268438     A.U. after   11 cycles
 E2(B2PLYPD3) =    -0.2554779699D+00 E(B2PLYPD3) =    -0.15813774640832D+03

 The electronic state is 1-A.
 Alpha  occ. eigenvalues --  -10.67299 -10.64091 -10.62804 -10.61028  -0.93974
 Alpha  occ. eigenvalues --   -0.83381  -0.69761  -0.65659  -0.54009  -0.49629
 Alpha  occ. eigenvalues --   -0.48332  -0.45113  -0.41391  -0.40031  -0.38823
 Alpha  occ. eigenvalues --   -0.36897  -0.33289
 Alpha virt. eigenvalues --    0.04536   0.05071   0.06477   0.07642   0.09292
 Alpha virt. eigenvalues --    0.09650   0.12036   0.12638   0.13663   0.14394
 Alpha virt. eigenvalues --    0.15337   0.15866   0.18080   0.19572   0.20847

 Mulliken charges:
               1
     1  C   -0.194977
     2  C   -0.016659
     3  H    0.022661
     4  H    0.059792
     5  H    0.053947
     6  C   -0.038610
     7  H    0.034686
     8  H    0.037937
     9  C   -0.231405
    10  H   -0.028670
    11  H    0.064275
    12  H    0.161258
    13  H    0.054077
    14  H    0.021687
 Sum of Mulliken charges =   0.00000

 Dipole moment (field-independent basis, Debye):
    X=             -0.2298    Y=              0.3307    Z=             -0.1254  Tot=              0.4218
 Quadrupole moment (field-independent basis, Debye-Ang):
   XX=            -31.4867   YY=            -30.3876   ZZ=            -29.1253
   XY=              0.1945   XZ=             -0.5969   YZ=              0.4480

 Normal termination of Gaussian 09 at Wed Aug 26 18:40:29 2020.
