 Gaussian 09, Revision D.01,
 Gaussian 09:  ES64L-G09RevD.01 24-Apr-2013

 --------------------
 #p B2PLYPD3/Def2QZVP
 --------------------

 ----------
 butane_opt
 ----------
 Symbolic Z-matrix:
 Charge =  0 Multiplicity = 1

                         Standard orientation:
 ---------------------------------------------------------------------
 Center     Atomic      Atomic             Coordinates (Angstroms)
 Number     Number       Type             X           Y           Z
 ---------------------------------------------------------------------
      1          6           0        1.944853   -0.138790    0.069845
      2          6           0        0.426126    0.543489   -0.057447
      3          1           0        2.621846    0.495607    0.286537
      4          1           0        2.281978   -0.786545   -0.745810
      5          1           0        1.988356   -0.512129    0.780541
      6          6           0       -0.564568   -0.466411    0.003885
      7          1           0        0.498777    1.520681   -1.239732
      8          1           0        0.210219    0.760687    0.610444
      9          6           0       -1.848135    0.032679   -0.023269
     10          1           0       -0.645571   -1.054976    0.956069
     11          1           0       -0.415122   -1.118985   -0.787829
     12          1           0       -2.227637    1.232041    1.186063
     13          1           0       -2.468032   -0.720369   -0.350898
     14          1           0       -1.594470    0.358189   -0.653469
 ---------------------------------------------------------------------

 SCF Done:  E(RB2PLYPD3) =  -157.428603711     A.U. after   12 cycles
 E2(B2PLYPD3) =    -0.2531319824D+00 E(B2PLYPD3) =    -0.15768173569370D+03

 The electronic state is 1-A.
 Alpha  occ. eigenvalues --  -10.60844 -10.59932 -10.59236 -10.56057  -1.01312
 Alpha  occ. eigenvalues --   -0.89256  -0.81410  -0.68421  -0.59026  -0.54319
 Alpha  occ. eigenvalues --   -0.50184  -0.48251  -0.43025  -0.41065  -0.40160
 Alpha  occ. eigenvalues --   -0.35810  -0.33391
 Alpha virt. eigenvalues --    0.01645   0.04489   0.06353   0.07526   0.10480
 Alpha virt. eigenvalues --    0.11176   0.12333   0.13161   0.14569   0.15242
 Alpha virt. eigenvalues --    0.15679   0.16924   0.17950   0.20103   0.21526

 Mulliken charges:
               1
     1  C   -0.271879
     2  C   -0.506341
     3  H    0.041480
     4  H    0.045878
     5  H    0.195963
     6  C   -0.006904
     7  H    0.009915
     8  H    0.466308
     9  C   -0.460919
    10  H    0.020879
    11  H    0.048416
    12  H   -0.018144
    13  H    0.070765
    14  H    0.364583
 Sum of Mulliken charges =   0.00000

 Dipole moment (field-independent basis, Debye):
    X=              0.5438    Y=             -0.8647    Z=             -0.1164  Tot=              1.0281
 Quadrupole moment (field-independent basis, Debye-Ang):
   XX=            -30.0612   YY=            -29.3333   ZZ=            -27.6973
   XY=              1.3633   XZ=              1.2206   YZ=              0.7276

 Normal termination of Gaussian 09 at Wed Aug 26 09:00:45 2020.
