 Gaussian 09, Revision D.01,
 Gaussian 09:  ES64L-G09RevD.01 24-Apr-2013

 --------------------
 #p B2PLYPD3/Def2QZVP
 --------------------

 ----------
 butane_opt
 ----------
 Symbolic Z-matrix:
 Charge =  0 Multiplicity = 1

                         Standard orientation:
 ---------------------------------------------------------------------
 Center     Atomic      Atomic             Coordinates (Angstroms)
 Number     Number       Type             X           Y           Z
 ---------------------------------------------------------------------
      1          6           0        1.968994   -0.156097    0.092626
      2          6           0        0.554547    0.627891   -0.176162
      3          1           0        2.580472    0.461988    0.467274
      4          1           0        2.811547   -0.712189   -0.652249
      5          1           0        2.009859   -1.052670    1.065745
      6          6           0       -0.629983   -0.528380   -0.174565
      7          1           0        0.560624    1.290310   -0.889362
      8          1           0        0.176422    1.313486    0.750927
      9          6           0       -1.923599    0.103837    0.112466
     10          1           0       -0.453642   -1.068117    0.429403
     11          1           0       -0.767327   -1.078580   -1.113644
     12          1           0       -1.834045    0.756163    1.117876
     13          1           0       -2.782207   -0.893413    0.406048
     14          1           0       -2.121454    0.699517   -0.708208
 ---------------------------------------------------------------------

 SCF Done:  E(RB2PLYPD3) =  -157.906352919     A.U. after   11 cycles
 E2(B2PLYPD3) =    -0.2504422290D+00 E(B2PLYPD3) =    -0.15815679514838D+03

 The electronic state is 1-A.
 Alpha  occ. eigenvalues --  -10.63366 -10.62993 -10.62321 -10.57921  -0.91358
 Alpha  occ. eigenvalues --   -0.82515  -0.72402  -0.70204  -0.54664  -0.49560
 Alpha  occ. eigenvalues --   -0.47202  -0.45217  -0.42728  -0.40775  -0.39956
 Alpha  occ. eigenvalues --   -0.37268  -0.34555
 Alpha virt. eigenvalues --    0.05238   0.05511   0.07911   0.08980   0.10118
 Alpha virt. eigenvalues --    0.10829   0.12183   0.13048   0.14608   0.15039
 Alpha virt. eigenvalues --    0.16077   0.16396   0.18768   0.19403   0.20380

 Mulliken charges:
               1
     1  C   -0.191759
     2  C   -0.057835
     3  H    0.085934
     4  H    0.041690
     5  H    0.004428
     6  C   -0.164722
     7  H    0.070761
     8  H    0.018098
     9  C   -0.162784
    10  H    0.194440
    11  H    0.031976
    12  H    0.031016
    13  H    0.018174
    14  H    0.080581
 Sum of Mulliken charges =   0.00000

 Dipole moment (field-independent basis, Debye):
    X=              0.3348    Y=              0.3360    Z=             -0.1210  Tot=              0.4895
 Quadrupole moment (field-independent basis, Debye-Ang):
   XX=            -30.4201   YY=            -28.5233   ZZ=            -28.9646
   XY=              0.3538   XZ=              0.3484   YZ=             -0.5956

 Normal termination of Gaussian 09 at Wed Aug 26 23:12:18 2020.
