 Gaussian 09, Revision D.01,
 Gaussian 09:  ES64L-G09RevD.01 24-Apr-2013

 --------------------
 #p B2PLYPD3/Def2QZVP
 --------------------

 ----------
 butane_opt
 ----------
 Symbolic Z-matrix:
 Charge =  0 Multiplicity = 1

                         Standard orientation:
 ---------------------------------------------------------------------
 Center     Atomic      Atomic             Coordinates (Angstroms)
 Number     Number       Type             X           Y           Z
 ---------------------------------------------------------------------
      1          6           0        1.909947   -0.108060    0.144247
      2          6           0        0.545490    0.489143   -0.278572
      3          1           0        2.723851    0.690938    0.714576
      4          1           0        2.938497   -1.073268   -0.812720
      5          1           0        1.583787   -0.300293    0.850582
      6          6           0       -0.539157   -0.547275   -0.030427
      7          1           0        0.614371    1.176366   -1.076914
      8          1           0        0.290906    1.022503    0.410457
      9          6           0       -1.885959    0.102072    0.033230
     10          1           0       -0.597345   -1.076605    0.927602
     11          1           0       -0.749096   -1.135824   -0.747296
     12          1           0       -1.862316    1.168133    0.999567
     13          1           0       -2.759827   -0.568076    0.248944
     14          1           0       -2.364753    0.480844   -0.725667
 ---------------------------------------------------------------------

 SCF Done:  E(RB2PLYPD3) =  -157.751957482     A.U. after   12 cycles
 E2(B2PLYPD3) =    -0.2533952000D+00 E(B2PLYPD3) =    -0.15800535268176D+03

 The electronic state is 1-A.
 Alpha  occ. eigenvalues --  -10.63138 -10.62334 -10.60395 -10.59738  -0.95379
 Alpha  occ. eigenvalues --   -0.86641  -0.74923  -0.70673  -0.56965  -0.51536
 Alpha  occ. eigenvalues --   -0.49228  -0.46263  -0.41867  -0.40430  -0.38891
 Alpha  occ. eigenvalues --   -0.36610  -0.34152
 Alpha virt. eigenvalues --    0.02011   0.04881   0.07491   0.08075   0.09105
 Alpha virt. eigenvalues --    0.10470   0.11432   0.13097   0.14693   0.15159
 Alpha virt. eigenvalues --    0.16115   0.17060   0.18687   0.18987   0.20798

 Mulliken charges:
               1
     1  C   -0.429388
     2  C   -0.120144
     3  H    0.019557
     4  H    0.022069
     5  H    0.313244
     6  C   -0.016505
     7  H    0.050321
     8  H    0.134656
     9  C   -0.138597
    10  H    0.058366
    11  H    0.052052
    12  H   -0.028674
    13  H    0.031959
    14  H    0.051085
 Sum of Mulliken charges =   0.00000

 Dipole moment (field-independent basis, Debye):
    X=             -0.8195    Y=             -0.0448    Z=             -0.0359  Tot=              0.8215
 Quadrupole moment (field-independent basis, Debye-Ang):
   XX=            -30.8032   YY=            -29.6973   ZZ=            -28.7028
   XY=              1.7051   XZ=              1.5589   YZ=             -0.0350

 Normal termination of Gaussian 09 at Wed Aug 26 11:17:14 2020.
