 Gaussian 09, Revision D.01,
 Gaussian 09:  ES64L-G09RevD.01 24-Apr-2013

 --------------------
 #p B2PLYPD3/Def2QZVP
 --------------------

 ----------
 butane_opt
 ----------
 Symbolic Z-matrix:
 Charge =  0 Multiplicity = 1

                         Standard orientation:
 ---------------------------------------------------------------------
 Center     Atomic      Atomic             Coordinates (Angstroms)
 Number     Number       Type             X           Y           Z
 ---------------------------------------------------------------------
      1          6           0       -2.065907   -0.207639   -0.142396
      2          6           0       -0.530687    0.562978    0.162578
      3          1           0       -2.790873    0.393357   -0.187687
      4          1           0       -2.440833   -0.462118    0.499703
      5          1           0       -2.120338   -1.060210   -1.121495
      6          6           0        0.666597   -0.381434    0.276210
      7          1           0       -0.677585    1.257169    0.979328
      8          1           0       -0.366937    1.270981   -0.860177
      9          6           0        1.915096    0.082919   -0.175415
     10          1           0        0.621361   -0.979542   -0.355190
     11          1           0        0.727649   -1.245247    1.390813
     12          1           0        1.941685    0.511501   -1.125949
     13          1           0        2.957520   -0.815157   -0.553403
     14          1           0        2.237759    0.788323    0.608193
 ---------------------------------------------------------------------

 SCF Done:  E(RB2PLYPD3) =  -157.766482959     A.U. after   11 cycles
 E2(B2PLYPD3) =    -0.2514635471D+00 E(B2PLYPD3) =    -0.15801794650608D+03

 The electronic state is 1-A.
 Alpha  occ. eigenvalues --  -10.65024 -10.62242 -10.60598 -10.58452  -0.93505
 Alpha  occ. eigenvalues --   -0.87390  -0.75788  -0.67946  -0.54640  -0.49267
 Alpha  occ. eigenvalues --   -0.48642  -0.47303  -0.43037  -0.41319  -0.37411
 Alpha  occ. eigenvalues --   -0.36325  -0.34802
 Alpha virt. eigenvalues --    0.04595   0.05975   0.06277   0.08345   0.10041
 Alpha virt. eigenvalues --    0.11297   0.11803   0.13565   0.13958   0.15070
 Alpha virt. eigenvalues --    0.15416   0.16984   0.18947   0.19476   0.21062

 Mulliken charges:
               1
     1  C   -0.326119
     2  C   -0.046468
     3  H    0.052578
     4  H    0.219314
     5  H    0.037261
     6  C   -0.147077
     7  H    0.051377
     8  H    0.019963
     9  C   -0.153728
    10  H    0.180026
    11  H   -0.002723
    12  H    0.057354
    13  H    0.003884
    14  H    0.054356
 Sum of Mulliken charges =   0.00000

 Dipole moment (field-independent basis, Debye):
    X=             -0.6395    Y=              0.3633    Z=             -0.1721  Tot=              0.7553
 Quadrupole moment (field-independent basis, Debye-Ang):
   XX=            -29.1889   YY=            -29.5655   ZZ=            -28.5200
   XY=             -0.1530   XZ=             -1.8364   YZ=              0.9560

 Normal termination of Gaussian 09 at Wed Aug 26 18:41:08 2020.
