 Gaussian 09, Revision D.01,
 Gaussian 09:  ES64L-G09RevD.01 24-Apr-2013

 --------------------
 #p B2PLYPD3/Def2QZVP
 --------------------

 ----------
 butane_opt
 ----------
 Symbolic Z-matrix:
 Charge =  0 Multiplicity = 1

                         Standard orientation:
 ---------------------------------------------------------------------
 Center     Atomic      Atomic             Coordinates (Angstroms)
 Number     Number       Type             X           Y           Z
 ---------------------------------------------------------------------
      1          6           0       -1.951457   -0.177547   -0.086819
      2          6           0       -0.481286    0.588443    0.076709
      3          1           0       -2.733664    0.456462   -0.211238
      4          1           0       -2.060887   -0.493224    0.644090
      5          1           0       -2.160168   -1.087856   -0.960571
      6          6           0        0.603669   -0.429147    0.336862
      7          1           0       -0.297979    1.467805    0.879857
      8          1           0       -0.310320    1.145933   -0.896649
      9          6           0        1.791823    0.101610   -0.195797
     10          1           0        0.537975   -1.364763   -0.426002
     11          1           0        0.725283   -1.023656    1.309272
     12          1           0        1.436803    0.538436   -0.926027
     13          1           0        2.657469   -0.883700   -0.696393
     14          1           0        2.428992    0.744408    0.497934
 ---------------------------------------------------------------------

 SCF Done:  E(RB2PLYPD3) =  -157.884356609     A.U. after   11 cycles
 E2(B2PLYPD3) =    -0.2507299473D+00 E(B2PLYPD3) =    -0.15813508655604D+03

 The electronic state is 1-A.
 Alpha  occ. eigenvalues --  -10.63987 -10.61497 -10.60346 -10.58824  -0.93733
 Alpha  occ. eigenvalues --   -0.85149  -0.73547  -0.66619  -0.54319  -0.52122
 Alpha  occ. eigenvalues --   -0.48238  -0.46209  -0.43794  -0.41199  -0.40148
 Alpha  occ. eigenvalues --   -0.36593  -0.33200
 Alpha virt. eigenvalues --    0.05093   0.06036   0.07072   0.08080   0.10442
 Alpha virt. eigenvalues --    0.10942   0.12470   0.14053   0.14668   0.15777
 Alpha virt. eigenvalues --    0.16023   0.16704   0.18164   0.19819   0.21157

 Mulliken charges:
               1
     1  C   -0.315733
     2  C   -0.077032
     3  H    0.046603
     4  H    0.232789
     5  H    0.034704
     6  C   -0.010585
     7  H    0.032964
     8  H    0.033509
     9  C   -0.183082
    10  H    0.022375
    11  H    0.038934
    12  H    0.111535
    13  H   -0.009692
    14  H    0.042711
 Sum of Mulliken charges =   0.00000

 Dipole moment (field-independent basis, Debye):
    X=             -0.5647    Y=              0.2361    Z=              0.2211  Tot=              0.6508
 Quadrupole moment (field-independent basis, Debye-Ang):
   XX=            -30.6564   YY=            -28.8537   ZZ=            -28.6394
   XY=              0.3029   XZ=              0.6279   YZ=              0.0216

 Normal termination of Gaussian 09 at Wed Aug 26 23:56:34 2020.
