 Gaussian 09, Revision D.01,
 Gaussian 09:  ES64L-G09RevD.01 24-Apr-2013

 --------------------
 #p B2PLYPD3/Def2QZVP
 --------------------

 ----------
 butane_opt
 ----------
 Symbolic Z-matrix:
 Charge =  0 Multiplicity = 1

                         Standard orientation:
 ---------------------------------------------------------------------
 Center     Atomic      Atomic             Coordinates (Angstroms)
 Number     Number       Type             X           Y           Z
 ---------------------------------------------------------------------
      1          6           0       -2.007956    0.091310   -0.128499
      2          6           0       -0.620513   -0.459568    0.034187
      3          1           0       -2.846876   -0.823529    0.050777
      4          1           0       -2.042619    0.919746   -1.098561
      5          1           0       -2.192778    0.589046    0.717638
      6          6           0        0.571053    0.514318    0.257601
      7          1           0       -0.463370   -0.956661   -0.632158
      8          1           0       -0.609558   -1.144130    0.874436
      9          6           0        2.037710   -0.136546   -0.143462
     10          1           0        0.633676    1.329135    1.302342
     11          1           0        0.531141    1.203095   -0.563899
     12          1           0        2.508546   -1.141399    0.898116
     13          1           0        2.766780    0.452945   -0.596220
     14          1           0        1.833286   -0.485330   -1.071432
 ---------------------------------------------------------------------

 SCF Done:  E(RB2PLYPD3) =  -157.894373988     A.U. after   11 cycles
 E2(B2PLYPD3) =    -0.2517040660D+00 E(B2PLYPD3) =    -0.15814607805362D+03

 The electronic state is 1-A.
 Alpha  occ. eigenvalues --  -10.64353 -10.63499 -10.62464 -10.58364  -0.91832
 Alpha  occ. eigenvalues --   -0.83321  -0.73743  -0.68287  -0.54045  -0.48532
 Alpha  occ. eigenvalues --   -0.47873  -0.45680  -0.42118  -0.40347  -0.38244
 Alpha  occ. eigenvalues --   -0.37980  -0.35123
 Alpha virt. eigenvalues --    0.04348   0.05318   0.07864   0.07988   0.09897
 Alpha virt. eigenvalues --    0.10814   0.12075   0.12475   0.13745   0.14306
 Alpha virt. eigenvalues --    0.16009   0.16555   0.18500   0.19311   0.19652

 Mulliken charges:
               1
     1  C   -0.155747
     2  C   -0.130684
     3  H    0.036221
     4  H    0.031879
     5  H    0.071135
     6  C   -0.056884
     7  H    0.156049
     8  H    0.021205
     9  C   -0.188188
    10  H    0.023564
    11  H    0.038035
    12  H    0.019645
    13  H    0.065407
    14  H    0.068363
 Sum of Mulliken charges =   0.00000

 Dipole moment (field-independent basis, Debye):
    X=             -0.1581    Y=              0.1244    Z=             -0.4978  Tot=              0.5369
 Quadrupole moment (field-independent basis, Debye-Ang):
   XX=            -31.0812   YY=            -29.5810   ZZ=            -28.2672
   XY=              1.1424   XZ=             -2.2345   YZ=             -0.7646

 Normal termination of Gaussian 09 at Wed Aug 26 13:05:03 2020.
