 Gaussian 09, Revision D.01,
 Gaussian 09:  ES64L-G09RevD.01 24-Apr-2013

 --------------------
 #p B2PLYPD3/Def2QZVP
 --------------------

 ----------
 butane_opt
 ----------
 Symbolic Z-matrix:
 Charge =  0 Multiplicity = 1

                         Standard orientation:
 ---------------------------------------------------------------------
 Center     Atomic      Atomic             Coordinates (Angstroms)
 Number     Number       Type             X           Y           Z
 ---------------------------------------------------------------------
      1          6           0       -1.945321   -0.109072   -0.109457
      2          6           0       -0.615177    0.469014    0.140153
      3          1           0       -2.726037    0.758916   -0.471599
      4          1           0       -2.429154   -0.930913    0.845880
      5          1           0       -1.921430   -0.480884   -0.859743
      6          6           0        0.538035   -0.525870    0.044038
      7          1           0       -0.422353    1.394507    1.250973
      8          1           0       -0.423782    0.919785   -0.574010
      9          6           0        2.009067    0.114309   -0.034687
     10          1           0        0.376246   -1.014141   -0.852932
     11          1           0        0.477672   -1.300623    0.961285
     12          1           0        2.113721    1.008604   -1.026621
     13          1           0        2.800517   -0.684705   -0.243134
     14          1           0        2.234973    0.639161    0.729613
 ---------------------------------------------------------------------

 SCF Done:  E(RB2PLYPD3) =  -157.867416020     A.U. after   11 cycles
 E2(B2PLYPD3) =    -0.2499783733D+00 E(B2PLYPD3) =    -0.15811739439360D+03

 The electronic state is 1-A.
 Alpha  occ. eigenvalues --  -10.62356 -10.62327 -10.61379 -10.61318  -0.93702
 Alpha  occ. eigenvalues --   -0.83951  -0.74970  -0.67690  -0.54883  -0.50737
 Alpha  occ. eigenvalues --   -0.48033  -0.45434  -0.44485  -0.39977  -0.38900
 Alpha  occ. eigenvalues --   -0.36684  -0.35984
 Alpha virt. eigenvalues --    0.04718   0.06002   0.07152   0.08222   0.10414
 Alpha virt. eigenvalues --    0.10862   0.12113   0.12919   0.14040   0.14836
 Alpha virt. eigenvalues --    0.15780   0.16324   0.18817   0.19470   0.20253

 Mulliken charges:
               1
     1  C   -0.278359
     2  C   -0.158607
     3  H    0.035044
     4  H    0.037181
     5  H    0.182598
     6  C   -0.040150
     7  H   -0.015464
     8  H    0.187791
     9  C   -0.163936
    10  H    0.055632
    11  H    0.018617
    12  H   -0.006135
    13  H    0.055764
    14  H    0.090024
 Sum of Mulliken charges =   0.00000

 Dipole moment (field-independent basis, Debye):
    X=              0.1438    Y=             -0.3006    Z=             -0.6478  Tot=              0.7285
 Quadrupole moment (field-independent basis, Debye-Ang):
   XX=            -30.1070   YY=            -29.7920   ZZ=            -28.6138
   XY=             -0.0398   XZ=              1.5380   YZ=             -0.3706

 Normal termination of Gaussian 09 at Wed Aug 26 22:49:42 2020.
