 Gaussian 09, Revision D.01,
 Gaussian 09:  ES64L-G09RevD.01 24-Apr-2013

 --------------------
 #p B2PLYPD3/Def2QZVP
 --------------------

 ----------
 butane_opt
 ----------
 Symbolic Z-matrix:
 Charge =  0 Multiplicity = 1

                         Standard orientation:
 ---------------------------------------------------------------------
 Center     Atomic      Atomic             Coordinates (Angstroms)
 Number     Number       Type             X           Y           Z
 ---------------------------------------------------------------------
      1          6           0        1.885362    0.010014   -0.220972
      2          6           0        0.574546   -0.338816    0.327083
      3          1           0        2.681889   -1.026263   -0.543257
      4          1           0        2.296638    0.863172    0.498323
      5          1           0        1.671067    0.482220   -1.067739
      6          6           0       -0.452555    0.609954    0.107518
      7          1           0        0.811023   -0.918222    1.526970
      8          1           0        0.223899   -1.009589   -0.197815
      9          6           0       -2.026143   -0.230978   -0.111259
     10          1           0       -0.304010    1.208327   -1.057422
     11          1           0       -0.453174    1.357131    0.821052
     12          1           0       -1.911493   -1.446647   -1.079042
     13          1           0       -2.853304    0.694458   -0.243598
     14          1           0       -2.049791   -0.505626    0.728309
 ---------------------------------------------------------------------

 SCF Done:  E(RB2PLYPD3) =  -157.829005938     A.U. after   11 cycles
 E2(B2PLYPD3) =    -0.2554225947D+00 E(B2PLYPD3) =    -0.15808442853230D+03

 The electronic state is 1-A.
 Alpha  occ. eigenvalues --  -10.65227 -10.63829 -10.61878 -10.59969  -0.94010
 Alpha  occ. eigenvalues --   -0.81827  -0.73947  -0.67123  -0.54474  -0.49373
 Alpha  occ. eigenvalues --   -0.47726  -0.44977  -0.42597  -0.39328  -0.38678
 Alpha  occ. eigenvalues --   -0.36255  -0.33785
 Alpha virt. eigenvalues --    0.02771   0.05093   0.06038   0.07692   0.09883
 Alpha virt. eigenvalues --    0.10985   0.11179   0.12597   0.13565   0.14830
 Alpha virt. eigenvalues --    0.15040   0.15862   0.17828   0.19161   0.20160

 Mulliken charges:
               1
     1  C   -0.159470
     2  C   -0.077379
     3  H    0.031459
     4  H    0.037126
     5  H    0.073896
     6  C   -0.074714
     7  H   -0.002996
     8  H    0.108539
     9  C   -0.279844
    10  H    0.003149
    11  H    0.069582
    12  H    0.033515
    13  H    0.057395
    14  H    0.179742
 Sum of Mulliken charges =   0.00000

 Dipole moment (field-independent basis, Debye):
    X=             -0.2857    Y=              0.2053    Z=              0.1257  Tot=              0.3736
 Quadrupole moment (field-independent basis, Debye-Ang):
   XX=            -31.8255   YY=            -28.9659   ZZ=            -29.3829
   XY=             -0.7811   XZ=             -0.7916   YZ=              0.9797

 Normal termination of Gaussian 09 at Wed Aug 26 12:19:20 2020.
