 Gaussian 09, Revision D.01,
 Gaussian 09:  ES64L-G09RevD.01 24-Apr-2013

 --------------------
 #p B2PLYPD3/Def2QZVP
 --------------------

 ----------
 butane_opt
 ----------
 Symbolic Z-matrix:
 Charge =  0 Multiplicity = 1

                         Standard orientation:
 ---------------------------------------------------------------------
 Center     Atomic      Atomic             Coordinates (Angstroms)
 Number     Number       Type             X           Y           Z
 ---------------------------------------------------------------------
      1          6           0       -1.889058   -0.055162    0.128760
      2          6           0       -0.520549    0.465311   -0.147056
      3          1           0       -2.775514    0.625590   -0.375973
      4          1           0       -2.312859   -1.159578    1.402234
      5          1           0       -1.868019   -0.375879   -0.516919
      6          6           0        0.539413   -0.549609   -0.209398
      7          1           0       -0.309025    1.124361    0.747143
      8          1           0       -0.627981    1.249170   -1.100817
      9          6           0        1.973072    0.095673    0.099962
     10          1           0        0.508852   -1.142842   -0.888154
     11          1           0        0.021546   -1.061996    0.646215
     12          1           0        2.030405    0.299138   -0.537890
     13          1           0        2.726054   -0.606016    0.043462
     14          1           0        1.989275    1.310774    1.347089
 ---------------------------------------------------------------------

 SCF Done:  E(RB2PLYPD3) =  -157.314979534     A.U. after   12 cycles
 E2(B2PLYPD3) =    -0.2581616393D+00 E(B2PLYPD3) =    -0.15757314117368D+03

 The electronic state is 1-A.
 Alpha  occ. eigenvalues --  -10.63013 -10.61666 -10.61351 -10.60045  -0.96420
 Alpha  occ. eigenvalues --   -0.90497  -0.79866  -0.68328  -0.54903  -0.51759
 Alpha  occ. eigenvalues --   -0.49262  -0.48102  -0.40415  -0.38367  -0.37151
 Alpha  occ. eigenvalues --   -0.36294  -0.34905
 Alpha virt. eigenvalues --    0.00883   0.01085   0.05944   0.07360   0.09593
 Alpha virt. eigenvalues --    0.10136   0.11898   0.12907   0.13973   0.15486
 Alpha virt. eigenvalues --    0.15721   0.16306   0.18043   0.18957   0.20573

 Mulliken charges:
               1
     1  C   -0.653872
     2  C    0.017550
     3  H    0.057387
     4  H    0.020150
     5  H    0.502497
     6  C   -0.067550
     7  H    0.045491
     8  H    0.004104
     9  C   -0.665455
    10  H    0.076190
    11  H    0.033208
    12  H    0.527091
    13  H    0.078265
    14  H    0.024943
 Sum of Mulliken charges =   0.00000

 Dipole moment (field-independent basis, Debye):
    X=              0.3295    Y=             -0.3651    Z=             -1.2623  Tot=              1.3547
 Quadrupole moment (field-independent basis, Debye-Ang):
   XX=            -30.5162   YY=            -29.6532   ZZ=            -28.3830
   XY=             -0.6853   XZ=              0.0288   YZ=              0.4249

 Normal termination of Gaussian 09 at Wed Aug 26 13:39:42 2020.
