 Gaussian 09, Revision D.01,
 Gaussian 09:  ES64L-G09RevD.01 24-Apr-2013

 --------------------
 #p B2PLYPD3/Def2QZVP
 --------------------

 ----------
 butane_opt
 ----------
 Symbolic Z-matrix:
 Charge =  0 Multiplicity = 1

                         Standard orientation:
 ---------------------------------------------------------------------
 Center     Atomic      Atomic             Coordinates (Angstroms)
 Number     Number       Type             X           Y           Z
 ---------------------------------------------------------------------
      1          6           0        1.958301    0.020694   -0.085063
      2          6           0        0.548657   -0.518351    0.128316
      3          1           0        2.635748   -0.548334   -0.037994
      4          1           0        2.052954    0.715408    0.644218
      5          1           0        2.042580    0.743641   -1.036199
      6          6           0       -0.501932    0.633069    0.093104
      7          1           0        0.624340   -1.035461    1.005265
      8          1           0        0.446829   -1.137822   -0.752182
      9          6           0       -2.022677   -0.186801   -0.149070
     10          1           0       -0.110597    0.796686   -0.479527
     11          1           0       -0.665813    1.672658    1.038214
     12          1           0       -1.643980   -0.363217   -0.630059
     13          1           0       -2.704740    0.422645   -0.658956
     14          1           0       -2.571411   -0.957871    0.983499
 ---------------------------------------------------------------------

 SCF Done:  E(RB2PLYPD3) =  -157.326879911     A.U. after   12 cycles
 E2(B2PLYPD3) =    -0.2525799761D+00 E(B2PLYPD3) =    -0.15757945988745D+03

 The electronic state is 1-A.
 Alpha  occ. eigenvalues --  -10.61456 -10.60686 -10.60416 -10.57811  -0.96023
 Alpha  occ. eigenvalues --   -0.87816  -0.80156  -0.69788  -0.54806  -0.52679
 Alpha  occ. eigenvalues --   -0.51577  -0.47082  -0.42592  -0.40479  -0.39794
 Alpha  occ. eigenvalues --   -0.37519  -0.32861
 Alpha virt. eigenvalues --    0.04615   0.06287   0.06908   0.08683   0.09803
 Alpha virt. eigenvalues --    0.11252   0.12475   0.13378   0.14043   0.15199
 Alpha virt. eigenvalues --    0.15471   0.17336   0.18232   0.19600   0.20996

 Mulliken charges:
               1
     1  C   -0.180775
     2  C   -0.025587
     3  H    0.083250
     4  H    0.059745
     5  H    0.011284
     6  C   -0.591859
     7  H    0.039291
     8  H    0.040500
     9  C   -0.744975
    10  H    0.522766
    11  H    0.028531
    12  H    0.606239
    13  H    0.086193
    14  H    0.065398
 Sum of Mulliken charges =   0.00000

 Dipole moment (field-independent basis, Debye):
    X=              0.4261    Y=             -0.3375    Z=             -0.2417  Tot=              0.5949
 Quadrupole moment (field-independent basis, Debye-Ang):
   XX=            -28.5661   YY=            -29.2019   ZZ=            -27.7017
   XY=             -0.6811   XZ=              0.0957   YZ=             -0.5793

 Normal termination of Gaussian 09 at Wed Aug 26 22:11:31 2020.
