 Gaussian 09, Revision D.01,
 Gaussian 09:  ES64L-G09RevD.01 24-Apr-2013

 --------------------
 #p B2PLYPD3/Def2QZVP
 --------------------

 ----------
 butane_opt
 ----------
 Symbolic Z-matrix:
 Charge =  0 Multiplicity = 1

                         Standard orientation:
 ---------------------------------------------------------------------
 Center     Atomic      Atomic             Coordinates (Angstroms)
 Number     Number       Type             X           Y           Z
 ---------------------------------------------------------------------
      1          6           0       -1.868941    0.100376   -0.175124
      2          6           0       -0.537733   -0.550959    0.223250
      3          1           0       -2.800987   -0.830484   -0.287855
      4          1           0       -1.975811    1.182064   -1.242811
      5          1           0       -2.372204    0.544184    0.586842
      6          6           0        0.521555    0.536252    0.289402
      7          1           0       -0.100367   -1.363115   -0.785641
      8          1           0       -0.807709   -1.100171    0.961264
      9          6           0        1.945672   -0.095512   -0.227206
     10          1           0        0.537807    1.385599    1.415280
     11          1           0        0.023841    1.038458   -0.388309
     12          1           0        2.757038   -0.998078    0.810914
     13          1           0        2.802749    0.590131   -0.758937
     14          1           0        1.572332   -0.389530   -0.972679
 ---------------------------------------------------------------------

 SCF Done:  E(RB2PLYPD3) =  -157.770656506     A.U. after   11 cycles
 E2(B2PLYPD3) =    -0.2585335203D+00 E(B2PLYPD3) =    -0.15802919002615D+03

 The electronic state is 1-A.
 Alpha  occ. eigenvalues --  -10.65887 -10.64657 -10.64282 -10.63903  -0.92991
 Alpha  occ. eigenvalues --   -0.83200  -0.73160  -0.67809  -0.53601  -0.49609
 Alpha  occ. eigenvalues --   -0.46329  -0.45102  -0.40520  -0.38369  -0.37797
 Alpha  occ. eigenvalues --   -0.36039  -0.35519
 Alpha virt. eigenvalues --    0.02993   0.03446   0.05687   0.07112   0.08687
 Alpha virt. eigenvalues --    0.10002   0.11154   0.11775   0.13568   0.14533
 Alpha virt. eigenvalues --    0.15835   0.16657   0.17889   0.18842   0.19441

 Mulliken charges:
               1
     1  C   -0.172663
     2  C   -0.026296
     3  H    0.023158
     4  H    0.012150
     5  H    0.076937
     6  C   -0.106506
     7  H    0.003090
     8  H    0.081876
     9  C   -0.254324
    10  H    0.006512
    11  H    0.108669
    12  H    0.030751
    13  H    0.035824
    14  H    0.180821
 Sum of Mulliken charges =   0.00000

 Dipole moment (field-independent basis, Debye):
    X=             -0.4283    Y=             -0.0294    Z=              0.1070  Tot=              0.4425
 Quadrupole moment (field-independent basis, Debye-Ang):
   XX=            -30.5737   YY=            -30.6377   ZZ=            -29.6231
   XY=              0.0585   XZ=             -2.1503   YZ=             -0.8812

 Normal termination of Gaussian 09 at Wed Aug 26 11:30:03 2020.
