 Gaussian 09, Revision D.01,
 Gaussian 09:  ES64L-G09RevD.01 24-Apr-2013

 --------------------
 #p B2PLYPD3/Def2QZVP
 --------------------

 ----------
 butane_opt
 ----------
 Symbolic Z-matrix:
 Charge =  0 Multiplicity = 1

                         Standard orientation:
 ---------------------------------------------------------------------
 Center     Atomic      Atomic             Coordinates (Angstroms)
 Number     Number       Type             X           Y           Z
 ---------------------------------------------------------------------
      1          6           0        1.959981   -0.142454   -0.095202
      2          6           0        0.522194    0.585617    0.093483
      3          1           0        2.659324    0.604823   -0.339506
      4          1           0        1.880929   -0.663967   -0.890023
      5          1           0        2.329341   -0.890053    0.903786
      6          6           0       -0.593639   -0.501175    0.061559
      7          1           0        0.412009    0.910896   -0.513924
      8          1           0        0.375026    1.347740    1.154235
      9          6           0       -1.874918    0.111194   -0.083599
     10          1           0       -0.482683   -1.228593    0.944883
     11          1           0       -0.460231   -1.133516   -0.817925
     12          1           0       -2.115606    0.606729    0.675934
     13          1           0       -2.703181   -0.769069    0.084414
     14          1           0       -1.976639    0.895916   -1.059324
 ---------------------------------------------------------------------

 SCF Done:  E(RB2PLYPD3) =  -157.782521339     A.U. after   11 cycles
 E2(B2PLYPD3) =    -0.2484514988D+00 E(B2PLYPD3) =    -0.15803097283824D+03

 The electronic state is 1-A.
 Alpha  occ. eigenvalues --  -10.60577 -10.60467 -10.60366 -10.59530  -0.93675
 Alpha  occ. eigenvalues --   -0.84823  -0.75095  -0.68690  -0.54898  -0.49775
 Alpha  occ. eigenvalues --   -0.48787  -0.47049  -0.43383  -0.41128  -0.39247
 Alpha  occ. eigenvalues --   -0.37535  -0.35533
 Alpha virt. eigenvalues --    0.05225   0.06457   0.07824   0.08284   0.10892
 Alpha virt. eigenvalues --    0.11467   0.12411   0.13781   0.14773   0.15192
 Alpha virt. eigenvalues --    0.15427   0.16314   0.19046   0.19455   0.21328

 Mulliken charges:
               1
     1  C   -0.148460
     2  C   -0.585157
     3  H    0.049032
     4  H    0.082216
     5  H    0.030545
     6  C    0.021921
     7  H    0.490574
     8  H    0.032267
     9  C   -0.156042
    10  H    0.027168
    11  H    0.035295
    12  H    0.070706
    13  H    0.022543
    14  H    0.027392
 Sum of Mulliken charges =   0.00000

 Dipole moment (field-independent basis, Debye):
    X=              0.0067    Y=              0.0803    Z=             -0.2345  Tot=              0.2479
 Quadrupole moment (field-independent basis, Debye-Ang):
   XX=            -30.6126   YY=            -28.7732   ZZ=            -27.9382
   XY=              0.0133   XZ=             -1.3859   YZ=             -0.5739

 Normal termination of Gaussian 09 at Wed Aug 26 09:52:12 2020.
