 Gaussian 09, Revision D.01,
 Gaussian 09:  ES64L-G09RevD.01 24-Apr-2013

 --------------------
 #p B2PLYPD3/Def2QZVP
 --------------------

 ----------
 butane_opt
 ----------
 Symbolic Z-matrix:
 Charge =  0 Multiplicity = 1

                         Standard orientation:
 ---------------------------------------------------------------------
 Center     Atomic      Atomic             Coordinates (Angstroms)
 Number     Number       Type             X           Y           Z
 ---------------------------------------------------------------------
      1          6           0       -1.970746   -0.072389    0.089692
      2          6           0       -0.584741    0.432192   -0.139814
      3          1           0       -2.881637    0.797838   -0.129400
      4          1           0       -2.358628   -1.041536    1.326523
      5          1           0       -1.866068   -0.495462   -0.659139
      6          6           0        0.512218   -0.553580   -0.094873
      7          1           0       -0.430517    1.048118    0.595571
      8          1           0       -0.661243    1.396475   -1.171169
      9          6           0        2.025962    0.166675    0.099123
     10          1           0        0.719703   -1.034470   -0.907141
     11          1           0        0.266859   -1.313525    0.793112
     12          1           0        1.959565    0.087007   -0.413623
     13          1           0        2.854163   -0.691892   -0.528566
     14          1           0        2.501650    1.410065    1.369065
 ---------------------------------------------------------------------

 SCF Done:  E(RB2PLYPD3) =  -156.828379898     A.U. after   14 cycles
 E2(B2PLYPD3) =    -0.2653981311D+00 E(B2PLYPD3) =    -0.15709377802868D+03

 The electronic state is 1-A.
 Alpha  occ. eigenvalues --  -10.67066 -10.63742 -10.63580 -10.63149  -0.97099
 Alpha  occ. eigenvalues --   -0.91082  -0.77472  -0.68311  -0.52514  -0.51575
 Alpha  occ. eigenvalues --   -0.46889  -0.44368  -0.40428  -0.39926  -0.37608
 Alpha  occ. eigenvalues --   -0.34705  -0.32047
 Alpha virt. eigenvalues --   -0.03039   0.02326   0.04109   0.05017   0.08560
 Alpha virt. eigenvalues --    0.10254   0.10790   0.11950   0.13526   0.15146
 Alpha virt. eigenvalues --    0.15873   0.16134   0.17398   0.18067   0.19785

 Mulliken charges:
               1
     1  C   -0.284500
     2  C   -0.061700
     3  H    0.049012
     4  H    0.013021
     5  H    0.199949
     6  C   -0.059847
     7  H    0.081563
     8  H   -0.006580
     9  C   -1.109675
    10  H    0.064116
    11  H    0.055904
    12  H    0.953482
    13  H    0.010629
    14  H    0.094626
 Sum of Mulliken charges =   0.00000

 Dipole moment (field-independent basis, Debye):
    X=             -0.1619    Y=              0.3234    Z=             -0.6298  Tot=              0.7262
 Quadrupole moment (field-independent basis, Debye-Ang):
   XX=            -32.6382   YY=            -29.4789   ZZ=            -28.2283
   XY=              0.1072   XZ=             -0.1704   YZ=              1.5865

 Normal termination of Gaussian 09 at Wed Aug 26 13:08:06 2020.
