 Gaussian 09, Revision D.01,
 Gaussian 09:  ES64L-G09RevD.01 24-Apr-2013

 --------------------
 #p B2PLYPD3/Def2QZVP
 --------------------

 ----------
 butane_opt
 ----------
 Symbolic Z-matrix:
 Charge =  0 Multiplicity = 1

                         Standard orientation:
 ---------------------------------------------------------------------
 Center     Atomic      Atomic             Coordinates (Angstroms)
 Number     Number       Type             X           Y           Z
 ---------------------------------------------------------------------
      1          6           0       -2.035609   -0.141499   -0.055677
      2          6           0       -0.563216    0.558403    0.002985
      3          1           0       -2.777367    0.551623   -0.036921
      4          1           0       -2.194696   -0.737456    0.901266
      5          1           0       -1.991024   -0.880023   -0.876547
      6          6           0        0.568644   -0.483888    0.115325
      7          1           0       -0.467606    1.274519    0.873199
      8          1           0       -0.210498    1.185771   -0.913809
      9          6           0        1.956693    0.070209   -0.045205
     10          1           0        0.545383   -1.222420   -0.859217
     11          1           0        0.520153   -1.031803    0.991468
     12          1           0        1.963227    0.739731   -0.929299
     13          1           0        2.831520   -0.787576   -0.106783
     14          1           0        2.221836    0.888292    0.852077
 ---------------------------------------------------------------------

 SCF Done:  E(RB2PLYPD3) =  -158.073878471     A.U. after   11 cycles
 E2(B2PLYPD3) =    -0.2490822294D+00 E(B2PLYPD3) =    -0.15832296070050D+03

 The electronic state is 1-A.
 Alpha  occ. eigenvalues --  -10.62830 -10.62767 -10.61355 -10.60974  -0.90104
 Alpha  occ. eigenvalues --   -0.82023  -0.72017  -0.65400  -0.53380  -0.50004
 Alpha  occ. eigenvalues --   -0.47465  -0.45804  -0.43187  -0.40121  -0.39078
 Alpha  occ. eigenvalues --   -0.37758  -0.35790
 Alpha virt. eigenvalues --    0.05492   0.06523   0.07829   0.08646   0.10452
 Alpha virt. eigenvalues --    0.11627   0.12678   0.13882   0.14366   0.14911
 Alpha virt. eigenvalues --    0.15161   0.15997   0.19285   0.20050   0.21390

 Mulliken charges:
               1
     1  C   -0.146949
     2  C   -0.072772
     3  H    0.063840
     4  H    0.033562
     5  H    0.062077
     6  C   -0.016231
     7  H    0.031370
     8  H    0.027370
     9  C   -0.156504
    10  H    0.002637
    11  H    0.056545
    12  H    0.047773
    13  H    0.051129
    14  H    0.016155
 Sum of Mulliken charges =   0.00000

 Dipole moment (field-independent basis, Debye):
    X=             -0.2545    Y=             -0.0332    Z=              0.0731  Tot=              0.2668
 Quadrupole moment (field-independent basis, Debye-Ang):
   XX=            -29.9850   YY=            -29.2855   ZZ=            -28.8398
   XY=             -0.6045   XZ=             -0.6569   YZ=              0.0273

 Normal termination of Gaussian 09 at Wed Aug 26 10:11:32 2020.
