 Gaussian 09, Revision D.01,
 Gaussian 09:  ES64L-G09RevD.01 24-Apr-2013

 --------------------
 #p B2PLYPD3/Def2QZVP
 --------------------

 ----------
 butane_opt
 ----------
 Symbolic Z-matrix:
 Charge =  0 Multiplicity = 1

                         Standard orientation:
 ---------------------------------------------------------------------
 Center     Atomic      Atomic             Coordinates (Angstroms)
 Number     Number       Type             X           Y           Z
 ---------------------------------------------------------------------
      1          6           0       -1.944701    0.100370    0.118799
      2          6           0       -0.569347   -0.483231   -0.245811
      3          1           0       -2.748631   -0.667930    0.490628
      4          1           0       -2.470846    0.806723   -0.746035
      5          1           0       -1.762412    0.573352    0.993902
      6          6           0        0.572555    0.565655   -0.036660
      7          1           0       -0.642150   -1.095328   -1.094191
      8          1           0       -0.578711   -1.128696    0.512520
      9          6           0        1.973598   -0.177062    0.089559
     10          1           0        0.418207    1.073292    0.835661
     11          1           0        0.493747    1.340457   -0.876880
     12          1           0        2.073543   -0.973416    1.046521
     13          1           0        2.747066    0.656607    0.021771
     14          1           0        2.277561   -0.619454   -0.739218
 ---------------------------------------------------------------------

 SCF Done:  E(RB2PLYPD3) =  -158.047441930     A.U. after   11 cycles
 E2(B2PLYPD3) =    -0.2477806088D+00 E(B2PLYPD3) =    -0.15829522253914D+03

 The electronic state is 1-A.
 Alpha  occ. eigenvalues --  -10.61568 -10.61298 -10.60886 -10.59000  -0.90859
 Alpha  occ. eigenvalues --   -0.82851  -0.72481  -0.68290  -0.53907  -0.49233
 Alpha  occ. eigenvalues --   -0.47528  -0.46608  -0.42325  -0.41352  -0.40374
 Alpha  occ. eigenvalues --   -0.36764  -0.36510
 Alpha virt. eigenvalues --    0.05615   0.06518   0.08284   0.08967   0.10884
 Alpha virt. eigenvalues --    0.11412   0.12585   0.13619   0.14614   0.15409
 Alpha virt. eigenvalues --    0.15832   0.16315   0.19209   0.19627   0.21435

 Mulliken charges:
               1
     1  C   -0.158343
     2  C   -0.061179
     3  H    0.025602
     4  H    0.026111
     5  H    0.063638
     6  C   -0.057662
     7  H    0.042506
     8  H    0.054635
     9  C   -0.155618
    10  H    0.065752
    11  H    0.026603
    12  H    0.040916
    13  H    0.029980
    14  H    0.057059
 Sum of Mulliken charges =   0.00000

 Dipole moment (field-independent basis, Debye):
    X=              0.2102    Y=             -0.1272    Z=              0.0921  Tot=              0.2624
 Quadrupole moment (field-independent basis, Debye-Ang):
   XX=            -30.5515   YY=            -28.7977   ZZ=            -28.0464
   XY=              0.5011   XZ=             -0.9044   YZ=             -0.3773

 Normal termination of Gaussian 09 at Wed Aug 26 18:54:09 2020.
