 Gaussian 09, Revision D.01,
 Gaussian 09:  ES64L-G09RevD.01 24-Apr-2013

 --------------------
 #p B2PLYPD3/Def2QZVP
 --------------------

 ----------
 butane_opt
 ----------
 Symbolic Z-matrix:
 Charge =  0 Multiplicity = 1

                         Standard orientation:
 ---------------------------------------------------------------------
 Center     Atomic      Atomic             Coordinates (Angstroms)
 Number     Number       Type             X           Y           Z
 ---------------------------------------------------------------------
      1          6           0       -1.987458   -0.128644   -0.067212
      2          6           0       -0.579343    0.554781    0.041866
      3          1           0       -2.688903    0.572154    0.015502
      4          1           0       -2.189478   -0.677519    0.848520
      5          1           0       -2.276855   -1.013277   -1.058137
      6          6           0        0.616196   -0.500321    0.132513
      7          1           0       -0.638770    1.267305    0.914791
      8          1           0       -0.204012    1.194357   -0.918094
      9          6           0        1.939456    0.122876   -0.099967
     10          1           0        0.441234   -1.096734   -0.625462
     11          1           0        0.605115   -1.184558    1.177048
     12          1           0        1.773264    0.576235   -0.926438
     13          1           0        2.862375   -0.776264   -0.311756
     14          1           0        2.382922    0.846148    0.840826
 ---------------------------------------------------------------------

 SCF Done:  E(RB2PLYPD3) =  -157.998717959     A.U. after   11 cycles
 E2(B2PLYPD3) =    -0.2501282497D+00 E(B2PLYPD3) =    -0.15824884620853D+03

 The electronic state is 1-A.
 Alpha  occ. eigenvalues --  -10.63811 -10.62106 -10.62105 -10.61203  -0.91042
 Alpha  occ. eigenvalues --   -0.83530  -0.71873  -0.65990  -0.53734  -0.48901
 Alpha  occ. eigenvalues --   -0.47796  -0.46619  -0.41891  -0.40439  -0.39338
 Alpha  occ. eigenvalues --   -0.37298  -0.35707
 Alpha virt. eigenvalues --    0.05270   0.06024   0.07752   0.08124   0.10412
 Alpha virt. eigenvalues --    0.10666   0.12533   0.13436   0.13849   0.14836
 Alpha virt. eigenvalues --    0.15691   0.15999   0.18968   0.19679   0.20872

 Mulliken charges:
               1
     1  C   -0.150282
     2  C   -0.047358
     3  H    0.064551
     4  H    0.049680
     5  H    0.018372
     6  C   -0.054032
     7  H    0.040967
     8  H    0.015689
     9  C   -0.176484
    10  H    0.087868
    11  H    0.005178
    12  H    0.088856
    13  H    0.020606
    14  H    0.036388
 Sum of Mulliken charges =   0.00000

 Dipole moment (field-independent basis, Debye):
    X=             -0.3374    Y=              0.1775    Z=              0.0560  Tot=              0.3854
 Quadrupole moment (field-independent basis, Debye-Ang):
   XX=            -30.3554   YY=            -29.5781   ZZ=            -28.7199
   XY=             -0.3334   XZ=             -0.8898   YZ=              0.6579

 Normal termination of Gaussian 09 at Wed Aug 26 19:02:01 2020.
