 Gaussian 09, Revision D.01,
 Gaussian 09:  ES64L-G09RevD.01 24-Apr-2013

 --------------------
 #p B2PLYPD3/Def2QZVP
 --------------------

 ----------
 butane_opt
 ----------
 Symbolic Z-matrix:
 Charge =  0 Multiplicity = 1

                         Standard orientation:
 ---------------------------------------------------------------------
 Center     Atomic      Atomic             Coordinates (Angstroms)
 Number     Number       Type             X           Y           Z
 ---------------------------------------------------------------------
      1          6           0        1.880920    0.090393   -0.048513
      2          6           0        0.599319   -0.455715    0.065838
      3          1           0        2.756595   -0.816414   -0.282463
      4          1           0        2.281366    0.911586    0.950493
      5          1           0        1.849034    0.471994   -0.829782
      6          6           0       -0.545702    0.580827    0.022161
      7          1           0        0.576763   -1.187322    0.904569
      8          1           0        0.259463   -1.033480   -0.723775
      9          6           0       -1.931524   -0.166432    0.006415
     10          1           0       -0.391801    1.272999   -0.944226
     11          1           0       -0.504673    1.083353    0.767861
     12          1           0       -2.121169   -0.786959   -0.855356
     13          1           0       -2.612638    0.448302   -0.055483
     14          1           0       -2.111011   -0.658493    0.792749
 ---------------------------------------------------------------------

 SCF Done:  E(RB2PLYPD3) =  -157.932473529     A.U. after   11 cycles
 E2(B2PLYPD3) =    -0.2466813799D+00 E(B2PLYPD3) =    -0.15817915490859D+03

 The electronic state is 1-A.
 Alpha  occ. eigenvalues --  -10.60616 -10.59815 -10.58850 -10.56195  -0.93505
 Alpha  occ. eigenvalues --   -0.86171  -0.75488  -0.68261  -0.56247  -0.51519
 Alpha  occ. eigenvalues --   -0.48621  -0.47788  -0.43215  -0.42743  -0.40129
 Alpha  occ. eigenvalues --   -0.37979  -0.34965
 Alpha virt. eigenvalues --    0.05440   0.06669   0.08068   0.08727   0.10891
 Alpha virt. eigenvalues --    0.11258   0.13070   0.13757   0.15167   0.15332
 Alpha virt. eigenvalues --    0.16208   0.16661   0.19169   0.20464   0.22181

 Mulliken charges:
               1
     1  C   -0.232322
     2  C   -0.020095
     3  H    0.020388
     4  H    0.028376
     5  H    0.134845
     6  C   -0.088405
     7  H    0.021423
     8  H    0.042275
     9  C   -0.130824
    10  H    0.009990
    11  H    0.091915
    12  H    0.019600
    13  H    0.053343
    14  H    0.049491
 Sum of Mulliken charges =   0.00000

 Dipole moment (field-independent basis, Debye):
    X=             -0.5768    Y=              0.0542    Z=             -0.1219  Tot=              0.5920
 Quadrupole moment (field-independent basis, Debye-Ang):
   XX=            -29.6864   YY=            -28.7854   ZZ=            -27.7365
   XY=             -0.0453   XZ=             -0.4505   YZ=              0.2449

 Normal termination of Gaussian 09 at Wed Aug 26 21:37:59 2020.
