 Gaussian 09, Revision D.01,
 Gaussian 09:  ES64L-G09RevD.01 24-Apr-2013

 --------------------
 #p B2PLYPD3/Def2QZVP
 --------------------

 ----------
 butane_opt
 ----------
 Symbolic Z-matrix:
 Charge =  0 Multiplicity = 1

                         Standard orientation:
 ---------------------------------------------------------------------
 Center     Atomic      Atomic             Coordinates (Angstroms)
 Number     Number       Type             X           Y           Z
 ---------------------------------------------------------------------
      1          6           0        1.935129    0.011382   -0.280904
      2          6           0        0.627417   -0.323004    0.426769
      3          1           0        2.990146   -1.214817   -0.504174
      4          1           0        2.551179    1.299814    0.441592
      5          1           0        1.579230    0.076259   -1.017338
      6          6           0       -0.561468    0.592137   -0.021377
      7          1           0        0.829077   -0.794515    1.640199
      8          1           0        0.459862   -0.880146   -0.081286
      9          6           0       -2.034941   -0.187805   -0.069301
     10          1           0       -0.493661    0.837927   -1.013891
     11          1           0       -0.444263    1.538155    0.736949
     12          1           0       -2.245047   -1.297323   -0.851321
     13          1           0       -2.616648    0.301226   -0.396398
     14          1           0       -2.406705   -0.422843    0.714551
 ---------------------------------------------------------------------

 SCF Done:  E(RB2PLYPD3) =  -157.546518589     A.U. after   12 cycles
 E2(B2PLYPD3) =    -0.2551930349D+00 E(B2PLYPD3) =    -0.15780171162418D+03

 The electronic state is 1-A.
 Alpha  occ. eigenvalues --  -10.66040 -10.64446 -10.60248 -10.59268  -0.95421
 Alpha  occ. eigenvalues --   -0.86867  -0.76562  -0.69528  -0.55425  -0.52862
 Alpha  occ. eigenvalues --   -0.46986  -0.45333  -0.43682  -0.39663  -0.38900
 Alpha  occ. eigenvalues --   -0.37580  -0.33132
 Alpha virt. eigenvalues --    0.01218   0.05239   0.05933   0.07634   0.07971
 Alpha virt. eigenvalues --    0.10304   0.11834   0.13029   0.13389   0.14797
 Alpha virt. eigenvalues --    0.15250   0.16823   0.18264   0.18982   0.19595

 Mulliken charges:
               1
     1  C   -0.338767
     2  C   -0.446771
     3  H    0.007330
     4  H    0.009331
     5  H    0.260602
     6  C   -0.066161
     7  H    0.050411
     8  H    0.425381
     9  C   -0.263059
    10  H    0.075539
    11  H    0.041013
    12  H    0.000755
    13  H    0.168088
    14  H    0.076308
 Sum of Mulliken charges =   0.00000

 Dipole moment (field-independent basis, Debye):
    X=             -1.2927    Y=              0.0530    Z=             -0.2771  Tot=              1.3231
 Quadrupole moment (field-independent basis, Debye-Ang):
   XX=            -31.6603   YY=            -29.8732   ZZ=            -28.5117
   XY=             -0.8070   XZ=              0.1706   YZ=              0.5041

 Normal termination of Gaussian 09 at Wed Aug 26 09:58:37 2020.
