 Gaussian 09, Revision D.01,
 Gaussian 09:  ES64L-G09RevD.01 24-Apr-2013

 --------------------
 #p B2PLYPD3/Def2QZVP
 --------------------

 ----------
 butane_opt
 ----------
 Symbolic Z-matrix:
 Charge =  0 Multiplicity = 1

                         Standard orientation:
 ---------------------------------------------------------------------
 Center     Atomic      Atomic             Coordinates (Angstroms)
 Number     Number       Type             X           Y           Z
 ---------------------------------------------------------------------
      1          6           0       -2.058401   -0.120744    0.065905
      2          6           0       -0.498521    0.595313    0.032384
      3          1           0       -2.700701    0.663695   -0.673389
      4          1           0       -2.632453   -1.508941    1.234433
      5          1           0       -1.795106   -0.251820   -0.519808
      6          6           0        0.622857   -0.553003   -0.213435
      7          1           0       -0.052748    1.410375    0.926029
      8          1           0       -0.620290    1.430225   -0.849333
      9          6           0        1.932118    0.037204    0.061630
     10          1           0        0.592449   -1.073695   -1.041793
     11          1           0        0.400220   -1.219713    0.602231
     12          1           0        2.105605    0.476547   -0.633305
     13          1           0        2.588836   -0.661899    0.023423
     14          1           0        2.125875    0.982605    1.252613
 ---------------------------------------------------------------------

 SCF Done:  E(RB2PLYPD3) =  -157.385642115     A.U. after   13 cycles
 E2(B2PLYPD3) =    -0.2610591759D+00 E(B2PLYPD3) =    -0.15764670129069D+03

 The electronic state is 1-A.
 Alpha  occ. eigenvalues --  -10.66974 -10.63978 -10.60800 -10.59333  -0.93819
 Alpha  occ. eigenvalues --   -0.89755  -0.75860  -0.67352  -0.54890  -0.51736
 Alpha  occ. eigenvalues --   -0.47286  -0.44164  -0.40442  -0.39061  -0.37769
 Alpha  occ. eigenvalues --   -0.35892  -0.34311
 Alpha virt. eigenvalues --   -0.03199   0.04264   0.05862   0.07308   0.09172
 Alpha virt. eigenvalues --    0.10058   0.11551   0.12474   0.13531   0.15455
 Alpha virt. eigenvalues --    0.15898   0.16165   0.16912   0.18946   0.19935

 Mulliken charges:
               1
     1  C   -0.820087
     2  C   -0.051422
     3  H    0.053730
     4  H    0.048152
     5  H    0.687166
     6  C   -0.027385
     7  H    0.041035
     8  H    0.004613
     9  C   -0.246815
    10  H    0.046144
    11  H    0.045734
    12  H    0.155731
    13  H    0.055288
    14  H    0.008116
 Sum of Mulliken charges =   0.00000

 Dipole moment (field-independent basis, Debye):
    X=              0.9145    Y=             -0.4876    Z=             -1.2314  Tot=              1.6095
 Quadrupole moment (field-independent basis, Debye-Ang):
   XX=            -32.2389   YY=            -28.5134   ZZ=            -28.5951
   XY=             -0.0361   XZ=              0.1701   YZ=             -0.9403

 Normal termination of Gaussian 09 at Wed Aug 26 12:54:50 2020.
