 Gaussian 09, Revision D.01,
 Gaussian 09:  ES64L-G09RevD.01 24-Apr-2013

 --------------------
 #p B2PLYPD3/Def2QZVP
 --------------------

 ----------
 butane_opt
 ----------
 Symbolic Z-matrix:
 Charge =  0 Multiplicity = 1

                         Standard orientation:
 ---------------------------------------------------------------------
 Center     Atomic      Atomic             Coordinates (Angstroms)
 Number     Number       Type             X           Y           Z
 ---------------------------------------------------------------------
      1          6           0       -1.906176    0.034782   -0.203355
      2          6           0       -0.576989   -0.467661    0.192374
      3          1           0       -2.531334   -0.646526   -0.349188
      4          1           0       -1.420754    0.316521   -0.870960
      5          1           0       -2.217537    0.981732    0.756362
      6          6           0        0.440932    0.617458    0.054650
      7          1           0       -0.531093   -0.967748   -0.476293
      8          1           0       -0.475024   -1.352561    1.509156
      9          6           0        1.967575   -0.161426   -0.089652
     10          1           0        0.405044    1.475742    0.980335
     11          1           0        0.229238    1.102134   -0.760328
     12          1           0        2.334122   -0.550825    0.748849
     13          1           0        2.620473    0.566942   -0.219988
     14          1           0        2.034812   -1.064326   -1.042042
 ---------------------------------------------------------------------

 SCF Done:  E(RB2PLYPD3) =  -157.766853144     A.U. after   12 cycles
 E2(B2PLYPD3) =    -0.2519455177D+00 E(B2PLYPD3) =    -0.15801879866125D+03

 The electronic state is 1-A.
 Alpha  occ. eigenvalues --  -10.63252 -10.61917 -10.61299 -10.59035  -0.97980
 Alpha  occ. eigenvalues --   -0.84108  -0.75489  -0.68750  -0.57154  -0.54415
 Alpha  occ. eigenvalues --   -0.48266  -0.45906  -0.44500  -0.40722  -0.38684
 Alpha  occ. eigenvalues --   -0.36306  -0.33867
 Alpha virt. eigenvalues --    0.04165   0.06111   0.06675   0.07776   0.10688
 Alpha virt. eigenvalues --    0.11155   0.12228   0.13337   0.13750   0.14541
 Alpha virt. eigenvalues --    0.16125   0.17036   0.18346   0.19118   0.20383

 Mulliken charges:
               1
     1  C   -0.232071
     2  C   -0.243128
     3  H    0.074897
     4  H    0.140532
     5  H    0.020230
     6  C   -0.069111
     7  H    0.250876
     8  H   -0.045522
     9  C   -0.150880
    10  H    0.022553
    11  H    0.089219
    12  H    0.066285
    13  H    0.057790
    14  H    0.018330
 Sum of Mulliken charges =   0.00000

 Dipole moment (field-independent basis, Debye):
    X=              0.2837    Y=              0.2137    Z=             -0.8475  Tot=              0.9190
 Quadrupole moment (field-independent basis, Debye-Ang):
   XX=            -29.7005   YY=            -29.5490   ZZ=            -29.0995
   XY=              1.3345   XZ=              1.1118   YZ=              1.4035

 Normal termination of Gaussian 09 at Wed Aug 26 10:13:24 2020.
