 Gaussian 09, Revision D.01,
 Gaussian 09:  ES64L-G09RevD.01 24-Apr-2013

 --------------------
 #p B2PLYPD3/Def2QZVP
 --------------------

 ----------
 butane_opt
 ----------
 Symbolic Z-matrix:
 Charge =  0 Multiplicity = 1

                         Standard orientation:
 ---------------------------------------------------------------------
 Center     Atomic      Atomic             Coordinates (Angstroms)
 Number     Number       Type             X           Y           Z
 ---------------------------------------------------------------------
      1          6           0        1.920230    0.175202    0.049333
      2          6           0        0.464988   -0.609074   -0.027619
      3          1           0        2.499937   -0.551705   -0.332085
      4          1           0        2.524422    1.538567    1.213745
      5          1           0        1.807236    0.223451   -0.467927
      6          6           0       -0.592236    0.466061   -0.251469
      7          1           0        0.548950   -1.150957    0.850520
      8          1           0        0.378827   -1.361743   -0.893511
      9          6           0       -1.887463   -0.053996    0.146398
     10          1           0       -0.459272    1.118484   -1.252501
     11          1           0       -0.529044    0.778563    0.244138
     12          1           0       -2.018942   -0.634716   -0.500018
     13          1           0       -2.764983    0.854257    0.277433
     14          1           0       -1.420249   -0.683359    1.360349
 ---------------------------------------------------------------------

 SCF Done:  E(RB2PLYPD3) =  -156.524142856     A.U. after   13 cycles
 E2(B2PLYPD3) =    -0.2592548868D+00 E(B2PLYPD3) =    -0.15678339774242D+03

 The electronic state is 1-A.
 Alpha  occ. eigenvalues --  -10.62686 -10.62274 -10.62035 -10.57646  -0.98590
 Alpha  occ. eigenvalues --   -0.93376  -0.76180  -0.72604  -0.56978  -0.49378
 Alpha  occ. eigenvalues --   -0.47832  -0.47411  -0.41907  -0.41231  -0.37779
 Alpha  occ. eigenvalues --   -0.35901  -0.33918
 Alpha virt. eigenvalues --   -0.02696   0.04865   0.06635   0.07410   0.09769
 Alpha virt. eigenvalues --    0.10573   0.11596   0.12886   0.14506   0.15243
 Alpha virt. eigenvalues --    0.15675   0.16147   0.18335   0.19377   0.20349

 Mulliken charges:
               1
     1  C   -1.010651
     2  C    0.037950
     3  H    0.056453
     4  H    0.056028
     5  H    0.817994
     6  C   -0.883757
     7  H    0.065935
     8  H    0.023766
     9  C   -0.187298
    10  H    0.069070
    11  H    0.759544
    12  H    0.134585
    13  H    0.048171
    14  H    0.012209
 Sum of Mulliken charges =   0.00000

 Dipole moment (field-independent basis, Debye):
    X=             -0.0186    Y=              0.0398    Z=             -0.6721  Tot=              0.6735
 Quadrupole moment (field-independent basis, Debye-Ang):
   XX=            -31.2028   YY=            -28.0082   ZZ=            -27.7095
   XY=             -0.8397   XZ=              0.6392   YZ=              1.2013

 Normal termination of Gaussian 09 at Wed Aug 26 16:04:08 2020.
