 Gaussian 09, Revision D.01,
 Gaussian 09:  ES64L-G09RevD.01 24-Apr-2013

 --------------------
 #p B2PLYPD3/Def2QZVP
 --------------------

 ----------
 butane_opt
 ----------
 Symbolic Z-matrix:
 Charge =  0 Multiplicity = 1

                         Standard orientation:
 ---------------------------------------------------------------------
 Center     Atomic      Atomic             Coordinates (Angstroms)
 Number     Number       Type             X           Y           Z
 ---------------------------------------------------------------------
      1          6           0       -2.001257   -0.233917    0.137240
      2          6           0       -0.566174    0.603139   -0.097385
      3          1           0       -2.767972    0.481123    0.093917
      4          1           0       -2.234882   -1.041727    0.957178
      5          1           0       -2.493371   -0.655310   -0.514444
      6          6           0        0.683856   -0.448726   -0.273831
      7          1           0       -0.313455    1.168652    0.683873
      8          1           0       -0.675602    1.746192   -1.095886
      9          6           0        1.993296    0.083612    0.155619
     10          1           0        0.743752   -1.007368   -1.162623
     11          1           0        0.255880   -1.161326    0.521622
     12          1           0        2.012940    0.407230   -0.414937
     13          1           0        2.923681   -0.820844    0.083918
     14          1           0        1.890703    0.858726    1.317521
 ---------------------------------------------------------------------

 SCF Done:  E(RB2PLYPD3) =  -157.584172013     A.U. after   11 cycles
 E2(B2PLYPD3) =    -0.2533953793D+00 E(B2PLYPD3) =    -0.15783756739253D+03

 The electronic state is 1-A.
 Alpha  occ. eigenvalues --  -10.66468 -10.62052 -10.60874 -10.59890  -0.94095
 Alpha  occ. eigenvalues --   -0.85466  -0.76882  -0.68067  -0.53423  -0.48907
 Alpha  occ. eigenvalues --   -0.48032  -0.45978  -0.44028  -0.40170  -0.39619
 Alpha  occ. eigenvalues --   -0.36128  -0.34322
 Alpha virt. eigenvalues --    0.04187   0.05858   0.06390   0.07823   0.10383
 Alpha virt. eigenvalues --    0.11491   0.12222   0.13463   0.14128   0.14767
 Alpha virt. eigenvalues --    0.15073   0.16014   0.18188   0.19230   0.19967

 Mulliken charges:
               1
     1  C   -0.139961
     2  C   -0.081237
     3  H    0.033065
     4  H    0.030449
     5  H    0.059343
     6  C    0.007388
     7  H    0.091211
     8  H   -0.028243
     9  C   -0.740689
    10  H    0.054724
    11  H    0.026199
    12  H    0.587896
    13  H    0.058765
    14  H    0.041090
 Sum of Mulliken charges =   0.00000

 Dipole moment (field-independent basis, Debye):
    X=             -0.2356    Y=             -0.4215    Z=             -0.0943  Tot=              0.4920
 Quadrupole moment (field-independent basis, Debye-Ang):
   XX=            -28.5717   YY=            -29.2213   ZZ=            -29.3467
   XY=              0.3747   XZ=             -0.4992   YZ=              0.7882

 Normal termination of Gaussian 09 at Wed Aug 26 22:48:04 2020.
