 Gaussian 09, Revision D.01,
 Gaussian 09:  ES64L-G09RevD.01 24-Apr-2013

 --------------------
 #p B2PLYPD3/Def2QZVP
 --------------------

 ----------
 butane_opt
 ----------
 Symbolic Z-matrix:
 Charge =  0 Multiplicity = 1

                         Standard orientation:
 ---------------------------------------------------------------------
 Center     Atomic      Atomic             Coordinates (Angstroms)
 Number     Number       Type             X           Y           Z
 ---------------------------------------------------------------------
      1          6           0        1.938463    0.003742    0.187886
      2          6           0        0.628375   -0.434761   -0.268084
      3          1           0        2.890978   -0.715201   -0.044612
      4          1           0        2.014674    0.708995    1.440892
      5          1           0        2.153760    0.583825   -0.488932
      6          6           0       -0.539545    0.589569   -0.023225
      7          1           0        0.489431   -0.853505    0.218888
      8          1           0        0.503387   -1.006543   -1.442188
      9          6           0       -2.004005   -0.219971    0.095785
     10          1           0       -0.525804    1.766443   -0.930077
     11          1           0       -0.112706    0.933351    0.712244
     12          1           0       -2.147170   -0.224334   -0.520344
     13          1           0       -2.931335    0.707213    0.008236
     14          1           0       -2.474943   -1.531718    1.091716
 ---------------------------------------------------------------------

 SCF Done:  E(RB2PLYPD3) =  -157.071769626     A.U. after   13 cycles
 E2(B2PLYPD3) =    -0.2586818977D+00 E(B2PLYPD3) =    -0.15733045152398D+03

 The electronic state is 1-A.
 Alpha  occ. eigenvalues --  -10.64872 -10.64682 -10.62242 -10.59227  -0.96261
 Alpha  occ. eigenvalues --   -0.88602  -0.78015  -0.72205  -0.53421  -0.50028
 Alpha  occ. eigenvalues --   -0.45312  -0.44763  -0.41949  -0.40267  -0.39110
 Alpha  occ. eigenvalues --   -0.35930  -0.35034
 Alpha virt. eigenvalues --   -0.00496   0.04376   0.04731   0.07108   0.08627
 Alpha virt. eigenvalues --    0.10836   0.11640   0.13024   0.13981   0.14574
 Alpha virt. eigenvalues --    0.15366   0.16152   0.18164   0.18313   0.19970

 Mulliken charges:
               1
     1  C   -0.181717
     2  C   -0.718247
     3  H    0.046864
     4  H    0.028289
     5  H    0.114115
     6  C   -0.056095
     7  H    0.649061
     8  H    0.037282
     9  C   -0.814280
    10  H   -0.007259
    11  H    0.138419
    12  H    0.656490
    13  H    0.037823
    14  H    0.069256
 Sum of Mulliken charges =   0.00000

 Dipole moment (field-independent basis, Debye):
    X=              0.2422    Y=             -0.2273    Z=             -0.2979  Tot=              0.4462
 Quadrupole moment (field-independent basis, Debye-Ang):
   XX=            -29.4528   YY=            -29.4580   ZZ=            -28.9530
   XY=              0.9306   XZ=              0.1581   YZ=             -0.5958

 Normal termination of Gaussian 09 at Wed Aug 26 13:39:13 2020.
