 Gaussian 09, Revision D.01,
 Gaussian 09:  ES64L-G09RevD.01 24-Apr-2013

 --------------------
 #p B2PLYPD3/Def2QZVP
 --------------------

 ----------
 butane_opt
 ----------
 Symbolic Z-matrix:
 Charge =  0 Multiplicity = 1

                         Standard orientation:
 ---------------------------------------------------------------------
 Center     Atomic      Atomic             Coordinates (Angstroms)
 Number     Number       Type             X           Y           Z
 ---------------------------------------------------------------------
      1          6           0        1.971625   -0.140424    0.116887
      2          6           0        0.581328    0.523737   -0.166187
      3          1           0        2.796317    0.573566   -0.038020
      4          1           0        2.122568   -0.475671   -0.494524
      5          1           0        1.995373   -1.237948    1.240434
      6          6           0       -0.609020   -0.468464   -0.162222
      7          1           0        0.800391    1.296259   -1.030685
      8          1           0        0.481567    1.220620    0.660279
      9          6           0       -1.991080    0.109418    0.173402
     10          1           0       -0.374052   -1.200853    0.690511
     11          1           0       -0.581063   -1.076040   -1.088172
     12          1           0       -2.315734    0.999853    1.263391
     13          1           0       -2.709480   -0.575668   -0.684464
     14          1           0       -1.933005    0.330282   -0.290030
 ---------------------------------------------------------------------

 SCF Done:  E(RB2PLYPD3) =  -156.871851643     A.U. after   12 cycles
 E2(B2PLYPD3) =    -0.2560919552D+00 E(B2PLYPD3) =    -0.15712794359775D+03

 The electronic state is 1-A.
 Alpha  occ. eigenvalues --  -10.63971 -10.62862 -10.62504 -10.60409  -0.96058
 Alpha  occ. eigenvalues --   -0.89821  -0.78066  -0.67959  -0.52928  -0.49535
 Alpha  occ. eigenvalues --   -0.47897  -0.46153  -0.42525  -0.39784  -0.37515
 Alpha  occ. eigenvalues --   -0.36323  -0.35977
 Alpha virt. eigenvalues --    0.03271   0.04136   0.06332   0.07038   0.10070
 Alpha virt. eigenvalues --    0.10325   0.11833   0.12340   0.13469   0.15009
 Alpha virt. eigenvalues --    0.15653   0.16618   0.17480   0.19178   0.20354

 Mulliken charges:
               1
     1  C   -0.536015
     2  C    0.002515
     3  H    0.057650
     4  H    0.398625
     5  H    0.013641
     6  C    0.014359
     7  H    0.009706
     8  H    0.036180
     9  C   -1.096761
    10  H    0.036785
    11  H    0.037801
    12  H    0.096111
    13  H    0.042386
    14  H    0.887016
 Sum of Mulliken charges =   0.00000

 Dipole moment (field-independent basis, Debye):
    X=              0.2463    Y=              0.6182    Z=             -0.9045  Tot=              1.1229
 Quadrupole moment (field-independent basis, Debye-Ang):
   XX=            -31.1093   YY=            -28.8459   ZZ=            -27.8293
   XY=             -0.4534   XZ=             -1.0456   YZ=              0.9055

 Normal termination of Gaussian 09 at Wed Aug 26 19:49:01 2020.
