 Gaussian 09, Revision D.01,
 Gaussian 09:  ES64L-G09RevD.01 24-Apr-2013

 --------------------
 #p B2PLYPD3/Def2QZVP
 --------------------

 ----------
 butane_opt
 ----------
 Symbolic Z-matrix:
 Charge =  0 Multiplicity = 1

                         Standard orientation:
 ---------------------------------------------------------------------
 Center     Atomic      Atomic             Coordinates (Angstroms)
 Number     Number       Type             X           Y           Z
 ---------------------------------------------------------------------
      1          6           0        1.940693   -0.207239    0.065071
      2          6           0        0.439985    0.532822   -0.178097
      3          1           0        2.701548    0.657847   -0.209223
      4          1           0        2.376409   -0.416896   -0.424874
      5          1           0        2.004430   -0.804845    1.190961
      6          6           0       -0.574141   -0.417704    0.043882
      7          1           0        0.375866    1.108391   -1.132083
      8          1           0        0.246332    1.338991    0.760262
      9          6           0       -1.825175    0.050600    0.016651
     10          1           0       -0.547726   -1.018169    0.861401
     11          1           0       -0.480628   -1.268520   -0.919914
     12          1           0       -2.191089    1.218494    1.167118
     13          1           0       -2.679479   -0.756373   -0.406942
     14          1           0       -1.693836    0.190207   -0.571753
 ---------------------------------------------------------------------

 SCF Done:  E(RB2PLYPD3) =  -157.172589477     A.U. after   12 cycles
 E2(B2PLYPD3) =    -0.2568557575D+00 E(B2PLYPD3) =    -0.15742944523399D+03

 The electronic state is 1-A.
 Alpha  occ. eigenvalues --  -10.64267 -10.60711 -10.60518 -10.60517  -1.01324
 Alpha  occ. eigenvalues --   -0.89147  -0.80578  -0.68375  -0.54276  -0.53241
 Alpha  occ. eigenvalues --   -0.51468  -0.45188  -0.42392  -0.39279  -0.37828
 Alpha  occ. eigenvalues --   -0.35521  -0.33321
 Alpha virt. eigenvalues --    0.02001   0.04512   0.05822   0.07584   0.09451
 Alpha virt. eigenvalues --    0.10866   0.11929   0.12288   0.13807   0.15539
 Alpha virt. eigenvalues --    0.15881   0.16642   0.17652   0.20025   0.21570

 Mulliken charges:
               1
     1  C   -0.597426
     2  C   -0.027058
     3  H    0.020606
     4  H    0.444033
     5  H    0.074130
     6  C    0.067837
     7  H    0.054130
     8  H    0.027957
     9  C   -0.846532
    10  H    0.046320
    11  H   -0.018160
    12  H    0.005164
    13  H    0.076251
    14  H    0.672748
 Sum of Mulliken charges =   0.00000

 Dipole moment (field-independent basis, Debye):
    X=              0.5102    Y=             -0.2747    Z=             -0.7728  Tot=              0.9659
 Quadrupole moment (field-independent basis, Debye-Ang):
   XX=            -30.8918   YY=            -29.9328   ZZ=            -27.8083
   XY=              0.3979   XZ=             -0.3075   YZ=             -0.5077

 Normal termination of Gaussian 09 at Wed Aug 26 14:22:53 2020.
