 Gaussian 09, Revision D.01,
 Gaussian 09:  ES64L-G09RevD.01 24-Apr-2013

 --------------------
 #p B2PLYPD3/Def2QZVP
 --------------------

 ----------
 butane_opt
 ----------
 Symbolic Z-matrix:
 Charge =  0 Multiplicity = 1

                         Standard orientation:
 ---------------------------------------------------------------------
 Center     Atomic      Atomic             Coordinates (Angstroms)
 Number     Number       Type             X           Y           Z
 ---------------------------------------------------------------------
      1          6           0        2.021306    0.189803   -0.125207
      2          6           0        0.568661   -0.642232    0.105965
      3          1           0        2.645008   -0.410297   -0.257697
      4          1           0        2.522295    0.376019    0.487793
      5          1           0        2.032308    1.292921   -1.010777
      6          6           0       -0.605998    0.383654    0.280245
      7          1           0        0.483341   -1.337298    0.840213
      8          1           0        0.146924   -1.015698   -0.774463
      9          6           0       -2.016599   -0.050099   -0.220838
     10          1           0       -0.387805    0.699645   -0.189746
     11          1           0       -0.613685    1.313234    1.793624
     12          1           0       -1.273987   -0.169419   -1.034491
     13          1           0       -2.812731    0.925533   -0.686614
     14          1           0       -2.545895   -0.961398    0.591168
 ---------------------------------------------------------------------

 SCF Done:  E(RB2PLYPD3) =  -157.229764706     A.U. after   12 cycles
 E2(B2PLYPD3) =    -0.2580036404D+00 E(B2PLYPD3) =    -0.15748776834610D+03

 The electronic state is 1-A.
 Alpha  occ. eigenvalues --  -10.66681 -10.63516 -10.63235 -10.59958  -0.98576
 Alpha  occ. eigenvalues --   -0.89552  -0.77782  -0.71657  -0.54118  -0.50703
 Alpha  occ. eigenvalues --   -0.48363  -0.46669  -0.44220  -0.41020  -0.39375
 Alpha  occ. eigenvalues --   -0.38361  -0.29551
 Alpha virt. eigenvalues --    0.02829   0.04537   0.05140   0.08115   0.09030
 Alpha virt. eigenvalues --    0.10267   0.11059   0.12494   0.14024   0.15006
 Alpha virt. eigenvalues --    0.16103   0.16925   0.17398   0.18844   0.20181

 Mulliken charges:
               1
     1  C   -0.321246
     2  C   -0.034626
     3  H    0.099620
     4  H    0.173845
     5  H    0.031599
     6  C   -0.832787
     7  H    0.072394
     8  H    0.068465
     9  C   -0.140997
    10  H    0.801955
    11  H   -0.091008
    12  H    0.043218
    13  H    0.057168
    14  H    0.072400
 Sum of Mulliken charges =   0.00000

 Dipole moment (field-independent basis, Debye):
    X=              0.7120    Y=             -0.9642    Z=             -0.9021  Tot=              1.5001
 Quadrupole moment (field-independent basis, Debye-Ang):
   XX=            -27.0148   YY=            -30.1768   ZZ=            -31.0852
   XY=             -0.1525   XZ=              0.9541   YZ=             -3.2718

 Normal termination of Gaussian 09 at Wed Aug 26 14:14:06 2020.
