 Gaussian 09, Revision D.01,
 Gaussian 09:  ES64L-G09RevD.01 24-Apr-2013

 --------------------
 #p B2PLYPD3/Def2QZVP
 --------------------

 ----------
 butane_opt
 ----------
 Symbolic Z-matrix:
 Charge =  0 Multiplicity = 1

                         Standard orientation:
 ---------------------------------------------------------------------
 Center     Atomic      Atomic             Coordinates (Angstroms)
 Number     Number       Type             X           Y           Z
 ---------------------------------------------------------------------
      1          6           0       -1.877768    0.079442   -0.189634
      2          6           0       -0.547138   -0.501117    0.210671
      3          1           0       -2.568611   -0.796485   -0.329260
      4          1           0       -1.744213    0.829781   -1.075779
      5          1           0       -2.502858    0.633814    0.634364
      6          6           0        0.460052    0.602303    0.264076
      7          1           0       -0.283079   -1.152886   -0.633145
      8          1           0       -0.694374   -1.162360    1.142029
      9          6           0        1.974662   -0.149476   -0.204981
     10          1           0        0.787338    1.475871    1.249003
     11          1           0       -0.014374    1.088281   -0.732902
     12          1           0        2.463869   -1.014786    0.932744
     13          1           0        2.804050    0.644603   -0.660569
     14          1           0        1.693404   -0.732747   -1.007274
 ---------------------------------------------------------------------

 SCF Done:  E(RB2PLYPD3) =  -157.953858632     A.U. after   11 cycles
 E2(B2PLYPD3) =    -0.2560452614D+00 E(B2PLYPD3) =    -0.15820990389307D+03

 The electronic state is 1-A.
 Alpha  occ. eigenvalues --  -10.66063 -10.65666 -10.62192 -10.62079  -0.91505
 Alpha  occ. eigenvalues --   -0.79487  -0.71021  -0.64702  -0.53890  -0.48535
 Alpha  occ. eigenvalues --   -0.47043  -0.44136  -0.40914  -0.40767  -0.37899
 Alpha  occ. eigenvalues --   -0.36259  -0.34409
 Alpha virt. eigenvalues --    0.04139   0.05810   0.06846   0.07777   0.09632
 Alpha virt. eigenvalues --    0.10523   0.11470   0.12037   0.13337   0.15240
 Alpha virt. eigenvalues --    0.16025   0.16476   0.18227   0.18996   0.20082

 Mulliken charges:
               1
     1  C   -0.130053
     2  C   -0.030235
     3  H    0.041119
     4  H    0.039298
     5  H    0.029904
     6  C   -0.099615
     7  H    0.066956
     8  H    0.031883
     9  C   -0.203958
    10  H    0.056349
    11  H    0.039672
    12  H    0.019182
    13  H    0.050482
    14  H    0.089017
 Sum of Mulliken charges =   0.00000

 Dipole moment (field-independent basis, Debye):
    X=             -0.5176    Y=             -0.1142    Z=             -0.3359  Tot=              0.6275
 Quadrupole moment (field-independent basis, Debye-Ang):
   XX=            -31.7556   YY=            -29.8713   ZZ=            -28.9602
   XY=              0.9743   XZ=             -0.7042   YZ=             -0.0263

 Normal termination of Gaussian 09 at Wed Aug 26 23:38:08 2020.
