 Gaussian 09, Revision D.01,
 Gaussian 09:  ES64L-G09RevD.01 24-Apr-2013

 --------------------
 #p B2PLYPD3/Def2QZVP
 --------------------

 ----------
 butane_opt
 ----------
 Symbolic Z-matrix:
 Charge =  0 Multiplicity = 1

                         Standard orientation:
 ---------------------------------------------------------------------
 Center     Atomic      Atomic             Coordinates (Angstroms)
 Number     Number       Type             X           Y           Z
 ---------------------------------------------------------------------
      1          6           0       -2.016872   -0.160439   -0.135029
      2          6           0       -0.530569    0.591259    0.141992
      3          1           0       -2.678071    0.415037   -0.368390
      4          1           0       -2.523431   -0.560591    0.662372
      5          1           0       -1.986773   -0.840134   -0.947768
      6          6           0        0.558988   -0.490868    0.196112
      7          1           0       -0.556393    1.394109    1.024237
      8          1           0       -0.070476    1.196077   -0.624531
      9          6           0        1.883910    0.058911   -0.232434
     10          1           0        0.378337   -0.787424   -0.342670
     11          1           0        0.817740   -1.454998    1.384472
     12          1           0        1.792127    0.361872   -0.946407
     13          1           0        2.803122   -0.670063   -0.518216
     14          1           0        2.651082    0.952939    0.853056
 ---------------------------------------------------------------------

 SCF Done:  E(RB2PLYPD3) =  -157.444487725     A.U. after   12 cycles
 E2(B2PLYPD3) =    -0.2521675385D+00 E(B2PLYPD3) =    -0.15769665526384D+03

 The electronic state is 1-A.
 Alpha  occ. eigenvalues --  -10.64008 -10.62360 -10.61470 -10.58601  -0.96879
 Alpha  occ. eigenvalues --   -0.85205  -0.78595  -0.71583  -0.54819  -0.50305
 Alpha  occ. eigenvalues --   -0.49418  -0.48215  -0.43415  -0.41525  -0.39476
 Alpha  occ. eigenvalues --   -0.35704  -0.34538
 Alpha virt. eigenvalues --    0.03124   0.06223   0.06328   0.08371   0.08855
 Alpha virt. eigenvalues --    0.11005   0.12282   0.13349   0.14334   0.15669
 Alpha virt. eigenvalues --    0.16196   0.16736   0.18862   0.18987   0.20403

 Mulliken charges:
               1
     1  C   -0.135422
     2  C   -0.021652
     3  H    0.067555
     4  H    0.045376
     5  H    0.032178
     6  C   -0.764312
     7  H    0.034590
     8  H    0.046829
     9  C   -0.344253
    10  H    0.703495
    11  H    0.006555
    12  H    0.289017
    13  H    0.044504
    14  H   -0.004461
 Sum of Mulliken charges =   0.00000

 Dipole moment (field-independent basis, Debye):
    X=             -0.7572    Y=              0.0470    Z=             -1.0410  Tot=              1.2882
 Quadrupole moment (field-independent basis, Debye-Ang):
   XX=            -28.4846   YY=            -29.9278   ZZ=            -28.4720
   XY=             -0.5831   XZ=             -1.1743   YZ=              0.5666

 Normal termination of Gaussian 09 at Wed Aug 26 21:20:23 2020.
