 Gaussian 09, Revision D.01,
 Gaussian 09:  ES64L-G09RevD.01 24-Apr-2013

 --------------------
 #p B2PLYPD3/Def2QZVP
 --------------------

 ----------
 butane_opt
 ----------
 Symbolic Z-matrix:
 Charge =  0 Multiplicity = 1

                         Standard orientation:
 ---------------------------------------------------------------------
 Center     Atomic      Atomic             Coordinates (Angstroms)
 Number     Number       Type             X           Y           Z
 ---------------------------------------------------------------------
      1          6           0        1.955522   -0.169850   -0.123642
      2          6           0        0.547708    0.509379    0.171020
      3          1           0        2.695511    0.570707   -0.653781
      4          1           0        1.381280   -0.822367   -0.884915
      5          1           0        2.594314   -0.698041    0.795638
      6          6           0       -0.584463   -0.418693    0.223924
      7          1           0        0.275533    0.966364   -0.714127
      8          1           0        0.299190    1.363271    1.219768
      9          6           0       -1.875792    0.097830   -0.146748
     10          1           0       -0.825956   -1.162449    1.159717
     11          1           0       -0.371800   -1.210022   -0.744719
     12          1           0       -2.092628    0.709402    0.617979
     13          1           0       -2.773915   -0.754505   -0.395646
     14          1           0       -1.439380    0.925645   -1.147237
 ---------------------------------------------------------------------

 SCF Done:  E(RB2PLYPD3) =  -157.945052767     A.U. after   11 cycles
 E2(B2PLYPD3) =    -0.2559716666D+00 E(B2PLYPD3) =    -0.15820102443359D+03

 The electronic state is 1-A.
 Alpha  occ. eigenvalues --  -10.64375 -10.63960 -10.63289 -10.63226  -0.93812
 Alpha  occ. eigenvalues --   -0.83216  -0.71251  -0.63577  -0.54551  -0.50323
 Alpha  occ. eigenvalues --   -0.48595  -0.46497  -0.40801  -0.39374  -0.38558
 Alpha  occ. eigenvalues --   -0.36299  -0.34380
 Alpha virt. eigenvalues --    0.04722   0.06181   0.06252   0.07223   0.09904
 Alpha virt. eigenvalues --    0.11013   0.11602   0.12813   0.14220   0.14876
 Alpha virt. eigenvalues --    0.15397   0.16707   0.17256   0.19589   0.20185

 Mulliken charges:
               1
     1  C   -0.159118
     2  C   -0.092986
     3  H    0.049502
     4  H    0.072603
     5  H    0.054368
     6  C   -0.003000
     7  H    0.096498
     8  H   -0.007782
     9  C   -0.157179
    10  H    0.022997
    11  H   -0.013117
    12  H    0.078766
    13  H    0.065747
    14  H   -0.007299
 Sum of Mulliken charges =   0.00000

 Dipole moment (field-independent basis, Debye):
    X=             -0.0624    Y=             -0.1526    Z=              0.0961  Tot=              0.1908
 Quadrupole moment (field-independent basis, Debye-Ang):
   XX=            -29.6215   YY=            -30.9968   ZZ=            -29.7388
   XY=              1.3253   XZ=             -0.8811   YZ=             -0.2734

 Normal termination of Gaussian 09 at Wed Aug 26 15:12:43 2020.
