 Gaussian 09, Revision D.01,
 Gaussian 09:  ES64L-G09RevD.01 24-Apr-2013

 --------------------
 #p B2PLYPD3/Def2QZVP
 --------------------

 ----------
 butane_opt
 ----------
 Symbolic Z-matrix:
 Charge =  0 Multiplicity = 1

                         Standard orientation:
 ---------------------------------------------------------------------
 Center     Atomic      Atomic             Coordinates (Angstroms)
 Number     Number       Type             X           Y           Z
 ---------------------------------------------------------------------
      1          6           0        2.043972    0.150449    0.072516
      2          6           0        0.468558   -0.581895    0.023587
      3          1           0        2.665036   -0.604684   -0.559513
      4          1           0        2.474273    1.412375    1.001924
      5          1           0        1.770769    0.322307   -0.602404
      6          6           0       -0.618122    0.424493   -0.231618
      7          1           0        0.332332   -1.100320    0.890672
      8          1           0        0.289448   -1.321386   -0.676510
      9          6           0       -1.889304   -0.059059    0.151517
     10          1           0       -0.599195    0.957724   -1.166610
     11          1           0       -0.451393    1.120232    0.512256
     12          1           0       -2.088112   -0.543409   -0.534655
     13          1           0       -2.793260    0.701211    0.007603
     14          1           0       -1.630517   -0.547975    1.031229
 ---------------------------------------------------------------------

 SCF Done:  E(RB2PLYPD3) =  -157.695708286     A.U. after   11 cycles
 E2(B2PLYPD3) =    -0.2532750789D+00 E(B2PLYPD3) =    -0.15794898336470D+03

 The electronic state is 1-A.
 Alpha  occ. eigenvalues --  -10.61739 -10.60962 -10.58266 -10.56757  -0.95186
 Alpha  occ. eigenvalues --   -0.87496  -0.76483  -0.68893  -0.58272  -0.50465
 Alpha  occ. eigenvalues --   -0.47793  -0.46532  -0.41958  -0.40423  -0.39663
 Alpha  occ. eigenvalues --   -0.35947  -0.35017
 Alpha virt. eigenvalues --    0.01246   0.05799   0.07815   0.08308   0.10265
 Alpha virt. eigenvalues --    0.11239   0.12439   0.12805   0.14646   0.15639
 Alpha virt. eigenvalues --    0.15814   0.16683   0.18503   0.19292   0.20529

 Mulliken charges:
               1
     1  C   -0.604001
     2  C   -0.071066
     3  H    0.052457
     4  H    0.075725
     5  H    0.456997
     6  C   -0.046484
     7  H    0.041638
     8  H    0.034383
     9  C   -0.219589
    10  H    0.018011
    11  H    0.051632
    12  H    0.119838
    13  H    0.024748
    14  H    0.065709
 Sum of Mulliken charges =   0.00000

 Dipole moment (field-independent basis, Debye):
    X=             -0.4792    Y=              0.0506    Z=             -0.6440  Tot=              0.8043
 Quadrupole moment (field-independent basis, Debye-Ang):
   XX=            -31.3693   YY=            -28.3731   ZZ=            -27.6848
   XY=              0.6247   XZ=              0.0892   YZ=              0.9925

 Normal termination of Gaussian 09 at Wed Aug 26 22:41:45 2020.
