 Gaussian 09, Revision D.01,
 Gaussian 09:  ES64L-G09RevD.01 24-Apr-2013

 --------------------
 #p B2PLYPD3/Def2QZVP
 --------------------

 ----------
 butane_opt
 ----------
 Symbolic Z-matrix:
 Charge =  0 Multiplicity = 1

                         Standard orientation:
 ---------------------------------------------------------------------
 Center     Atomic      Atomic             Coordinates (Angstroms)
 Number     Number       Type             X           Y           Z
 ---------------------------------------------------------------------
      1          6           0       -1.977412    0.110623    0.114181
      2          6           0       -0.553407   -0.561085   -0.093501
      3          1           0       -2.597662   -0.595411   -0.232594
      4          1           0       -1.756681    0.369980   -0.431347
      5          1           0       -2.290111    1.107632    1.304607
      6          6           0        0.516439    0.579345   -0.129818
      7          1           0       -0.652829   -1.496683   -1.117523
      8          1           0       -0.437194   -1.045443    0.582393
      9          6           0        1.979136   -0.088916    0.096336
     10          1           0        0.440253    0.906993    0.474379
     11          1           0        0.269332    1.572132   -1.323628
     12          1           0        2.021461   -1.084854    1.191004
     13          1           0        2.782031    0.639231    0.271374
     14          1           0        2.432863   -0.613381   -0.641854
 ---------------------------------------------------------------------

 SCF Done:  E(RB2PLYPD3) =  -157.190349620     A.U. after   12 cycles
 E2(B2PLYPD3) =    -0.2556224803D+00 E(B2PLYPD3) =    -0.15744597209991D+03

 The electronic state is 1-A.
 Alpha  occ. eigenvalues --  -10.64123 -10.63425 -10.62316 -10.58935  -0.96277
 Alpha  occ. eigenvalues --   -0.88225  -0.76302  -0.73084  -0.55785  -0.50600
 Alpha  occ. eigenvalues --   -0.46299  -0.45473  -0.43083  -0.40936  -0.37290
 Alpha  occ. eigenvalues --   -0.36342  -0.35835
 Alpha virt. eigenvalues --    0.02680   0.03305   0.04848   0.06967   0.10570
 Alpha virt. eigenvalues --    0.10859   0.11555   0.12751   0.13761   0.14863
 Alpha virt. eigenvalues --    0.15641   0.16264   0.18000   0.19387   0.20703

 Mulliken charges:
               1
     1  C   -0.788894
     2  C   -0.138613
     3  H    0.089729
     4  H    0.623352
     5  H    0.035256
     6  C   -0.596742
     7  H    0.005980
     8  H    0.209020
     9  C   -0.123502
    10  H    0.553556
    11  H    0.013583
    12  H    0.001441
    13  H    0.050451
    14  H    0.065385
 Sum of Mulliken charges =   0.00000

 Dipole moment (field-independent basis, Debye):
    X=              0.4149    Y=             -0.1753    Z=             -0.0637  Tot=              0.4549
 Quadrupole moment (field-independent basis, Debye-Ang):
   XX=            -29.7657   YY=            -28.8826   ZZ=            -29.0106
   XY=              0.6292   XZ=             -0.0456   YZ=              0.7824

 Normal termination of Gaussian 09 at Wed Aug 26 22:51:21 2020.
