 Gaussian 09, Revision D.01,
 Gaussian 09:  ES64L-G09RevD.01 24-Apr-2013

 --------------------
 #p B2PLYPD3/Def2QZVP
 --------------------

 ----------
 butane_opt
 ----------
 Symbolic Z-matrix:
 Charge =  0 Multiplicity = 1

                         Standard orientation:
 ---------------------------------------------------------------------
 Center     Atomic      Atomic             Coordinates (Angstroms)
 Number     Number       Type             X           Y           Z
 ---------------------------------------------------------------------
      1          6           0        1.955243   -0.224825   -0.177808
      2          6           0        0.582774    0.645629    0.130558
      3          1           0        2.698168    0.283297   -0.958655
      4          1           0        1.819561   -0.697626   -0.872423
      5          1           0        2.868918   -0.840487    0.974685
      6          6           0       -0.640052   -0.429277    0.233691
      7          1           0        0.492329    0.920043   -0.439556
      8          1           0        0.634391    1.955998    1.198016
      9          6           0       -1.977179    0.038023   -0.184936
     10          1           0       -0.443735   -1.198644    1.355587
     11          1           0       -0.549738   -1.124286   -0.453183
     12          1           0       -2.269705    0.588878    0.394601
     13          1           0       -2.766597   -0.609408    0.014656
     14          1           0       -2.008310    0.544937   -1.222759
 ---------------------------------------------------------------------

 SCF Done:  E(RB2PLYPD3) =  -157.380383604     A.U. after   12 cycles
 E2(B2PLYPD3) =    -0.2555079085D+00 E(B2PLYPD3) =    -0.15763589151231D+03

 The electronic state is 1-A.
 Alpha  occ. eigenvalues --  -10.64548 -10.64043 -10.63096 -10.57702  -0.94012
 Alpha  occ. eigenvalues --   -0.87725  -0.78486  -0.72056  -0.54043  -0.50451
 Alpha  occ. eigenvalues --   -0.49319  -0.45877  -0.41289  -0.40188  -0.37498
 Alpha  occ. eigenvalues --   -0.36194  -0.35026
 Alpha virt. eigenvalues --    0.01649   0.04325   0.06095   0.07335   0.08253
 Alpha virt. eigenvalues --    0.10893   0.11479   0.13294   0.14435   0.15093
 Alpha virt. eigenvalues --    0.16080   0.16159   0.17898   0.18550   0.20280

 Mulliken charges:
               1
     1  C   -0.265191
     2  C   -0.738632
     3  H    0.021565
     4  H    0.208608
     5  H    0.041610
     6  C   -0.013111
     7  H    0.661614
     8  H   -0.003227
     9  C   -0.212232
    10  H    0.007818
    11  H    0.079151
    12  H    0.136300
    13  H    0.037821
    14  H    0.037907
 Sum of Mulliken charges =   0.00000

 Dipole moment (field-independent basis, Debye):
    X=             -0.6866    Y=             -0.2708    Z=             -1.1471  Tot=              1.3640
 Quadrupole moment (field-independent basis, Debye-Ang):
   XX=            -29.1172   YY=            -30.2382   ZZ=            -28.2142
   XY=             -0.7681   XZ=             -1.2449   YZ=             -0.3800

 Normal termination of Gaussian 09 at Wed Aug 26 20:54:10 2020.
