 Gaussian 09, Revision D.01,
 Gaussian 09:  ES64L-G09RevD.01 24-Apr-2013

 --------------------
 #p B2PLYPD3/Def2QZVP
 --------------------

 ----------
 butane_opt
 ----------
 Symbolic Z-matrix:
 Charge =  0 Multiplicity = 1

                         Standard orientation:
 ---------------------------------------------------------------------
 Center     Atomic      Atomic             Coordinates (Angstroms)
 Number     Number       Type             X           Y           Z
 ---------------------------------------------------------------------
      1          6           0       -1.863256    0.095709    0.157027
      2          6           0       -0.594074   -0.456665   -0.183709
      3          1           0       -2.835905   -0.973576    0.088596
      4          1           0       -1.948817    0.507147   -0.698981
      5          1           0       -2.117997    1.028310    1.330432
      6          6           0        0.458038    0.585250   -0.214354
      7          1           0       -0.846131   -1.030990   -1.026896
      8          1           0       -0.161819   -1.099739    0.617092
      9          6           0        2.011300   -0.178545    0.147002
     10          1           0        0.270140    0.918327    0.653405
     11          1           0        0.541157    1.346478   -1.141375
     12          1           0        1.748649   -0.801643    0.989300
     13          1           0        2.819486    0.509781    0.480676
     14          1           0        2.459191   -0.678588   -0.728040
 ---------------------------------------------------------------------

 SCF Done:  E(RB2PLYPD3) =  -157.916771758     A.U. after   11 cycles
 E2(B2PLYPD3) =    -0.2532465157D+00 E(B2PLYPD3) =    -0.15817001827356D+03

 The electronic state is 1-A.
 Alpha  occ. eigenvalues --  -10.64730 -10.61798 -10.61550 -10.60474  -0.94803
 Alpha  occ. eigenvalues --   -0.82387  -0.73524  -0.66013  -0.56173  -0.48484
 Alpha  occ. eigenvalues --   -0.47809  -0.47196  -0.42924  -0.41736  -0.38030
 Alpha  occ. eigenvalues --   -0.35781  -0.34535
 Alpha virt. eigenvalues --    0.03718   0.06223   0.06648   0.07919   0.10101
 Alpha virt. eigenvalues --    0.10803   0.12516   0.12868   0.13944   0.14689
 Alpha virt. eigenvalues --    0.15606   0.16065   0.17963   0.19250   0.20758

 Mulliken charges:
               1
     1  C   -0.207488
     2  C   -0.024398
     3  H    0.006099
     4  H    0.118090
     5  H    0.021300
     6  C   -0.150688
     7  H    0.054532
     8  H    0.034750
     9  C   -0.162637
    10  H    0.121028
    11  H    0.036220
    12  H    0.059392
    13  H    0.042068
    14  H    0.051733
 Sum of Mulliken charges =   0.00000

 Dipole moment (field-independent basis, Debye):
    X=              0.4147    Y=              0.0045    Z=             -0.3684  Tot=              0.5547
 Quadrupole moment (field-independent basis, Debye-Ang):
   XX=            -31.6117   YY=            -29.9105   ZZ=            -28.1557
   XY=              0.2860   XZ=              0.8514   YZ=              0.2553

 Normal termination of Gaussian 09 at Wed Aug 26 13:30:56 2020.
