 Gaussian 09, Revision D.01,
 Gaussian 09:  ES64L-G09RevD.01 24-Apr-2013

 --------------------
 #p B2PLYPD3/Def2QZVP
 --------------------

 ----------
 butane_opt
 ----------
 Symbolic Z-matrix:
 Charge =  0 Multiplicity = 1

                         Standard orientation:
 ---------------------------------------------------------------------
 Center     Atomic      Atomic             Coordinates (Angstroms)
 Number     Number       Type             X           Y           Z
 ---------------------------------------------------------------------
      1          6           0        1.973488    0.151492    0.072388
      2          6           0        0.453759   -0.586596   -0.035081
      3          1           0        2.800286   -0.710505   -0.836980
      4          1           0        2.287775    1.489651    1.347972
      5          1           0        1.801421    0.251873   -0.445738
      6          6           0       -0.562959    0.450492   -0.111620
      7          1           0        0.201768   -1.330142    0.931854
      8          1           0        0.449096   -1.250992   -0.761411
      9          6           0       -1.838333   -0.044169    0.090601
     10          1           0       -0.664762    1.284778   -1.241289
     11          1           0       -0.242796    1.083788    0.670762
     12          1           0       -1.888007   -0.420606   -0.611639
     13          1           0       -2.682790    0.818030   -0.306804
     14          1           0       -2.217719   -1.043195    1.155547
 ---------------------------------------------------------------------

 SCF Done:  E(RB2PLYPD3) =  -156.960013138     A.U. after   13 cycles
 E2(B2PLYPD3) =    -0.2652389209D+00 E(B2PLYPD3) =    -0.15722525205921D+03

 The electronic state is 1-A.
 Alpha  occ. eigenvalues --  -10.67054 -10.63623 -10.63191 -10.61450  -0.97418
 Alpha  occ. eigenvalues --   -0.91294  -0.77802  -0.68334  -0.52497  -0.51012
 Alpha  occ. eigenvalues --   -0.49172  -0.44442  -0.39643  -0.38412  -0.36408
 Alpha  occ. eigenvalues --   -0.35643  -0.35107
 Alpha virt. eigenvalues --   -0.04439   0.03171   0.04560   0.04664   0.08789
 Alpha virt. eigenvalues --    0.09984   0.11116   0.11999   0.12952   0.14953
 Alpha virt. eigenvalues --    0.15842   0.16190   0.16714   0.18075   0.19881

 Mulliken charges:
               1
     1  C   -1.041514
     2  C   -0.028887
     3  H    0.012600
     4  H    0.072301
     5  H    0.899513
     6  C   -0.026628
     7  H    0.028228
     8  H    0.065245
     9  C   -0.389659
    10  H   -0.002725
    11  H    0.053766
    12  H    0.289385
    13  H    0.035681
    14  H    0.032693
 Sum of Mulliken charges =   0.00000

 Dipole moment (field-independent basis, Debye):
    X=             -0.6624    Y=              0.1152    Z=             -0.7204  Tot=              0.9855
 Quadrupole moment (field-independent basis, Debye-Ang):
   XX=            -34.4249   YY=            -28.8697   ZZ=            -28.2396
   XY=              1.3396   XZ=              0.4774   YZ=              1.2148

 Normal termination of Gaussian 09 at Wed Aug 26 10:48:38 2020.
