 Gaussian 09, Revision D.01,
 Gaussian 09:  ES64L-G09RevD.01 24-Apr-2013

 --------------------
 #p B2PLYPD3/Def2QZVP
 --------------------

 ----------
 butane_opt
 ----------
 Symbolic Z-matrix:
 Charge =  0 Multiplicity = 1

                         Standard orientation:
 ---------------------------------------------------------------------
 Center     Atomic      Atomic             Coordinates (Angstroms)
 Number     Number       Type             X           Y           Z
 ---------------------------------------------------------------------
      1          6           0        1.914615    0.117584   -0.058495
      2          6           0        0.663053   -0.492223    0.054926
      3          1           0        2.772310   -0.793554   -0.061673
      4          1           0        2.237560    0.555322    0.664124
      5          1           0        1.877132    0.749728   -0.885659
      6          6           0       -0.556984    0.584253    0.151595
      7          1           0        0.515744   -0.989250    0.778082
      8          1           0        0.675621   -1.230638   -0.770235
      9          6           0       -2.050768   -0.194926   -0.098205
     10          1           0       -0.195075    1.140333   -0.741535
     11          1           0       -0.472539    1.381689    1.084277
     12          1           0       -1.877064   -0.363436   -0.731239
     13          1           0       -2.801007    0.512563   -0.581721
     14          1           0       -2.552186   -1.050885    0.946650
 ---------------------------------------------------------------------

 SCF Done:  E(RB2PLYPD3) =  -157.647294412     A.U. after   11 cycles
 E2(B2PLYPD3) =    -0.2506868535D+00 E(B2PLYPD3) =    -0.15789798126575D+03

 The electronic state is 1-A.
 Alpha  occ. eigenvalues --  -10.63972 -10.61152 -10.57890 -10.57741  -0.92990
 Alpha  occ. eigenvalues --   -0.87770  -0.75344  -0.68823  -0.57127  -0.49470
 Alpha  occ. eigenvalues --   -0.47388  -0.47256  -0.42964  -0.42539  -0.38048
 Alpha  occ. eigenvalues --   -0.37464  -0.34267
 Alpha virt. eigenvalues --    0.05049   0.05731   0.07929   0.08231   0.10582
 Alpha virt. eigenvalues --    0.10725   0.12302   0.12940   0.15171   0.15458
 Alpha virt. eigenvalues --    0.16017   0.16523   0.18458   0.19206   0.20426

 Mulliken charges:
               1
     1  C   -0.142829
     2  C   -0.062649
     3  H    0.008769
     4  H    0.067602
     5  H    0.049671
     6  C   -0.075535
     7  H    0.083926
     8  H    0.022782
     9  C   -0.694655
    10  H    0.028388
    11  H    0.037833
    12  H    0.546340
    13  H    0.059190
    14  H    0.071167
 Sum of Mulliken charges =   0.00000

 Dipole moment (field-independent basis, Debye):
    X=              0.1288    Y=             -0.1200    Z=             -0.0764  Tot=              0.1920
 Quadrupole moment (field-independent basis, Debye-Ang):
   XX=            -30.0321   YY=            -28.8821   ZZ=            -27.6333
   XY=              0.5334   XZ=              0.8350   YZ=             -0.6302

 Normal termination of Gaussian 09 at Wed Aug 26 19:51:54 2020.
