 Gaussian 09, Revision D.01,
 Gaussian 09:  ES64L-G09RevD.01 24-Apr-2013

 --------------------
 #p B2PLYPD3/Def2QZVP
 --------------------

 ----------
 butane_opt
 ----------
 Symbolic Z-matrix:
 Charge =  0 Multiplicity = 1

                         Standard orientation:
 ---------------------------------------------------------------------
 Center     Atomic      Atomic             Coordinates (Angstroms)
 Number     Number       Type             X           Y           Z
 ---------------------------------------------------------------------
      1          6           0       -2.047582    0.046703   -0.196206
      2          6           0       -0.573398   -0.443670    0.149582
      3          1           0       -2.852002   -0.617035    0.313374
      4          1           0       -2.019062    0.833643   -1.142692
      5          1           0       -1.833560    0.382559    0.456260
      6          6           0        0.556233    0.575287    0.162345
      7          1           0       -0.545151   -0.894827   -0.550105
      8          1           0       -0.613541   -1.078744    1.028232
      9          6           0        2.049545   -0.189049   -0.149320
     10          1           0        0.619684    1.729510    1.175656
     11          1           0        0.205489    0.844743   -0.421725
     12          1           0        2.384008   -0.843953    0.820077
     13          1           0        2.698396    0.446323   -0.644602
     14          1           0        2.046945   -0.737851   -0.832882
 ---------------------------------------------------------------------

 SCF Done:  E(RB2PLYPD3) =  -157.489841607     A.U. after   12 cycles
 E2(B2PLYPD3) =    -0.2524319969D+00 E(B2PLYPD3) =    -0.15774227360415D+03

 The electronic state is 1-A.
 Alpha  occ. eigenvalues --  -10.62154 -10.60313 -10.58928 -10.58136  -0.96866
 Alpha  occ. eigenvalues --   -0.86618  -0.80093  -0.71439  -0.56572  -0.50721
 Alpha  occ. eigenvalues --   -0.48619  -0.46921  -0.44870  -0.41998  -0.39224
 Alpha  occ. eigenvalues --   -0.36963  -0.32051
 Alpha virt. eigenvalues --    0.04544   0.06301   0.06777   0.08546   0.10905
 Alpha virt. eigenvalues --    0.11446   0.12275   0.13627   0.14431   0.14727
 Alpha virt. eigenvalues --    0.15577   0.16827   0.18014   0.19284   0.20907

 Mulliken charges:
               1
     1  C   -0.583463
     2  C   -0.215537
     3  H    0.070569
     4  H    0.064422
     5  H    0.394093
     6  C   -0.521899
     7  H    0.246467
     8  H    0.029033
     9  C   -0.178280
    10  H    0.002462
    11  H    0.477215
    12  H    0.056570
    13  H    0.044407
    14  H    0.113941
 Sum of Mulliken charges =   0.00000

 Dipole moment (field-independent basis, Debye):
    X=              0.3038    Y=             -0.4471    Z=             -0.4741  Tot=              0.7190
 Quadrupole moment (field-independent basis, Debye-Ang):
   XX=            -29.8350   YY=            -29.2193   ZZ=            -27.5508
   XY=             -0.2594   XZ=             -1.9519   YZ=             -1.1981

 Normal termination of Gaussian 09 at Wed Aug 26 19:23:28 2020.
