 Gaussian 09, Revision D.01,
 Gaussian 09:  ES64L-G09RevD.01 24-Apr-2013

 --------------------
 #p B2PLYPD3/Def2QZVP
 --------------------

 ----------
 butane_opt
 ----------
 Symbolic Z-matrix:
 Charge =  0 Multiplicity = 1

                         Standard orientation:
 ---------------------------------------------------------------------
 Center     Atomic      Atomic             Coordinates (Angstroms)
 Number     Number       Type             X           Y           Z
 ---------------------------------------------------------------------
      1          6           0        2.001701    0.080055    0.098509
      2          6           0        0.599220   -0.469232   -0.214293
      3          1           0        2.737146   -0.658002    0.014169
      4          1           0        2.270658    0.587007    1.128672
      5          1           0        1.951654    0.573366   -0.685756
      6          6           0       -0.569524    0.560756    0.064934
      7          1           0        0.582840   -1.058451    0.381106
      8          1           0        0.316755   -1.006845   -1.116482
      9          6           0       -2.016819   -0.203849    0.100341
     10          1           0       -0.485137    1.524646   -0.954139
     11          1           0       -0.141303    0.982652    0.819499
     12          1           0       -1.919409   -0.371883   -0.561532
     13          1           0       -2.926092    0.692897   -0.317566
     14          1           0       -2.474577   -1.071761    0.995084
 ---------------------------------------------------------------------

 SCF Done:  E(RB2PLYPD3) =  -157.613245910     A.U. after   11 cycles
 E2(B2PLYPD3) =    -0.2516524933D+00 E(B2PLYPD3) =    -0.15786489840336D+03

 The electronic state is 1-A.
 Alpha  occ. eigenvalues --  -10.63483 -10.62056 -10.58617 -10.57802  -0.93176
 Alpha  occ. eigenvalues --   -0.87064  -0.76233  -0.69686  -0.56022  -0.50816
 Alpha  occ. eigenvalues --   -0.48860  -0.45663  -0.42885  -0.41859  -0.39186
 Alpha  occ. eigenvalues --   -0.35528  -0.35001
 Alpha virt. eigenvalues --    0.04762   0.05600   0.07055   0.08775   0.10479
 Alpha virt. eigenvalues --    0.11388   0.12388   0.13282   0.15219   0.15450
 Alpha virt. eigenvalues --    0.15644   0.16408   0.18347   0.19026   0.20308

 Mulliken charges:
               1
     1  C   -0.178973
     2  C   -0.216175
     3  H    0.041648
     4  H    0.044714
     5  H    0.100801
     6  C   -0.049672
     7  H    0.186446
     8  H    0.028178
     9  C   -0.697501
    10  H   -0.017316
    11  H    0.088685
    12  H    0.543755
    13  H    0.034131
    14  H    0.091278
 Sum of Mulliken charges =   0.00000

 Dipole moment (field-independent basis, Debye):
    X=              0.3563    Y=             -0.7640    Z=              0.1263  Tot=              0.8524
 Quadrupole moment (field-independent basis, Debye-Ang):
   XX=            -29.7416   YY=            -29.2816   ZZ=            -27.8311
   XY=              0.7825   XZ=              0.9553   YZ=             -0.5637

 Normal termination of Gaussian 09 at Wed Aug 26 23:16:02 2020.
