 Gaussian 09, Revision D.01,
 Gaussian 09:  ES64L-G09RevD.01 24-Apr-2013

 --------------------
 #p B2PLYPD3/Def2QZVP
 --------------------

 ----------
 butane_opt
 ----------
 Symbolic Z-matrix:
 Charge =  0 Multiplicity = 1

                         Standard orientation:
 ---------------------------------------------------------------------
 Center     Atomic      Atomic             Coordinates (Angstroms)
 Number     Number       Type             X           Y           Z
 ---------------------------------------------------------------------
      1          6           0        1.890831    0.182636    0.089250
      2          6           0        0.505743   -0.610849    0.049290
      3          1           0        2.752639   -0.589447   -0.184852
      4          1           0        2.245479    1.273310    0.943043
      5          1           0        2.258863    0.550627   -0.712754
      6          6           0       -0.617787    0.356636   -0.335533
      7          1           0        0.189471   -1.039408    0.900334
      8          1           0        0.658210   -1.310825   -0.701955
      9          6           0       -1.849464   -0.027981    0.118761
     10          1           0       -0.806833    0.860676   -1.164742
     11          1           0       -0.216348    1.219537    0.399339
     12          1           0       -2.405749   -0.885409   -0.508501
     13          1           0       -2.647833    0.927429    0.447326
     14          1           0       -1.603840   -0.409142    1.052156
 ---------------------------------------------------------------------

 SCF Done:  E(RB2PLYPD3) =  -157.933476280     A.U. after   11 cycles
 E2(B2PLYPD3) =    -0.2518799775D+00 E(B2PLYPD3) =    -0.15818535625764D+03

 The electronic state is 1-A.
 Alpha  occ. eigenvalues --  -10.62961 -10.61487 -10.60922 -10.59116  -0.94213
 Alpha  occ. eigenvalues --   -0.84415  -0.74065  -0.67777  -0.56322  -0.50189
 Alpha  occ. eigenvalues --   -0.49285  -0.46992  -0.42791  -0.40301  -0.39035
 Alpha  occ. eigenvalues --   -0.35632  -0.33739
 Alpha virt. eigenvalues --    0.04795   0.05659   0.07748   0.08837   0.09745
 Alpha virt. eigenvalues --    0.10788   0.12152   0.13218   0.13862   0.14762
 Alpha virt. eigenvalues --    0.15901   0.16648   0.19250   0.19965   0.20639

 Mulliken charges:
               1
     1  C   -0.176572
     2  C   -0.021736
     3  H    0.007669
     4  H    0.028475
     5  H    0.083988
     6  C   -0.028698
     7  H    0.073527
     8  H    0.034456
     9  C   -0.161931
    10  H    0.051154
    11  H    0.001374
    12  H    0.035086
    13  H    0.028663
    14  H    0.044545
 Sum of Mulliken charges =   0.00000

 Dipole moment (field-independent basis, Debye):
    X=              0.1499    Y=             -0.2166    Z=             -0.5485  Tot=              0.6085
 Quadrupole moment (field-independent basis, Debye-Ang):
   XX=            -30.9297   YY=            -28.9504   ZZ=            -28.9227
   XY=              0.2918   XZ=             -1.4866   YZ=              0.5272

 Normal termination of Gaussian 09 at Wed Aug 26 14:27:54 2020.
