 Gaussian 09, Revision D.01,
 Gaussian 09:  ES64L-G09RevD.01 24-Apr-2013

 --------------------
 #p B2PLYPD3/Def2QZVP
 --------------------

 ----------
 butane_opt
 ----------
 Symbolic Z-matrix:
 Charge =  0 Multiplicity = 1

                         Standard orientation:
 ---------------------------------------------------------------------
 Center     Atomic      Atomic             Coordinates (Angstroms)
 Number     Number       Type             X           Y           Z
 ---------------------------------------------------------------------
      1          6           0        1.925574   -0.159373   -0.108303
      2          6           0        0.505848    0.629143    0.182788
      3          1           0        2.540109    0.415236   -0.676551
      4          1           0        1.706322   -0.705007   -0.857934
      5          1           0        2.540186   -0.880424    0.785330
      6          6           0       -0.563393   -0.418303    0.194499
      7          1           0        0.216746    1.164849   -0.770072
      8          1           0        0.292267    1.357210    0.924208
      9          6           0       -1.883393    0.016736   -0.136732
     10          1           0       -0.636340   -1.150571    1.095456
     11          1           0       -0.164942   -1.298492   -0.684189
     12          1           0       -1.751337    0.799996    0.711684
     13          1           0       -2.773738   -0.766074   -0.271410
     14          1           0       -1.877094    0.654057   -1.050028
 ---------------------------------------------------------------------

 SCF Done:  E(RB2PLYPD3) =  -157.985595590     A.U. after   11 cycles
 E2(B2PLYPD3) =    -0.2519621822D+00 E(B2PLYPD3) =    -0.15823755777174D+03

 The electronic state is 1-A.
 Alpha  occ. eigenvalues --  -10.62483 -10.62410 -10.61621 -10.60756  -0.92916
 Alpha  occ. eigenvalues --   -0.83845  -0.74212  -0.64776  -0.53900  -0.51335
 Alpha  occ. eigenvalues --   -0.48429  -0.44842  -0.43161  -0.42059  -0.38788
 Alpha  occ. eigenvalues --   -0.38053  -0.32481
 Alpha virt. eigenvalues --    0.05472   0.06388   0.07527   0.08253   0.10387
 Alpha virt. eigenvalues --    0.11571   0.12468   0.12903   0.14321   0.15776
 Alpha virt. eigenvalues --    0.16289   0.17014   0.18776   0.19395   0.20718

 Mulliken charges:
               1
     1  C   -0.179871
     2  C   -0.058768
     3  H    0.042149
     4  H    0.096416
     5  H    0.046711
     6  C    0.003143
     7  H    0.039560
     8  H    0.051077
     9  C   -0.149979
    10  H    0.026980
    11  H   -0.046106
    12  H    0.029218
    13  H    0.061117
    14  H    0.038353
 Sum of Mulliken charges =   0.00000

 Dipole moment (field-independent basis, Debye):
    X=             -0.0047    Y=              0.1574    Z=             -0.2896  Tot=              0.3296
 Quadrupole moment (field-independent basis, Debye-Ang):
   XX=            -30.1163   YY=            -29.5380   ZZ=            -28.6168
   XY=              0.2541   XZ=             -0.2230   YZ=             -0.3368

 Normal termination of Gaussian 09 at Wed Aug 26 14:21:53 2020.
