 Gaussian 09, Revision D.01,
 Gaussian 09:  ES64L-G09RevD.01 24-Apr-2013

 --------------------
 #p B2PLYPD3/Def2QZVP
 --------------------

 ----------
 butane_opt
 ----------
 Symbolic Z-matrix:
 Charge =  0 Multiplicity = 1

                         Standard orientation:
 ---------------------------------------------------------------------
 Center     Atomic      Atomic             Coordinates (Angstroms)
 Number     Number       Type             X           Y           Z
 ---------------------------------------------------------------------
      1          6           0       -1.952945   -0.131363    0.051040
      2          6           0       -0.524359    0.550089   -0.061149
      3          1           0       -2.733141    0.630012   -0.229764
      4          1           0       -2.472001   -1.062147    1.109614
      5          1           0       -2.016469   -0.500653   -0.621812
      6          6           0        0.558607   -0.532068   -0.142360
      7          1           0       -0.402290    1.100142    0.849631
      8          1           0       -0.473432    1.291142   -0.921638
      9          6           0        1.956280    0.118112    0.096065
     10          1           0        0.526609   -1.023082   -0.935488
     11          1           0        0.474041   -1.119171    0.702883
     12          1           0        2.047810    0.504087   -0.681990
     13          1           0        2.782221   -0.731917   -0.134987
     14          1           0        2.041159    0.882975    1.201979
 ---------------------------------------------------------------------

 SCF Done:  E(RB2PLYPD3) =  -157.806209729     A.U. after   11 cycles
 E2(B2PLYPD3) =    -0.2497907526D+00 E(B2PLYPD3) =    -0.15805600048208D+03

 The electronic state is 1-A.
 Alpha  occ. eigenvalues --  -10.61628 -10.60838 -10.60243 -10.58265  -0.92275
 Alpha  occ. eigenvalues --   -0.85406  -0.75167  -0.68935  -0.55876  -0.49415
 Alpha  occ. eigenvalues --   -0.47475  -0.46051  -0.42110  -0.41133  -0.38804
 Alpha  occ. eigenvalues --   -0.37596  -0.36196
 Alpha virt. eigenvalues --    0.04743   0.05332   0.07594   0.08387   0.10310
 Alpha virt. eigenvalues --    0.11425   0.11992   0.12916   0.14319   0.15478
 Alpha virt. eigenvalues --    0.15998   0.16528   0.18984   0.19253   0.21124

 Mulliken charges:
               1
     1  C   -0.442232
     2  C   -0.012541
     3  H    0.039651
     4  H    0.029522
     5  H    0.302906
     6  C   -0.063685
     7  H    0.045703
     8  H    0.027213
     9  C   -0.251500
    10  H    0.055831
    11  H    0.059726
    12  H    0.136381
    13  H    0.022782
    14  H    0.050243
 Sum of Mulliken charges =   0.00000

 Dipole moment (field-independent basis, Debye):
    X=              0.0298    Y=              0.0388    Z=             -0.7694  Tot=              0.7709
 Quadrupole moment (field-independent basis, Debye-Ang):
   XX=            -31.1088   YY=            -28.9294   ZZ=            -27.5789
   XY=             -0.1700   XZ=              0.2247   YZ=              0.2050

 Normal termination of Gaussian 09 at Wed Aug 26 14:50:19 2020.
