 Gaussian 09, Revision D.01,
 Gaussian 09:  ES64L-G09RevD.01 24-Apr-2013

 --------------------
 #p B2PLYPD3/Def2QZVP
 --------------------

 ----------
 butane_opt
 ----------
 Symbolic Z-matrix:
 Charge =  0 Multiplicity = 1

                         Standard orientation:
 ---------------------------------------------------------------------
 Center     Atomic      Atomic             Coordinates (Angstroms)
 Number     Number       Type             X           Y           Z
 ---------------------------------------------------------------------
      1          6           0        1.831888    0.087825    0.016325
      2          6           0        0.603620   -0.415201    0.014300
      3          1           0        2.687318   -0.773696   -0.307305
      4          1           0        2.190000    0.935368    0.954423
      5          1           0        1.956458    0.387774   -0.446993
      6          6           0       -0.569080    0.510715   -0.057885
      7          1           0        0.505152   -0.866105    0.940823
      8          1           0        0.609017   -1.327949   -0.977513
      9          6           0       -1.940307   -0.146446   -0.009399
     10          1           0       -0.158565    1.323180   -1.093177
     11          1           0       -0.343166    1.124182    0.799464
     12          1           0       -2.130628   -0.609302   -0.761180
     13          1           0       -2.790775    0.663230    0.021723
     14          1           0       -2.081533   -1.078044    1.089689
 ---------------------------------------------------------------------

 SCF Done:  E(RB2PLYPD3) =  -157.328695419     A.U. after   12 cycles
 E2(B2PLYPD3) =    -0.2525420570D+00 E(B2PLYPD3) =    -0.15758123747573D+03

 The electronic state is 1-A.
 Alpha  occ. eigenvalues --  -10.63837 -10.63093 -10.61031 -10.59687  -0.96901
 Alpha  occ. eigenvalues --   -0.87329  -0.77536  -0.68154  -0.54716  -0.51766
 Alpha  occ. eigenvalues --   -0.50332  -0.46262  -0.43177  -0.42058  -0.39055
 Alpha  occ. eigenvalues --   -0.34866  -0.34579
 Alpha virt. eigenvalues --    0.04361   0.04728   0.06149   0.07178   0.10109
 Alpha virt. eigenvalues --    0.11264   0.12011   0.12772   0.14396   0.15041
 Alpha virt. eigenvalues --    0.15433   0.16412   0.18771   0.19476   0.21365

 Mulliken charges:
               1
     1  C   -0.827704
     2  C    0.063927
     3  H    0.078464
     4  H    0.046569
     5  H    0.598845
     6  C   -0.042484
     7  H    0.059272
     8  H   -0.016769
     9  C   -0.184223
    10  H   -0.009228
    11  H    0.056042
    12  H    0.113467
    13  H    0.048602
    14  H    0.015219
 Sum of Mulliken charges =   0.00000

 Dipole moment (field-independent basis, Debye):
    X=             -0.1257    Y=              0.1534    Z=             -0.2042  Tot=              0.2846
 Quadrupole moment (field-independent basis, Debye-Ang):
   XX=            -29.6166   YY=            -29.9076   ZZ=            -28.7320
   XY=              0.2890   XZ=             -0.3716   YZ=              0.4662

 Normal termination of Gaussian 09 at Wed Aug 26 23:19:41 2020.
