 Gaussian 09, Revision D.01,
 Gaussian 09:  ES64L-G09RevD.01 24-Apr-2013

 --------------------
 #p B2PLYPD3/Def2QZVP
 --------------------

 ----------
 butane_opt
 ----------
 Symbolic Z-matrix:
 Charge =  0 Multiplicity = 1

                         Standard orientation:
 ---------------------------------------------------------------------
 Center     Atomic      Atomic             Coordinates (Angstroms)
 Number     Number       Type             X           Y           Z
 ---------------------------------------------------------------------
      1          6           0       -1.883770    0.212639   -0.122669
      2          6           0       -0.521762   -0.606633    0.005176
      3          1           0       -2.571855   -0.519683   -0.055009
      4          1           0       -2.181042    1.293458   -0.885868
      5          1           0       -2.446612    0.414829    0.705356
      6          6           0        0.570141    0.333282    0.404148
      7          1           0       -0.498163   -0.824669   -0.827319
      8          1           0       -0.454279   -1.356958    0.670809
      9          6           0        1.882371   -0.061503   -0.187551
     10          1           0        0.672504    0.841762    1.496112
     11          1           0        0.605910    1.034017   -0.383911
     12          1           0        2.504198   -0.873024    0.486932
     13          1           0        2.788539    1.063876   -0.498408
     14          1           0        1.298918   -0.340325   -1.303315
 ---------------------------------------------------------------------

 SCF Done:  E(RB2PLYPD3) =  -157.829636544     A.U. after   11 cycles
 E2(B2PLYPD3) =    -0.2555103144D+00 E(B2PLYPD3) =    -0.15808514685832D+03

 The electronic state is 1-A.
 Alpha  occ. eigenvalues --  -10.66734 -10.60881 -10.60752 -10.58951  -0.94322
 Alpha  occ. eigenvalues --   -0.84632  -0.75370  -0.64258  -0.58543  -0.50150
 Alpha  occ. eigenvalues --   -0.48493  -0.45756  -0.42637  -0.38945  -0.37677
 Alpha  occ. eigenvalues --   -0.35036  -0.33285
 Alpha virt. eigenvalues --    0.04013   0.05449   0.07906   0.08084   0.09008
 Alpha virt. eigenvalues --    0.10456   0.11485   0.12706   0.14527   0.15284
 Alpha virt. eigenvalues --    0.15936   0.16085   0.18400   0.19408   0.21174

 Mulliken charges:
               1
     1  C   -0.180275
     2  C   -0.175036
     3  H    0.053186
     4  H    0.052207
     5  H    0.036084
     6  C   -0.083309
     7  H    0.178775
     8  H    0.053864
     9  C   -0.158842
    10  H    0.044533
    11  H    0.084577
    12  H    0.043525
    13  H    0.009237
    14  H    0.041474
 Sum of Mulliken charges =   0.00000

 Dipole moment (field-independent basis, Debye):
    X=             -0.7933    Y=             -0.3472    Z=              0.3665  Tot=              0.9403
 Quadrupole moment (field-independent basis, Debye-Ang):
   XX=            -30.9779   YY=            -29.3449   ZZ=            -29.0949
   XY=              0.3334   XZ=              0.2559   YZ=             -1.2938

 Normal termination of Gaussian 09 at Wed Aug 26 14:53:38 2020.
