 Gaussian 09, Revision D.01,
 Gaussian 09:  ES64L-G09RevD.01 24-Apr-2013

 --------------------
 #p B2PLYPD3/Def2QZVP
 --------------------

 ----------
 butane_opt
 ----------
 Symbolic Z-matrix:
 Charge =  0 Multiplicity = 1

                         Standard orientation:
 ---------------------------------------------------------------------
 Center     Atomic      Atomic             Coordinates (Angstroms)
 Number     Number       Type             X           Y           Z
 ---------------------------------------------------------------------
      1          6           0        1.845793    0.085620   -0.121934
      2          6           0        0.549521   -0.469855    0.101995
      3          1           0        2.820566   -0.855404    0.096068
      4          1           0        2.193510    0.250738    0.318874
      5          1           0        1.883354    1.190932   -1.231384
      6          6           0       -0.538741    0.545094    0.248700
      7          1           0        0.692636   -0.975955    1.016146
      8          1           0        0.235821   -1.020107   -0.812902
      9          6           0       -1.978872   -0.192049   -0.138219
     10          1           0       -0.091217    0.936967   -0.459132
     11          1           0       -0.197729    1.390618    1.223667
     12          1           0       -1.598553   -0.659747   -0.838874
     13          1           0       -2.801576    0.616124   -0.550261
     14          1           0       -2.403016   -0.687025    0.694548
 ---------------------------------------------------------------------

 SCF Done:  E(RB2PLYPD3) =  -157.338101292     A.U. after   12 cycles
 E2(B2PLYPD3) =    -0.2549423188D+00 E(B2PLYPD3) =    -0.15759304361038D+03

 The electronic state is 1-A.
 Alpha  occ. eigenvalues --  -10.63506 -10.61390 -10.61292 -10.60985  -0.96502
 Alpha  occ. eigenvalues --   -0.87795  -0.78948  -0.69158  -0.56882  -0.54488
 Alpha  occ. eigenvalues --   -0.49116  -0.45698  -0.42846  -0.40147  -0.38206
 Alpha  occ. eigenvalues --   -0.36298  -0.33945
 Alpha virt. eigenvalues --    0.02264   0.05978   0.06310   0.07588   0.09655
 Alpha virt. eigenvalues --    0.11042   0.11998   0.13468   0.13731   0.14854
 Alpha virt. eigenvalues --    0.15977   0.16887   0.17426   0.19399   0.20759

 Mulliken charges:
               1
     1  C   -0.772473
     2  C    0.040110
     3  H    0.010107
     4  H    0.610341
     5  H    0.014001
     6  C   -0.166639
     7  H    0.028775
     8  H    0.058887
     9  C   -0.189405
    10  H    0.134229
    11  H    0.004815
    12  H    0.122244
    13  H    0.034287
    14  H    0.070720
 Sum of Mulliken charges =   0.00000

 Dipole moment (field-independent basis, Debye):
    X=             -0.2600    Y=             -0.3000    Z=              0.4155  Tot=              0.5746
 Quadrupole moment (field-independent basis, Debye-Ang):
   XX=            -30.1209   YY=            -30.2064   ZZ=            -28.6996
   XY=              0.8053   XZ=              2.1172   YZ=             -0.6287

 Normal termination of Gaussian 09 at Wed Aug 26 22:34:56 2020.
