 Gaussian 09, Revision D.01,
 Gaussian 09:  ES64L-G09RevD.01 24-Apr-2013

 --------------------
 #p B2PLYPD3/Def2QZVP
 --------------------

 ----------
 butane_opt
 ----------
 Symbolic Z-matrix:
 Charge =  0 Multiplicity = 1

                         Standard orientation:
 ---------------------------------------------------------------------
 Center     Atomic      Atomic             Coordinates (Angstroms)
 Number     Number       Type             X           Y           Z
 ---------------------------------------------------------------------
      1          6           0       -1.880289    0.156701    0.102038
      2          6           0       -0.522076   -0.584976    0.007776
      3          1           0       -2.546507   -0.494312   -0.611027
      4          1           0       -1.800216    0.302645   -0.516915
      5          1           0       -2.331229    1.160842    1.189524
      6          6           0        0.483126    0.438814   -0.223195
      7          1           0       -0.577567   -1.225795   -0.833007
      8          1           0       -0.199101   -1.105956    0.960586
      9          6           0        1.865283   -0.120233    0.081710
     10          1           0        0.559673    1.185217    0.689708
     11          1           0        0.424490    1.201385   -1.288369
     12          1           0        1.850578   -0.728911    1.025922
     13          1           0        2.716499    0.899439    0.238357
     14          1           0        2.227115   -0.536391   -0.664750
 ---------------------------------------------------------------------

 SCF Done:  E(RB2PLYPD3) =  -157.533100674     A.U. after   12 cycles
 E2(B2PLYPD3) =    -0.2551611230D+00 E(B2PLYPD3) =    -0.15778826179741D+03

 The electronic state is 1-A.
 Alpha  occ. eigenvalues --  -10.62899 -10.61676 -10.60858 -10.60524  -0.96629
 Alpha  occ. eigenvalues --   -0.87893  -0.75872  -0.65407  -0.55330  -0.50370
 Alpha  occ. eigenvalues --   -0.48461  -0.46360  -0.41911  -0.39139  -0.37414
 Alpha  occ. eigenvalues --   -0.35626  -0.35157
 Alpha virt. eigenvalues --    0.03394   0.05383   0.06278   0.07132   0.10026
 Alpha virt. eigenvalues --    0.10527   0.11747   0.12723   0.14252   0.15558
 Alpha virt. eigenvalues --    0.16149   0.16432   0.17889   0.19022   0.21269

 Mulliken charges:
               1
     1  C   -0.868897
     2  C   -0.016865
     3  H    0.021986
     4  H    0.714439
     5  H    0.080221
     6  C   -0.055122
     7  H    0.048623
     8  H    0.043650
     9  C   -0.164027
    10  H    0.036077
    11  H    0.019097
    12  H    0.058473
    13  H    0.002444
    14  H    0.079901
 Sum of Mulliken charges =   0.00000

 Dipole moment (field-independent basis, Debye):
    X=              0.1480    Y=             -0.1286    Z=             -0.4399  Tot=              0.4816
 Quadrupole moment (field-independent basis, Debye-Ang):
   XX=            -32.4566   YY=            -29.5166   ZZ=            -27.2542
   XY=             -1.2267   XZ=              0.8233   YZ=              0.9980

 Normal termination of Gaussian 09 at Wed Aug 26 14:42:18 2020.
