 Gaussian 09, Revision D.01,
 Gaussian 09:  ES64L-G09RevD.01 24-Apr-2013

 --------------------
 #p B2PLYPD3/Def2QZVP
 --------------------

 ----------
 butane_opt
 ----------
 Symbolic Z-matrix:
 Charge =  0 Multiplicity = 1

                         Standard orientation:
 ---------------------------------------------------------------------
 Center     Atomic      Atomic             Coordinates (Angstroms)
 Number     Number       Type             X           Y           Z
 ---------------------------------------------------------------------
      1          6           0        1.895356    0.056715   -0.016751
      2          6           0        0.562172   -0.464460    0.089405
      3          1           0        2.735593   -0.879764   -0.038741
      4          1           0        2.105946    0.499666    0.652449
      5          1           0        1.818507    0.762598   -1.087545
      6          6           0       -0.484097    0.653578    0.025377
      7          1           0        0.386071   -0.984036    0.894717
      8          1           0        0.263433   -1.040183   -0.842675
      9          6           0       -1.930179   -0.128755   -0.067206
     10          1           0       -0.345617    0.820928   -0.583521
     11          1           0       -0.401201    1.561508    1.016776
     12          1           0       -1.742303   -0.835967   -0.815057
     13          1           0       -2.632845    0.440086   -0.380221
     14          1           0       -2.447092   -1.047299    0.998872
 ---------------------------------------------------------------------

 SCF Done:  E(RB2PLYPD3) =  -157.559943788     A.U. after   11 cycles
 E2(B2PLYPD3) =    -0.2503314055D+00 E(B2PLYPD3) =    -0.15781027519310D+03

 The electronic state is 1-A.
 Alpha  occ. eigenvalues --  -10.62402 -10.60463 -10.60242 -10.59086  -0.95871
 Alpha  occ. eigenvalues --   -0.85530  -0.76014  -0.70707  -0.56836  -0.51648
 Alpha  occ. eigenvalues --   -0.48986  -0.47334  -0.43795  -0.39552  -0.38085
 Alpha  occ. eigenvalues --   -0.37642  -0.36165
 Alpha virt. eigenvalues --    0.04568   0.05628   0.07196   0.08802   0.10256
 Alpha virt. eigenvalues --    0.10975   0.12285   0.13073   0.14576   0.15089
 Alpha virt. eigenvalues --    0.15770   0.16367   0.18561   0.19334   0.21635

 Mulliken charges:
               1
     1  C   -0.268915
     2  C    0.014596
     3  H    0.030028
     4  H    0.169454
     5  H    0.025750
     6  C   -0.752468
     7  H    0.074327
     8  H    0.026904
     9  C   -0.149121
    10  H    0.650919
    11  H    0.034170
    12  H    0.057351
    13  H    0.081664
    14  H    0.005340
 Sum of Mulliken charges =   0.00000

 Dipole moment (field-independent basis, Debye):
    X=              0.0669    Y=              0.0503    Z=             -0.2431  Tot=              0.2571
 Quadrupole moment (field-independent basis, Debye-Ang):
   XX=            -30.6976   YY=            -29.1787   ZZ=            -28.0742
   XY=             -0.3948   XZ=              1.9404   YZ=             -0.0655

 Normal termination of Gaussian 09 at Wed Aug 26 23:37:17 2020.
