 Gaussian 09, Revision D.01,
 Gaussian 09:  ES64L-G09RevD.01 24-Apr-2013

 --------------------
 #p B2PLYPD3/Def2QZVP
 --------------------

 ----------
 butane_opt
 ----------
 Symbolic Z-matrix:
 Charge =  0 Multiplicity = 1

                         Standard orientation:
 ---------------------------------------------------------------------
 Center     Atomic      Atomic             Coordinates (Angstroms)
 Number     Number       Type             X           Y           Z
 ---------------------------------------------------------------------
      1          6           0       -1.958351   -0.209079   -0.168383
      2          6           0       -0.574661    0.585125    0.247791
      3          1           0       -2.724128    0.568885   -0.612837
      4          1           0       -2.714794   -0.770663    0.706148
      5          1           0       -1.641010   -0.467325   -0.845994
      6          6           0        0.583832   -0.514690    0.119863
      7          1           0       -0.360533    1.404308    1.199384
      8          1           0       -0.139838    0.974726   -0.397332
      9          6           0        1.887140    0.089763   -0.119402
     10          1           0        0.461060   -1.149513   -0.684118
     11          1           0        0.752710   -1.126420    1.090567
     12          1           0        1.674735    1.125707   -1.198582
     13          1           0        2.687879   -0.621451   -0.257541
     14          1           0        2.376161    0.355028    0.521094
 ---------------------------------------------------------------------

 SCF Done:  E(RB2PLYPD3) =  -157.735725272     A.U. after   11 cycles
 E2(B2PLYPD3) =    -0.2521357363D+00 E(B2PLYPD3) =    -0.15798786100841D+03

 The electronic state is 1-A.
 Alpha  occ. eigenvalues --  -10.61250 -10.61207 -10.61078 -10.60518  -0.93459
 Alpha  occ. eigenvalues --   -0.86255  -0.77336  -0.69548  -0.54339  -0.51800
 Alpha  occ. eigenvalues --   -0.49571  -0.45193  -0.43045  -0.39909  -0.39266
 Alpha  occ. eigenvalues --   -0.36401  -0.34443
 Alpha virt. eigenvalues --    0.04853   0.06127   0.07277   0.08060   0.10217
 Alpha virt. eigenvalues --    0.10661   0.11701   0.13125   0.14306   0.15974
 Alpha virt. eigenvalues --    0.16319   0.17026   0.18511   0.18898   0.20517

 Mulliken charges:
               1
     1  C   -0.401235
     2  C   -0.228247
     3  H    0.026862
     4  H    0.081334
     5  H    0.302150
     6  C   -0.009080
     7  H    0.028404
     8  H    0.204371
     9  C   -0.223515
    10  H    0.065890
    11  H    0.006309
    12  H   -0.017260
    13  H    0.038999
    14  H    0.125017
 Sum of Mulliken charges =   0.00000

 Dipole moment (field-independent basis, Debye):
    X=              0.1773    Y=             -0.4411    Z=              0.1763  Tot=              0.5070
 Quadrupole moment (field-independent basis, Debye-Ang):
   XX=            -27.9272   YY=            -29.9729   ZZ=            -28.9138
   XY=             -0.5691   XZ=              1.4729   YZ=              0.1154

 Normal termination of Gaussian 09 at Wed Aug 26 15:09:03 2020.
