 Gaussian 09, Revision D.01,
 Gaussian 09:  ES64L-G09RevD.01 24-Apr-2013

 --------------------
 #p B2PLYPD3/Def2QZVP
 --------------------

 ----------
 butane_opt
 ----------
 Symbolic Z-matrix:
 Charge =  0 Multiplicity = 1

                         Standard orientation:
 ---------------------------------------------------------------------
 Center     Atomic      Atomic             Coordinates (Angstroms)
 Number     Number       Type             X           Y           Z
 ---------------------------------------------------------------------
      1          6           0       -1.981818    0.041523   -0.147726
      2          6           0       -0.571246   -0.418600    0.185506
      3          1           0       -2.761925   -0.842993   -0.423300
      4          1           0       -1.706576    0.470349   -0.865323
      5          1           0       -2.605541    0.916407    0.784399
      6          6           0        0.513139    0.630052    0.077794
      7          1           0       -0.301680   -1.178035   -0.499406
      8          1           0       -0.736947   -1.055029    1.194167
      9          6           0        1.992187   -0.154808   -0.040978
     10          1           0        0.581167    1.101003    0.742104
     11          1           0        0.455990    1.134081   -0.764382
     12          1           0        2.799090   -0.619523    0.810899
     13          1           0        2.598332    0.454742   -0.462035
     14          1           0        1.964520   -0.970004   -0.964701
 ---------------------------------------------------------------------

 SCF Done:  E(RB2PLYPD3) =  -157.862623908     A.U. after   11 cycles
 E2(B2PLYPD3) =    -0.2496002096D+00 E(B2PLYPD3) =    -0.15811222411761D+03

 The electronic state is 1-A.
 Alpha  occ. eigenvalues --  -10.62040 -10.61572 -10.61275 -10.58898  -0.92855
 Alpha  occ. eigenvalues --   -0.84065  -0.74789  -0.68475  -0.57048  -0.50565
 Alpha  occ. eigenvalues --   -0.48405  -0.46245  -0.41702  -0.40261  -0.39257
 Alpha  occ. eigenvalues --   -0.37191  -0.35991
 Alpha virt. eigenvalues --    0.05126   0.05772   0.08197   0.08778   0.09883
 Alpha virt. eigenvalues --    0.11223   0.12265   0.12747   0.14347   0.15564
 Alpha virt. eigenvalues --    0.16584   0.17051   0.18851   0.19185   0.21073

 Mulliken charges:
               1
     1  C   -0.246838
     2  C   -0.005363
     3  H    0.047787
     4  H    0.141250
     5  H    0.009091
     6  C   -0.194482
     7  H    0.052210
     8  H    0.012119
     9  C   -0.179661
    10  H    0.180816
    11  H    0.058554
    12  H    0.047277
    13  H    0.070370
    14  H    0.006872
 Sum of Mulliken charges =   0.00000

 Dipole moment (field-independent basis, Debye):
    X=              0.3780    Y=              0.3500    Z=             -0.5240  Tot=              0.7348
 Quadrupole moment (field-independent basis, Debye-Ang):
   XX=            -29.8709   YY=            -28.9022   ZZ=            -28.6947
   XY=              1.3261   XZ=              0.0231   YZ=              0.2976

 Normal termination of Gaussian 09 at Wed Aug 26 22:58:51 2020.
