 Gaussian 09, Revision D.01,
 Gaussian 09:  ES64L-G09RevD.01 24-Apr-2013

 --------------------
 #p B2PLYPD3/Def2QZVP
 --------------------

 ----------
 butane_opt
 ----------
 Symbolic Z-matrix:
 Charge =  0 Multiplicity = 1

                         Standard orientation:
 ---------------------------------------------------------------------
 Center     Atomic      Atomic             Coordinates (Angstroms)
 Number     Number       Type             X           Y           Z
 ---------------------------------------------------------------------
      1          6           0        1.920751   -0.163956   -0.063373
      2          6           0        0.594893    0.520272    0.049035
      3          1           0        2.691886    0.582901   -0.010970
      4          1           0        2.133995   -1.015766   -0.992849
      5          1           0        2.122475   -0.468093    0.604968
      6          6           0       -0.580313   -0.424256    0.189893
      7          1           0        0.257709    1.131461   -0.980947
      8          1           0        0.520470    1.208968    0.887174
      9          6           0       -1.931986    0.099850   -0.120247
     10          1           0       -0.558121   -1.128979    1.240741
     11          1           0       -0.410284   -1.131374   -0.577454
     12          1           0       -2.150287    0.920992    0.779435
     13          1           0       -2.775453   -0.790850   -0.254294
     14          1           0       -1.852466    0.499284   -1.027648
 ---------------------------------------------------------------------

 SCF Done:  E(RB2PLYPD3) =  -157.904254523     A.U. after   11 cycles
 E2(B2PLYPD3) =    -0.2490421689D+00 E(B2PLYPD3) =    -0.15815329669231D+03

 The electronic state is 1-A.
 Alpha  occ. eigenvalues --  -10.62362 -10.61651 -10.61071 -10.58239  -0.92789
 Alpha  occ. eigenvalues --   -0.86283  -0.74595  -0.65146  -0.54785  -0.50224
 Alpha  occ. eigenvalues --   -0.48789  -0.47789  -0.42230  -0.41607  -0.39203
 Alpha  occ. eigenvalues --   -0.36454  -0.36071
 Alpha virt. eigenvalues --    0.05347   0.06446   0.07635   0.08043   0.10580
 Alpha virt. eigenvalues --    0.11558   0.12592   0.13861   0.14045   0.15205
 Alpha virt. eigenvalues --    0.15606   0.16428   0.19345   0.19630   0.20921

 Mulliken charges:
               1
     1  C   -0.391958
     2  C   -0.000781
     3  H    0.043985
     4  H    0.040233
     5  H    0.270697
     6  C   -0.025719
     7  H    0.007152
     8  H    0.040541
     9  C   -0.161417
    10  H   -0.004255
    11  H    0.039708
    12  H    0.030796
    13  H    0.040390
    14  H    0.070628
 Sum of Mulliken charges =   0.00000

 Dipole moment (field-independent basis, Debye):
    X=              0.3721    Y=             -0.0582    Z=              0.0444  Tot=              0.3793
 Quadrupole moment (field-independent basis, Debye-Ang):
   XX=            -29.7531   YY=            -29.5482   ZZ=            -28.3218
   XY=              0.3009   XZ=              1.4174   YZ=              0.8953

 Normal termination of Gaussian 09 at Wed Aug 26 10:22:01 2020.
