 Gaussian 09, Revision D.01,
 Gaussian 09:  ES64L-G09RevD.01 24-Apr-2013

 --------------------
 #p B2PLYPD3/Def2QZVP
 --------------------

 ----------
 butane_opt
 ----------
 Symbolic Z-matrix:
 Charge =  0 Multiplicity = 1

                         Standard orientation:
 ---------------------------------------------------------------------
 Center     Atomic      Atomic             Coordinates (Angstroms)
 Number     Number       Type             X           Y           Z
 ---------------------------------------------------------------------
      1          6           0        1.938379    0.043746   -0.210279
      2          6           0        0.618514   -0.397656    0.100365
      3          1           0        2.826577   -0.868136    0.278666
      4          1           0        1.847295    0.535137    0.701868
      5          1           0        1.821032    0.735300   -1.253970
      6          6           0       -0.498375    0.574391    0.162053
      7          1           0        0.520963   -1.052474    1.138722
      8          1           0        0.227348   -0.918330   -0.548727
      9          6           0       -1.977288   -0.177349   -0.125812
     10          1           0       -0.508576    0.699378   -0.542180
     11          1           0       -0.208877    1.583112    1.229946
     12          1           0       -1.769104   -0.498041   -0.777427
     13          1           0       -2.599475    0.303394   -0.649556
     14          1           0       -2.644570   -0.778132    0.864698
 ---------------------------------------------------------------------

 SCF Done:  E(RB2PLYPD3) =  -157.473575454     A.U. after   12 cycles
 E2(B2PLYPD3) =    -0.2552558832D+00 E(B2PLYPD3) =    -0.15772883133680D+03

 The electronic state is 1-A.
 Alpha  occ. eigenvalues --  -10.63230 -10.61447 -10.59426 -10.59177  -0.98229
 Alpha  occ. eigenvalues --   -0.89234  -0.79553  -0.67755  -0.56542  -0.50087
 Alpha  occ. eigenvalues --   -0.48792  -0.48126  -0.42669  -0.40880  -0.37719
 Alpha  occ. eigenvalues --   -0.36730  -0.33271
 Alpha virt. eigenvalues --    0.03892   0.05916   0.06219   0.07840   0.10100
 Alpha virt. eigenvalues --    0.10718   0.11206   0.13315   0.13639   0.14878
 Alpha virt. eigenvalues --    0.15907   0.16429   0.17753   0.18874   0.21328

 Mulliken charges:
               1
     1  C   -0.171988
     2  C   -0.023316
     3  H    0.049669
     4  H    0.062499
     5  H    0.052780
     6  C   -0.646377
     7  H    0.003052
     8  H    0.078391
     9  C   -0.452960
    10  H    0.571791
    11  H    0.016531
    12  H    0.343292
    13  H    0.057938
    14  H    0.058697
 Sum of Mulliken charges =   0.00000

 Dipole moment (field-independent basis, Debye):
    X=             -0.4287    Y=             -0.2015    Z=             -0.7448  Tot=              0.8827
 Quadrupole moment (field-independent basis, Debye-Ang):
   XX=            -30.2167   YY=            -31.0571   ZZ=            -27.0544
   XY=             -0.0419   XZ=              1.9681   YZ=             -0.8426

 Normal termination of Gaussian 09 at Wed Aug 26 12:03:02 2020.
