 Gaussian 09, Revision D.01,
 Gaussian 09:  ES64L-G09RevD.01 24-Apr-2013

 --------------------
 #p B2PLYPD3/Def2QZVP
 --------------------

 ----------
 butane_opt
 ----------
 Symbolic Z-matrix:
 Charge =  0 Multiplicity = 1

                         Standard orientation:
 ---------------------------------------------------------------------
 Center     Atomic      Atomic             Coordinates (Angstroms)
 Number     Number       Type             X           Y           Z
 ---------------------------------------------------------------------
      1          6           0        1.872393    0.119655   -0.158014
      2          6           0        0.566909   -0.479937    0.212281
      3          1           0        2.815251   -0.815155    0.115753
      4          1           0        1.909664    0.442517    0.495940
      5          1           0        1.966140    0.793671   -1.014601
      6          6           0       -0.508827    0.609444   -0.003037
      7          1           0        0.494092   -1.148126    1.272122
      8          1           0        0.564864   -1.001390   -0.536146
      9          6           0       -1.918592   -0.166607   -0.144291
     10          1           0       -0.345549    0.855822   -0.659974
     11          1           0       -0.602803    1.500842    0.837133
     12          1           0       -2.413268   -1.231655   -1.120176
     13          1           0       -2.540910    0.500136    0.652517
     14          1           0       -1.918775   -0.391987    0.515794
 ---------------------------------------------------------------------

 SCF Done:  E(RB2PLYPD3) =  -157.252703634     A.U. after   12 cycles
 E2(B2PLYPD3) =    -0.2544401300D+00 E(B2PLYPD3) =    -0.15750714376413D+03

 The electronic state is 1-A.
 Alpha  occ. eigenvalues --  -10.60607 -10.59824 -10.59765 -10.58014  -0.96409
 Alpha  occ. eigenvalues --   -0.89847  -0.80486  -0.71234  -0.56938  -0.50852
 Alpha  occ. eigenvalues --   -0.47808  -0.46821  -0.42189  -0.41525  -0.38413
 Alpha  occ. eigenvalues --   -0.36374  -0.33005
 Alpha virt. eigenvalues --    0.02766   0.05079   0.06627   0.07947   0.10732
 Alpha virt. eigenvalues --    0.11181   0.11845   0.12473   0.14389   0.15560
 Alpha virt. eigenvalues --    0.16116   0.16959   0.17922   0.18841   0.21149

 Mulliken charges:
               1
     1  C   -0.589553
     2  C   -0.090450
     3  H    0.018073
     4  H    0.434715
     5  H    0.080990
     6  C   -0.483907
     7  H    0.031611
     8  H    0.140728
     9  C   -0.695977
    10  H    0.439858
    11  H    0.044109
    12  H    0.078439
    13  H    0.008776
    14  H    0.582585
 Sum of Mulliken charges =   0.00000

 Dipole moment (field-independent basis, Debye):
    X=              0.1727    Y=             -0.0334    Z=              0.4218  Tot=              0.4571
 Quadrupole moment (field-independent basis, Debye-Ang):
   XX=            -32.8276   YY=            -28.2938   ZZ=            -26.9141
   XY=              1.7513   XZ=             -1.1622   YZ=              0.5532

 Normal termination of Gaussian 09 at Wed Aug 26 10:18:55 2020.
