 Gaussian 09, Revision D.01,
 Gaussian 09:  ES64L-G09RevD.01 24-Apr-2013

 --------------------
 #p B2PLYPD3/Def2QZVP
 --------------------

 ----------
 butane_opt
 ----------
 Symbolic Z-matrix:
 Charge =  0 Multiplicity = 1

                         Standard orientation:
 ---------------------------------------------------------------------
 Center     Atomic      Atomic             Coordinates (Angstroms)
 Number     Number       Type             X           Y           Z
 ---------------------------------------------------------------------
      1          6           0       -2.020527   -0.107626   -0.037197
      2          6           0       -0.475130    0.630911    0.106529
      3          1           0       -2.699843    0.473121   -0.678397
      4          1           0       -2.802363   -0.968783    0.973397
      5          1           0       -1.872778   -0.613257   -0.841564
      6          6           0        0.645082   -0.486668    0.072288
      7          1           0       -0.252221    1.136162    0.779416
      8          1           0       -0.383101    0.987830   -0.698980
      9          6           0        1.909854   -0.002178   -0.035539
     10          1           0        0.625364   -1.213583   -0.899955
     11          1           0        0.363669   -0.987376    0.960639
     12          1           0        2.005028    0.762859   -0.942069
     13          1           0        2.621352   -0.638039   -0.203435
     14          1           0        2.039223    0.854438    0.914460
 ---------------------------------------------------------------------

 SCF Done:  E(RB2PLYPD3) =  -157.848595497     A.U. after   11 cycles
 E2(B2PLYPD3) =    -0.2510585943D+00 E(B2PLYPD3) =    -0.15809965409176D+03

 The electronic state is 1-A.
 Alpha  occ. eigenvalues --  -10.63298 -10.60932 -10.60555 -10.58516  -0.94018
 Alpha  occ. eigenvalues --   -0.84740  -0.76155  -0.67391  -0.57728  -0.53140
 Alpha  occ. eigenvalues --   -0.49147  -0.46891  -0.42016  -0.41258  -0.37810
 Alpha  occ. eigenvalues --   -0.36378  -0.34371
 Alpha virt. eigenvalues --    0.04103   0.05614   0.07732   0.08561   0.09306
 Alpha virt. eigenvalues --    0.11379   0.12434   0.12476   0.14258   0.15098
 Alpha virt. eigenvalues --    0.15764   0.17124   0.18551   0.19410   0.20345

 Mulliken charges:
               1
     1  C   -0.215731
     2  C   -0.198231
     3  H    0.039917
     4  H    0.034384
     5  H    0.097280
     6  C   -0.031296
     7  H    0.118827
     8  H    0.130684
     9  C   -0.125044
    10  H   -0.003898
    11  H    0.059211
    12  H    0.020245
    13  H    0.075846
    14  H   -0.002193
 Sum of Mulliken charges =   0.00000

 Dipole moment (field-independent basis, Debye):
    X=              0.4121    Y=              0.0235    Z=             -0.6695  Tot=              0.7865
 Quadrupole moment (field-independent basis, Debye-Ang):
   XX=            -30.6535   YY=            -29.5893   ZZ=            -27.9691
   XY=             -0.3520   XZ=              0.3973   YZ=             -0.1670

 Normal termination of Gaussian 09 at Wed Aug 26 21:44:11 2020.
