 Gaussian 09, Revision D.01,
 Gaussian 09:  ES64L-G09RevD.01 24-Apr-2013

 --------------------
 #p B2PLYPD3/Def2QZVP
 --------------------

 ----------
 butane_opt
 ----------
 Symbolic Z-matrix:
 Charge =  0 Multiplicity = 1

                         Standard orientation:
 ---------------------------------------------------------------------
 Center     Atomic      Atomic             Coordinates (Angstroms)
 Number     Number       Type             X           Y           Z
 ---------------------------------------------------------------------
      1          6           0        1.938225    0.050402   -0.163065
      2          6           0        0.680612   -0.474717    0.120120
      3          1           0        2.711905   -0.731964   -0.049552
      4          1           0        2.217632    0.905301    0.777584
      5          1           0        2.165340    0.712325   -1.139909
      6          6           0       -0.564269    0.577099    0.192416
      7          1           0        0.595531   -1.253201    1.068042
      8          1           0        0.521189   -0.884085   -0.586454
      9          6           0       -2.071903   -0.122273   -0.168077
     10          1           0       -0.478459    0.721632   -0.461444
     11          1           0       -0.419196    1.435017    1.148364
     12          1           0       -1.546236   -0.498545   -0.881936
     13          1           0       -2.879697    0.386969   -0.755117
     14          1           0       -2.783999   -0.976518    0.992054
 ---------------------------------------------------------------------

 SCF Done:  E(RB2PLYPD3) =  -157.554865255     A.U. after   11 cycles
 E2(B2PLYPD3) =    -0.2546040366D+00 E(B2PLYPD3) =    -0.15780946929116D+03

 The electronic state is 1-A.
 Alpha  occ. eigenvalues --  -10.64658 -10.63325 -10.61337 -10.59808  -0.96243
 Alpha  occ. eigenvalues --   -0.86933  -0.73984  -0.68989  -0.55787  -0.50282
 Alpha  occ. eigenvalues --   -0.48923  -0.48269  -0.43920  -0.39423  -0.37511
 Alpha  occ. eigenvalues --   -0.36568  -0.32985
 Alpha virt. eigenvalues --    0.03484   0.05430   0.07844   0.08150   0.09190
 Alpha virt. eigenvalues --    0.10049   0.11146   0.12483   0.13711   0.14744
 Alpha virt. eigenvalues --    0.16151   0.16745   0.17595   0.18877   0.20417

 Mulliken charges:
               1
     1  C   -0.158575
     2  C   -0.204365
     3  H    0.073329
     4  H    0.012494
     5  H    0.044719
     6  C   -0.728023
     7  H    0.038541
     8  H    0.226040
     9  C   -0.224709
    10  H    0.664505
    11  H    0.064662
    12  H    0.110275
    13  H    0.066764
    14  H    0.014344
 Sum of Mulliken charges =   0.00000

 Dipole moment (field-independent basis, Debye):
    X=              0.5364    Y=             -0.0439    Z=             -0.9591  Tot=              1.0998
 Quadrupole moment (field-independent basis, Debye-Ang):
   XX=            -30.6069   YY=            -30.2836   ZZ=            -28.0184
   XY=             -1.3230   XZ=              0.4631   YZ=             -0.4082

 Normal termination of Gaussian 09 at Wed Aug 26 23:12:35 2020.
