 Gaussian 09, Revision D.01,
 Gaussian 09:  ES64L-G09RevD.01 24-Apr-2013

 --------------------
 #p B2PLYPD3/Def2QZVP
 --------------------

 ----------
 butane_opt
 ----------
 Symbolic Z-matrix:
 Charge =  0 Multiplicity = 1

                         Standard orientation:
 ---------------------------------------------------------------------
 Center     Atomic      Atomic             Coordinates (Angstroms)
 Number     Number       Type             X           Y           Z
 ---------------------------------------------------------------------
      1          6           0       -1.930967    0.075183   -0.226742
      2          6           0       -0.550108   -0.539235    0.247732
      3          1           0       -2.637291   -0.566154   -0.821782
      4          1           0       -1.542625    0.574675   -1.077776
      5          1           0       -2.466329    1.006326    0.778890
      6          6           0        0.543209    0.522018    0.184542
      7          1           0       -0.225809   -0.827898   -0.178101
      8          1           0       -0.377137   -1.548692    1.422499
      9          6           0        1.873401   -0.106094   -0.152107
     10          1           0        0.323803    1.530268    1.222208
     11          1           0        0.564087    1.104901   -0.674991
     12          1           0        2.064253   -0.663627    0.602224
     13          1           0        2.771350    0.642450   -0.377064
     14          1           0        1.912482   -0.963479   -1.216653
 ---------------------------------------------------------------------

 SCF Done:  E(RB2PLYPD3) =  -157.419936736     A.U. after   12 cycles
 E2(B2PLYPD3) =    -0.2565845041D+00 E(B2PLYPD3) =    -0.15767652124036D+03

 The electronic state is 1-A.
 Alpha  occ. eigenvalues --  -10.65073 -10.64157 -10.62953 -10.62586  -0.96971
 Alpha  occ. eigenvalues --   -0.83998  -0.75889  -0.68224  -0.54343  -0.50743
 Alpha  occ. eigenvalues --   -0.47447  -0.43514  -0.42186  -0.40652  -0.39119
 Alpha  occ. eigenvalues --   -0.36587  -0.33457
 Alpha virt. eigenvalues --    0.03117   0.04701   0.05231   0.06547   0.09826
 Alpha virt. eigenvalues --    0.10964   0.11574   0.12680   0.14021   0.14264
 Alpha virt. eigenvalues --    0.15580   0.16727   0.17324   0.18471   0.20197

 Mulliken charges:
               1
     1  C   -0.140395
     2  C   -0.786360
     3  H    0.062389
     4  H    0.074340
     5  H    0.047717
     6  C   -0.019020
     7  H    0.718933
     8  H   -0.003174
     9  C   -0.182680
    10  H   -0.002566
    11  H    0.061533
    12  H    0.100949
    13  H    0.052850
    14  H    0.015483
 Sum of Mulliken charges =   0.00000

 Dipole moment (field-independent basis, Debye):
    X=              0.3027    Y=              0.0611    Z=             -1.0561  Tot=              1.1003
 Quadrupole moment (field-independent basis, Debye-Ang):
   XX=            -29.7075   YY=            -30.3110   ZZ=            -29.2136
   XY=             -0.0675   XZ=              0.4182   YZ=              0.3341

 Normal termination of Gaussian 09 at Wed Aug 26 10:51:10 2020.
