 Gaussian 09, Revision D.01,
 Gaussian 09:  ES64L-G09RevD.01 24-Apr-2013

 --------------------
 #p B2PLYPD3/Def2QZVP
 --------------------

 ----------
 butane_opt
 ----------
 Symbolic Z-matrix:
 Charge =  0 Multiplicity = 1

                         Standard orientation:
 ---------------------------------------------------------------------
 Center     Atomic      Atomic             Coordinates (Angstroms)
 Number     Number       Type             X           Y           Z
 ---------------------------------------------------------------------
      1          6           0       -1.954045   -0.136925   -0.111128
      2          6           0       -0.544423    0.494580    0.072012
      3          1           0       -2.828787    0.739280    0.142055
      4          1           0       -2.104207   -0.540620    0.576718
      5          1           0       -2.018197   -0.859471   -0.937018
      6          6           0        0.583273   -0.514751    0.158562
      7          1           0       -0.402689    1.236972    0.888265
      8          1           0       -0.348282    1.079977   -0.782005
      9          6           0        1.935379    0.118422   -0.129019
     10          1           0        0.275722   -1.024586   -0.560820
     11          1           0        0.506240   -1.290191    1.143414
     12          1           0        1.872042    0.643891   -0.938661
     13          1           0        2.699393   -0.613972   -0.322973
     14          1           0        2.227661    0.860763    0.848466
 ---------------------------------------------------------------------

 SCF Done:  E(RB2PLYPD3) =  -157.946797834     A.U. after   11 cycles
 E2(B2PLYPD3) =    -0.2473508603D+00 E(B2PLYPD3) =    -0.15819414869397D+03

 The electronic state is 1-A.
 Alpha  occ. eigenvalues --  -10.60276 -10.60136 -10.59952 -10.58828  -0.92611
 Alpha  occ. eigenvalues --   -0.84761  -0.75284  -0.67930  -0.54962  -0.50049
 Alpha  occ. eigenvalues --   -0.49252  -0.46989  -0.42988  -0.42072  -0.38994
 Alpha  occ. eigenvalues --   -0.37856  -0.36361
 Alpha virt. eigenvalues --    0.05454   0.06569   0.08110   0.08797   0.10803
 Alpha virt. eigenvalues --    0.11825   0.12827   0.14297   0.14710   0.15320
 Alpha virt. eigenvalues --    0.15587   0.16463   0.19138   0.19858   0.21513

 Mulliken charges:
               1
     1  C   -0.335229
     2  C   -0.004899
     3  H    0.029890
     4  H    0.219230
     5  H    0.051438
     6  C   -0.098274
     7  H    0.017635
     8  H    0.037175
     9  C   -0.152333
    10  H    0.085871
    11  H    0.006306
    12  H    0.070457
    13  H    0.047007
    14  H    0.025726
 Sum of Mulliken charges =   0.00000

 Dipole moment (field-independent basis, Debye):
    X=              0.0002    Y=             -0.2648    Z=             -0.2537  Tot=              0.3667
 Quadrupole moment (field-independent basis, Debye-Ang):
   XX=            -29.9817   YY=            -28.7796   ZZ=            -28.1864
   XY=              0.3669   XZ=             -1.2384   YZ=              0.5341

 Normal termination of Gaussian 09 at Wed Aug 26 21:04:21 2020.
