 Gaussian 09, Revision D.01,
 Gaussian 09:  ES64L-G09RevD.01 24-Apr-2013

 --------------------
 #p B2PLYPD3/Def2QZVP
 --------------------

 ----------
 butane_opt
 ----------
 Symbolic Z-matrix:
 Charge =  0 Multiplicity = 1

                         Standard orientation:
 ---------------------------------------------------------------------
 Center     Atomic      Atomic             Coordinates (Angstroms)
 Number     Number       Type             X           Y           Z
 ---------------------------------------------------------------------
      1          6           0        1.967646    0.082990   -0.128408
      2          6           0        0.635461   -0.358990    0.275758
      3          1           0        2.871433   -1.042888   -0.584919
      4          1           0        2.306912    1.125175    0.882593
      5          1           0        1.959274    0.064240   -0.683202
      6          6           0       -0.619177    0.604916   -0.009323
      7          1           0        0.611704   -0.911345    1.232278
      8          1           0        0.502386   -1.181051   -0.563132
      9          6           0       -2.001413   -0.150145   -0.048893
     10          1           0       -0.282583    1.208490   -1.239601
     11          1           0       -0.562194    1.195867    0.703760
     12          1           0       -2.099126   -1.180411   -0.941946
     13          1           0       -2.703064    0.411417   -0.346369
     14          1           0       -2.499844   -0.762117    1.005733
 ---------------------------------------------------------------------

 SCF Done:  E(RB2PLYPD3) =  -157.200001995     A.U. after   12 cycles
 E2(B2PLYPD3) =    -0.2573244659D+00 E(B2PLYPD3) =    -0.15745732646086D+03

 The electronic state is 1-A.
 Alpha  occ. eigenvalues --  -10.65169 -10.64713 -10.64623 -10.62358  -0.94632
 Alpha  occ. eigenvalues --   -0.86624  -0.76042  -0.68586  -0.54932  -0.50355
 Alpha  occ. eigenvalues --   -0.47602  -0.46226  -0.42874  -0.39645  -0.37073
 Alpha  occ. eigenvalues --   -0.36787  -0.32615
 Alpha virt. eigenvalues --    0.01896   0.04835   0.05272   0.06147   0.09310
 Alpha virt. eigenvalues --    0.09926   0.11234   0.12047   0.12878   0.14385
 Alpha virt. eigenvalues --    0.15417   0.16129   0.18250   0.19127   0.19768

 Mulliken charges:
               1
     1  C   -0.845019
     2  C    0.052953
     3  H   -0.014693
     4  H    0.050778
     5  H    0.696468
     6  C   -0.094280
     7  H    0.059270
     8  H    0.003983
     9  C   -0.164348
    10  H    0.007705
    11  H    0.107594
    12  H    0.011414
    13  H    0.096596
    14  H    0.031580
 Sum of Mulliken charges =   0.00000

 Dipole moment (field-independent basis, Debye):
    X=             -0.8921    Y=              0.4546    Z=              0.1449  Tot=              1.0117
 Quadrupole moment (field-independent basis, Debye-Ang):
   XX=            -32.2765   YY=            -30.2565   ZZ=            -28.2657
   XY=              0.2085   XZ=             -0.6788   YZ=              0.7647

 Normal termination of Gaussian 09 at Thu Aug 27 00:10:55 2020.
