 Gaussian 09, Revision D.01,
 Gaussian 09:  ES64L-G09RevD.01 24-Apr-2013

 --------------------
 #p B2PLYPD3/Def2QZVP
 --------------------

 ----------
 butane_opt
 ----------
 Symbolic Z-matrix:
 Charge =  0 Multiplicity = 1

                         Standard orientation:
 ---------------------------------------------------------------------
 Center     Atomic      Atomic             Coordinates (Angstroms)
 Number     Number       Type             X           Y           Z
 ---------------------------------------------------------------------
      1          6           0        1.948363   -0.145443    0.079846
      2          6           0        0.442179    0.569019   -0.134456
      3          1           0        2.660824    0.703055    0.461503
      4          1           0        2.681483   -0.755132   -0.876266
      5          1           0        1.553683   -0.782375    0.902837
      6          6           0       -0.546784   -0.502786   -0.042694
      7          1           0        0.510221    1.207324   -0.907055
      8          1           0        0.211098    1.109066    0.555749
      9          6           0       -1.840053    0.101434    0.034000
     10          1           0       -0.407308   -1.180374    0.925212
     11          1           0       -0.446027   -1.091112   -0.836751
     12          1           0       -2.083151    0.986795    0.994451
     13          1           0       -2.697341   -0.875756   -0.164561
     14          1           0       -2.005712    0.545160   -0.675292
 ---------------------------------------------------------------------

 SCF Done:  E(RB2PLYPD3) =  -157.896815088     A.U. after   11 cycles
 E2(B2PLYPD3) =    -0.2507482287D+00 E(B2PLYPD3) =    -0.15814756331642D+03

 The electronic state is 1-A.
 Alpha  occ. eigenvalues --  -10.63844 -10.61090 -10.59705 -10.58160  -0.94827
 Alpha  occ. eigenvalues --   -0.82978  -0.71910  -0.70070  -0.56808  -0.51660
 Alpha  occ. eigenvalues --   -0.47809  -0.45700  -0.42593  -0.39865  -0.39238
 Alpha  occ. eigenvalues --   -0.38643  -0.33870
 Alpha virt. eigenvalues --    0.04800   0.05756   0.07820   0.08633   0.09988
 Alpha virt. eigenvalues --    0.10961   0.12641   0.13443   0.14776   0.15278
 Alpha virt. eigenvalues --    0.15629   0.15799   0.17933   0.20450   0.21052

 Mulliken charges:
               1
     1  C   -0.213099
     2  C   -0.084383
     3  H    0.037928
     4  H    0.044067
     5  H    0.065737
     6  C    0.014775
     7  H    0.030799
     8  H    0.088713
     9  C   -0.255647
    10  H    0.019093
    11  H    0.060964
    12  H    0.025099
    13  H    0.013982
    14  H    0.151973
 Sum of Mulliken charges =   0.00000

 Dipole moment (field-independent basis, Debye):
    X=             -0.0820    Y=              0.4212    Z=             -0.3665  Tot=              0.5643
 Quadrupole moment (field-independent basis, Debye-Ang):
   XX=            -31.8299   YY=            -28.4565   ZZ=            -28.6409
   XY=              0.0792   XZ=              0.1776   YZ=              0.4151

 Normal termination of Gaussian 09 at Wed Aug 26 19:24:24 2020.
