 Gaussian 09, Revision D.01,
 Gaussian 09:  ES64L-G09RevD.01 24-Apr-2013

 --------------------
 #p B2PLYPD3/Def2QZVP
 --------------------

 ----------
 butane_opt
 ----------
 Symbolic Z-matrix:
 Charge =  0 Multiplicity = 1

                         Standard orientation:
 ---------------------------------------------------------------------
 Center     Atomic      Atomic             Coordinates (Angstroms)
 Number     Number       Type             X           Y           Z
 ---------------------------------------------------------------------
      1          6           0       -1.948512   -0.199888   -0.124785
      2          6           0       -0.501377    0.532677    0.097275
      3          1           0       -2.870440    0.545559   -0.267221
      4          1           0       -2.384836   -0.399858    0.638163
      5          1           0       -2.113049   -1.089054   -0.884155
      6          6           0        0.625489   -0.370750    0.291274
      7          1           0       -0.468396    1.239268    0.915561
      8          1           0       -0.148716    1.162192   -1.076711
      9          6           0        1.850262    0.042512   -0.174361
     10          1           0        0.579381   -0.891166   -0.396513
     11          1           0        0.695946   -1.195947    1.512445
     12          1           0        1.636395    0.397321   -0.949038
     13          1           0        2.709769   -1.004982   -0.747028
     14          1           0        2.208774    1.209356    0.718077
 ---------------------------------------------------------------------

 SCF Done:  E(RB2PLYPD3) =  -157.722326993     A.U. after   11 cycles
 E2(B2PLYPD3) =    -0.2562780891D+00 E(B2PLYPD3) =    -0.15797860508238D+03

 The electronic state is 1-A.
 Alpha  occ. eigenvalues --  -10.65624 -10.64583 -10.61570 -10.60768  -0.98182
 Alpha  occ. eigenvalues --   -0.85138  -0.75387  -0.67355  -0.56146  -0.49745
 Alpha  occ. eigenvalues --   -0.48804  -0.47241  -0.42868  -0.39904  -0.37984
 Alpha  occ. eigenvalues --   -0.35162  -0.33940
 Alpha virt. eigenvalues --    0.01898   0.04638   0.05676   0.07343   0.09781
 Alpha virt. eigenvalues --    0.10083   0.11353   0.12660   0.13733   0.14627
 Alpha virt. eigenvalues --    0.15578   0.16377   0.17875   0.19426   0.20033

 Mulliken charges:
               1
     1  C   -0.163450
     2  C   -0.042073
     3  H    0.014499
     4  H    0.099670
     5  H    0.047567
     6  C   -0.191573
     7  H    0.068431
     8  H   -0.001527
     9  C   -0.217835
    10  H    0.221552
    11  H   -0.002154
    12  H    0.165461
    13  H    0.025657
    14  H   -0.024226
 Sum of Mulliken charges =   0.00000

 Dipole moment (field-independent basis, Debye):
    X=             -1.0259    Y=             -0.3384    Z=             -0.4908  Tot=              1.1866
 Quadrupole moment (field-independent basis, Debye-Ang):
   XX=            -31.5907   YY=            -30.3417   ZZ=            -29.0332
   XY=             -0.6265   XZ=             -2.2600   YZ=              1.4630

 Normal termination of Gaussian 09 at Wed Aug 26 09:38:50 2020.
