 Gaussian 09, Revision D.01,
 Gaussian 09:  ES64L-G09RevD.01 24-Apr-2013

 --------------------
 #p B2PLYPD3/Def2QZVP
 --------------------

 ----------
 butane_opt
 ----------
 Symbolic Z-matrix:
 Charge =  0 Multiplicity = 1

                         Standard orientation:
 ---------------------------------------------------------------------
 Center     Atomic      Atomic             Coordinates (Angstroms)
 Number     Number       Type             X           Y           Z
 ---------------------------------------------------------------------
      1          6           0        1.966935    0.086876    0.069822
      2          6           0        0.579327   -0.570251   -0.111738
      3          1           0        2.772487   -0.611079   -0.287815
      4          1           0        2.252457    0.863613    1.205281
      5          1           0        1.663034    0.571732   -0.737652
      6          6           0       -0.582200    0.570453    0.073078
      7          1           0        0.476454   -0.941805    0.604919
      8          1           0        0.557587   -1.095122   -0.986060
      9          6           0       -1.962229   -0.119370    0.011833
     10          1           0       -0.313731    1.410547   -0.860057
     11          1           0       -0.432041    0.960487    0.901164
     12          1           0       -1.717333   -0.355645   -0.613667
     13          1           0       -2.610854    0.604688   -0.665456
     14          1           0       -2.659054   -1.213667    1.181371
 ---------------------------------------------------------------------

 SCF Done:  E(RB2PLYPD3) =  -157.536180340     A.U. after   12 cycles
 E2(B2PLYPD3) =    -0.2560076978D+00 E(B2PLYPD3) =    -0.15779218803737D+03

 The electronic state is 1-A.
 Alpha  occ. eigenvalues --  -10.62340 -10.61801 -10.61610 -10.57795  -0.94896
 Alpha  occ. eigenvalues --   -0.88335  -0.74477  -0.69904  -0.57309  -0.50086
 Alpha  occ. eigenvalues --   -0.47669  -0.45690  -0.41329  -0.40854  -0.37941
 Alpha  occ. eigenvalues --   -0.36328  -0.34150
 Alpha virt. eigenvalues --   -0.00247   0.05073   0.06398   0.08181   0.10424
 Alpha virt. eigenvalues --    0.10642   0.12002   0.12291   0.14009   0.15475
 Alpha virt. eigenvalues --    0.16023   0.17312   0.18104   0.18511   0.19600

 Mulliken charges:
               1
     1  C   -0.206682
     2  C   -0.290846
     3  H    0.051625
     4  H    0.040356
     5  H    0.077179
     6  C   -0.047452
     7  H    0.257913
     8  H    0.058678
     9  C   -0.679380
    10  H    0.008777
    11  H    0.093720
    12  H    0.525013
    13  H    0.055557
    14  H    0.055541
 Sum of Mulliken charges =   0.00000

 Dipole moment (field-independent basis, Debye):
    X=              0.1237    Y=             -0.3649    Z=             -0.4525  Tot=              0.5943
 Quadrupole moment (field-independent basis, Debye-Ang):
   XX=            -32.1570   YY=            -29.5422   ZZ=            -27.1211
   XY=             -0.1641   XZ=              0.1638   YZ=             -0.0888

 Normal termination of Gaussian 09 at Wed Aug 26 22:32:52 2020.
