 Gaussian 09, Revision D.01,
 Gaussian 09:  ES64L-G09RevD.01 24-Apr-2013

 --------------------
 #p B2PLYPD3/Def2QZVP
 --------------------

 ----------
 butane_opt
 ----------
 Symbolic Z-matrix:
 Charge =  0 Multiplicity = 1

                         Standard orientation:
 ---------------------------------------------------------------------
 Center     Atomic      Atomic             Coordinates (Angstroms)
 Number     Number       Type             X           Y           Z
 ---------------------------------------------------------------------
      1          6           0        1.931277   -0.070836   -0.200096
      2          6           0        0.615440    0.371350    0.345376
      3          1           0        2.880193    0.888513   -0.076851
      4          1           0        1.421468   -0.524102   -1.360364
      5          1           0        1.990381   -0.660644    0.383068
      6          6           0       -0.518658   -0.572027   -0.072819
      7          1           0        0.581224    0.764918   -0.298908
      8          1           0        0.807201    0.941126    1.592204
      9          6           0       -1.965820    0.189005   -0.073470
     10          1           0       -0.534873   -1.549622    0.707620
     11          1           0       -0.244869   -0.713040   -0.722359
     12          1           0       -2.096201    0.239586    0.483705
     13          1           0       -2.828050   -0.624303    0.424557
     14          1           0       -2.349906    1.732617   -1.126614
 ---------------------------------------------------------------------

 SCF Done:  E(RB2PLYPD3) =  -156.764828588     A.U. after   13 cycles
 E2(B2PLYPD3) =    -0.2621487694D+00 E(B2PLYPD3) =    -0.15702697735713D+03

 The electronic state is 1-A.
 Alpha  occ. eigenvalues --  -10.65532 -10.62349 -10.61676 -10.59151  -0.99121
 Alpha  occ. eigenvalues --   -0.91595  -0.82066  -0.71595  -0.56921  -0.50232
 Alpha  occ. eigenvalues --   -0.47609  -0.46572  -0.42692  -0.39657  -0.35797
 Alpha  occ. eigenvalues --   -0.35778  -0.33579
 Alpha virt. eigenvalues --   -0.03180   0.04221   0.05195   0.06496   0.09008
 Alpha virt. eigenvalues --    0.10300   0.11536   0.12514   0.13990   0.14854
 Alpha virt. eigenvalues --    0.15042   0.15915   0.17431   0.18796   0.19977

 Mulliken charges:
               1
     1  C   -0.308815
     2  C   -0.566082
     3  H    0.055340
     4  H    0.020568
     5  H    0.229651
     6  C   -0.459392
     7  H    0.519275
     8  H    0.037033
     9  C   -0.822625
    10  H    0.032400
    11  H    0.473346
    12  H    0.730942
    13  H    0.022314
    14  H    0.036047
 Sum of Mulliken charges =   0.00000

 Dipole moment (field-independent basis, Debye):
    X=              0.4189    Y=              0.0037    Z=              0.7231  Tot=              0.8356
 Quadrupole moment (field-independent basis, Debye-Ang):
   XX=            -31.6954   YY=            -29.3262   ZZ=            -28.3769
   XY=              0.6923   XZ=             -0.9307   YZ=             -1.3338

 Normal termination of Gaussian 09 at Wed Aug 26 18:46:55 2020.
