 Gaussian 09, Revision D.01,
 Gaussian 09:  ES64L-G09RevD.01 24-Apr-2013

 --------------------
 #p B2PLYPD3/Def2QZVP
 --------------------

 ----------
 butane_opt
 ----------
 Symbolic Z-matrix:
 Charge =  0 Multiplicity = 1

                         Standard orientation:
 ---------------------------------------------------------------------
 Center     Atomic      Atomic             Coordinates (Angstroms)
 Number     Number       Type             X           Y           Z
 ---------------------------------------------------------------------
      1          6           0        1.960170    0.134836   -0.094610
      2          6           0        0.623926   -0.573095    0.050564
      3          1           0        2.676585   -0.613554    0.057075
      4          1           0        2.266416    0.703932    0.648873
      5          1           0        2.011472    0.965300   -1.106799
      6          6           0       -0.574560    0.513134    0.121557
      7          1           0        0.665633   -1.136584    0.858373
      8          1           0        0.171883   -1.032834   -0.704256
      9          6           0       -1.980913   -0.110302   -0.129474
     10          1           0       -0.354388    0.745635   -0.509407
     11          1           0       -0.649850    1.465825    1.367037
     12          1           0       -1.840245   -0.500749   -0.806632
     13          1           0       -2.908137    0.714248   -0.433005
     14          1           0       -2.211103   -1.098655    0.940515
 ---------------------------------------------------------------------

 SCF Done:  E(RB2PLYPD3) =  -157.594824107     A.U. after   11 cycles
 E2(B2PLYPD3) =    -0.2521944535D+00 E(B2PLYPD3) =    -0.15784701856012D+03

 The electronic state is 1-A.
 Alpha  occ. eigenvalues --  -10.62681 -10.61423 -10.61132 -10.60109  -0.95220
 Alpha  occ. eigenvalues --   -0.85845  -0.76793  -0.71174  -0.55122  -0.50203
 Alpha  occ. eigenvalues --   -0.49016  -0.48652  -0.44184  -0.40339  -0.38357
 Alpha  occ. eigenvalues --   -0.36722  -0.33570
 Alpha virt. eigenvalues --    0.03752   0.05914   0.06369   0.08465   0.10032
 Alpha virt. eigenvalues --    0.10371   0.11825   0.13394   0.13665   0.14612
 Alpha virt. eigenvalues --    0.15358   0.16698   0.18331   0.18839   0.19824

 Mulliken charges:
               1
     1  C   -0.125441
     2  C   -0.049541
     3  H    0.042891
     4  H    0.061831
     5  H    0.015705
     6  C   -0.589073
     7  H    0.058482
     8  H    0.060023
     9  C   -0.380786
    10  H    0.553838
    11  H   -0.012150
    12  H    0.284244
    13  H    0.057682
    14  H    0.022295
 Sum of Mulliken charges =   0.00000

 Dipole moment (field-independent basis, Debye):
    X=              0.5210    Y=             -0.4272    Z=             -0.5466  Tot=              0.8676
 Quadrupole moment (field-independent basis, Debye-Ang):
   XX=            -30.0125   YY=            -29.6980   ZZ=            -28.5493
   XY=             -0.5380   XZ=              2.5365   YZ=             -0.9407

 Normal termination of Gaussian 09 at Wed Aug 26 21:09:15 2020.
