 Gaussian 09, Revision D.01,
 Gaussian 09:  ES64L-G09RevD.01 24-Apr-2013

 --------------------
 #p B2PLYPD3/Def2QZVP
 --------------------

 ----------
 butane_opt
 ----------
 Symbolic Z-matrix:
 Charge =  0 Multiplicity = 1

                         Standard orientation:
 ---------------------------------------------------------------------
 Center     Atomic      Atomic             Coordinates (Angstroms)
 Number     Number       Type             X           Y           Z
 ---------------------------------------------------------------------
      1          6           0       -1.841351   -0.083725    0.120051
      2          6           0       -0.647565    0.508321   -0.071447
      3          1           0       -2.695234    0.691686   -0.290894
      4          1           0       -2.426602   -0.794987    1.073028
      5          1           0       -1.917610   -0.517273   -0.655889
      6          6           0        0.514296   -0.595364   -0.042374
      7          1           0       -0.463107    0.945593    0.471106
      8          1           0       -0.679731    1.230280   -1.146579
      9          6           0        1.982217    0.117477    0.091568
     10          1           0        0.378590   -1.225947   -0.822121
     11          1           0        0.465574   -1.261356    0.815200
     12          1           0        2.014993    0.508201   -0.541897
     13          1           0        2.758788   -0.575375   -0.719989
     14          1           0        2.518761    1.318931    1.231249
 ---------------------------------------------------------------------

 SCF Done:  E(RB2PLYPD3) =  -157.459145084     A.U. after   13 cycles
 E2(B2PLYPD3) =    -0.2561323523D+00 E(B2PLYPD3) =    -0.15771527743590D+03

 The electronic state is 1-A.
 Alpha  occ. eigenvalues --  -10.63598 -10.61833 -10.59840 -10.58661  -0.95924
 Alpha  occ. eigenvalues --   -0.86948  -0.76584  -0.73081  -0.54454  -0.49753
 Alpha  occ. eigenvalues --   -0.48598  -0.47674  -0.41257  -0.39590  -0.38094
 Alpha  occ. eigenvalues --   -0.37220  -0.33311
 Alpha virt. eigenvalues --   -0.01007   0.04932   0.06188   0.07045   0.10103
 Alpha virt. eigenvalues --    0.10660   0.12173   0.12264   0.14333   0.15436
 Alpha virt. eigenvalues --    0.15763   0.17063   0.17518   0.18749   0.20374

 Mulliken charges:
               1
     1  C   -0.176861
     2  C   -0.453076
     3  H    0.009057
     4  H    0.053071
     5  H    0.111962
     6  C    0.007600
     7  H    0.405915
     8  H    0.023876
     9  C   -0.564431
    10  H    0.057442
    11  H    0.041401
    12  H    0.433780
    13  H    0.011171
    14  H    0.039093
 Sum of Mulliken charges =   0.00000

 Dipole moment (field-independent basis, Debye):
    X=             -0.5140    Y=              0.1009    Z=             -0.8059  Tot=              0.9612
 Quadrupole moment (field-independent basis, Debye-Ang):
   XX=            -32.3201   YY=            -28.6564   ZZ=            -28.0061
   XY=              1.5968   XZ=             -1.0321   YZ=              0.4548

 Normal termination of Gaussian 09 at Wed Aug 26 16:08:22 2020.
