 Gaussian 09, Revision D.01,
 Gaussian 09:  ES64L-G09RevD.01 24-Apr-2013

 --------------------
 #p B2PLYPD3/Def2QZVP
 --------------------

 ----------
 butane_opt
 ----------
 Symbolic Z-matrix:
 Charge =  0 Multiplicity = 1

                         Standard orientation:
 ---------------------------------------------------------------------
 Center     Atomic      Atomic             Coordinates (Angstroms)
 Number     Number       Type             X           Y           Z
 ---------------------------------------------------------------------
      1          6           0        1.936103    0.071391   -0.096309
      2          6           0        0.601917   -0.519737    0.138191
      3          1           0        2.706037   -0.648205   -0.351467
      4          1           0        2.312455    0.780256    0.814340
      5          1           0        1.855678    0.712233   -1.065229
      6          6           0       -0.566588    0.601444    0.075889
      7          1           0        0.710005   -1.183747    1.056768
      8          1           0        0.381429   -1.005425   -0.604765
      9          6           0       -2.002398   -0.160939   -0.079980
     10          1           0       -0.273559    1.039617   -0.823909
     11          1           0       -0.480464    1.393055    0.994790
     12          1           0       -2.221885   -0.832590   -1.013555
     13          1           0       -2.695232    0.552919   -0.099283
     14          1           0       -2.108670   -0.761062    0.865565
 ---------------------------------------------------------------------

 SCF Done:  E(RB2PLYPD3) =  -158.046072261     A.U. after   11 cycles
 E2(B2PLYPD3) =    -0.2480882398D+00 E(B2PLYPD3) =    -0.15829416050065D+03

 The electronic state is 1-A.
 Alpha  occ. eigenvalues --  -10.62673 -10.61184 -10.60838 -10.58932  -0.90731
 Alpha  occ. eigenvalues --   -0.82336  -0.72223  -0.66872  -0.54126  -0.49366
 Alpha  occ. eigenvalues --   -0.48448  -0.46296  -0.42515  -0.40761  -0.38834
 Alpha  occ. eigenvalues --   -0.38334  -0.35948
 Alpha virt. eigenvalues --    0.05705   0.06634   0.08377   0.08639   0.10869
 Alpha virt. eigenvalues --    0.11888   0.12639   0.13548   0.14609   0.14871
 Alpha virt. eigenvalues --    0.15502   0.16735   0.18970   0.20284   0.21531

 Mulliken charges:
               1
     1  C   -0.143089
     2  C   -0.102766
     3  H    0.051343
     4  H    0.035546
     5  H    0.020216
     6  C   -0.088927
     7  H    0.026199
     8  H    0.112650
     9  C   -0.159885
    10  H    0.068628
    11  H    0.029735
    12  H    0.031856
    13  H    0.064723
    14  H    0.053771
 Sum of Mulliken charges =   0.00000

 Dipole moment (field-independent basis, Debye):
    X=             -0.1464    Y=             -0.1512    Z=             -0.2371  Tot=              0.3170
 Quadrupole moment (field-independent basis, Debye-Ang):
   XX=            -29.7491   YY=            -29.2193   ZZ=            -28.0689
   XY=             -0.6462   XZ=              0.2845   YZ=              0.4115

 Normal termination of Gaussian 09 at Wed Aug 26 16:14:57 2020.
