 Gaussian 09, Revision D.01,
 Gaussian 09:  ES64L-G09RevD.01 24-Apr-2013

 --------------------
 #p B2PLYPD3/Def2QZVP
 --------------------

 ----------
 butane_opt
 ----------
 Symbolic Z-matrix:
 Charge =  0 Multiplicity = 1

                         Standard orientation:
 ---------------------------------------------------------------------
 Center     Atomic      Atomic             Coordinates (Angstroms)
 Number     Number       Type             X           Y           Z
 ---------------------------------------------------------------------
      1          6           0        1.922932   -0.141319   -0.053519
      2          6           0        0.549888    0.447732    0.027675
      3          1           0        2.636245    0.717885   -0.041111
      4          1           0        1.925413   -0.806455   -0.972705
      5          1           0        1.800887   -0.715380    0.692062
      6          6           0       -0.550044   -0.490105    0.109600
      7          1           0        0.557242    1.095634   -0.750178
      8          1           0        0.605913    1.385242    1.030306
      9          6           0       -1.872603    0.118770   -0.087185
     10          1           0       -0.717207   -1.326299    1.106282
     11          1           0       -0.262474   -0.890122   -0.586328
     12          1           0       -2.175891    0.846817    0.819185
     13          1           0       -2.548989   -0.471206   -0.349284
     14          1           0       -2.122182    0.553412   -0.927652
 ---------------------------------------------------------------------

 SCF Done:  E(RB2PLYPD3) =  -157.901744419     A.U. after   11 cycles
 E2(B2PLYPD3) =    -0.2486986518D+00 E(B2PLYPD3) =    -0.15815044307057D+03

 The electronic state is 1-A.
 Alpha  occ. eigenvalues --  -10.61426 -10.59825 -10.58808 -10.57513  -0.95676
 Alpha  occ. eigenvalues --   -0.86557  -0.77190  -0.66909  -0.56734  -0.53909
 Alpha  occ. eigenvalues --   -0.49663  -0.46713  -0.44334  -0.41548  -0.38017
 Alpha  occ. eigenvalues --   -0.37675  -0.33951
 Alpha virt. eigenvalues --    0.05483   0.06781   0.07596   0.07819   0.11192
 Alpha virt. eigenvalues --    0.11851   0.12686   0.13443   0.14565   0.15380
 Alpha virt. eigenvalues --    0.15863   0.16252   0.19489   0.20009   0.22093

 Mulliken charges:
               1
     1  C   -0.182090
     2  C   -0.019739
     3  H    0.069522
     4  H    0.022972
     5  H    0.096061
     6  C   -0.192570
     7  H    0.055617
     8  H   -0.050753
     9  C   -0.129878
    10  H    0.025107
    11  H    0.192294
    12  H    0.046622
    13  H    0.046577
    14  H    0.020259
 Sum of Mulliken charges =   0.00000

 Dipole moment (field-independent basis, Debye):
    X=             -0.2722    Y=             -0.2944    Z=             -0.8691  Tot=              0.9571
 Quadrupole moment (field-independent basis, Debye-Ang):
   XX=            -29.0713   YY=            -29.3361   ZZ=            -28.3627
   XY=              0.9921   XZ=              0.4617   YZ=             -0.2327

 Normal termination of Gaussian 09 at Wed Aug 26 11:06:05 2020.
