 Gaussian 09, Revision D.01,
 Gaussian 09:  ES64L-G09RevD.01 24-Apr-2013

 --------------------
 #p B2PLYPD3/Def2QZVP
 --------------------

 ----------
 butane_opt
 ----------
 Symbolic Z-matrix:
 Charge =  0 Multiplicity = 1

                         Standard orientation:
 ---------------------------------------------------------------------
 Center     Atomic      Atomic             Coordinates (Angstroms)
 Number     Number       Type             X           Y           Z
 ---------------------------------------------------------------------
      1          6           0       -2.005810   -0.172146    0.150954
      2          6           0       -0.492147    0.609070   -0.268462
      3          1           0       -2.815160    0.496964    0.395656
      4          1           0       -1.845040   -0.800761    0.926122
      5          1           0       -2.774787   -0.611818   -0.600489
      6          6           0        0.627434   -0.559563   -0.099409
      7          1           0       -0.359241    1.281299    0.608735
      8          1           0       -0.307729    1.360654   -1.280377
      9          6           0        1.923900    0.088099    0.134271
     10          1           0        0.707049   -1.181019   -0.992595
     11          1           0        0.185677   -0.971699    0.720658
     12          1           0        2.124490    0.174843   -0.510158
     13          1           0        2.694664   -0.618233   -0.098095
     14          1           0        2.069810    1.077009    1.326421
 ---------------------------------------------------------------------

 SCF Done:  E(RB2PLYPD3) =  -157.658175579     A.U. after   11 cycles
 E2(B2PLYPD3) =    -0.2536101116D+00 E(B2PLYPD3) =    -0.15791178569037D+03

 The electronic state is 1-A.
 Alpha  occ. eigenvalues --  -10.64721 -10.60905 -10.60691 -10.59463  -0.95275
 Alpha  occ. eigenvalues --   -0.84050  -0.76544  -0.67061  -0.53793  -0.51437
 Alpha  occ. eigenvalues --   -0.47440  -0.44470  -0.42826  -0.39151  -0.38229
 Alpha  occ. eigenvalues --   -0.37400  -0.33870
 Alpha virt. eigenvalues --    0.03913   0.06174   0.06464   0.08200   0.10028
 Alpha virt. eigenvalues --    0.11319   0.12084   0.13933   0.14659   0.15513
 Alpha virt. eigenvalues --    0.15805   0.16062   0.17919   0.19399   0.20992

 Mulliken charges:
               1
     1  C   -0.165130
     2  C   -0.098330
     3  H    0.034516
     4  H    0.075494
     5  H    0.029079
     6  C    0.003065
     7  H    0.053040
     8  H    0.027750
     9  C   -0.663875
    10  H    0.031623
    11  H    0.066423
    12  H    0.508228
    13  H    0.041173
    14  H    0.056944
 Sum of Mulliken charges =   0.00000

 Dipole moment (field-independent basis, Debye):
    X=              0.1598    Y=             -0.1352    Z=             -0.1823  Tot=              0.2776
 Quadrupole moment (field-independent basis, Debye-Ang):
   XX=            -28.4762   YY=            -29.7273   ZZ=            -28.1935
   XY=             -0.1330   XZ=             -1.9282   YZ=              0.7592

 Normal termination of Gaussian 09 at Wed Aug 26 15:00:11 2020.
