 Gaussian 09, Revision D.01,
 Gaussian 09:  ES64L-G09RevD.01 24-Apr-2013

 --------------------
 #p B2PLYPD3/Def2QZVP
 --------------------

 ----------
 butane_opt
 ----------
 Symbolic Z-matrix:
 Charge =  0 Multiplicity = 1

                         Standard orientation:
 ---------------------------------------------------------------------
 Center     Atomic      Atomic             Coordinates (Angstroms)
 Number     Number       Type             X           Y           Z
 ---------------------------------------------------------------------
      1          6           0        1.877417   -0.108806   -0.067817
      2          6           0        0.528362    0.459156    0.265666
      3          1           0        2.895154    1.028926   -0.698283
      4          1           0        1.462274   -0.445893   -0.794469
      5          1           0        2.513078   -1.096223    0.753308
      6          6           0       -0.542735   -0.587728   -0.051681
      7          1           0        0.453181    1.328235   -0.547875
      8          1           0        0.410844    0.914381    1.064600
      9          6           0       -1.890784    0.141555   -0.072471
     10          1           0       -0.347109   -1.100559    0.672782
     11          1           0       -0.360951   -1.068332   -0.810035
     12          1           0       -2.270757    0.679486    0.945063
     13          1           0       -2.609307   -0.557626   -0.135994
     14          1           0       -1.979969    0.892552   -0.891285
 ---------------------------------------------------------------------

 SCF Done:  E(RB2PLYPD3) =  -157.833714964     A.U. after   12 cycles
 E2(B2PLYPD3) =    -0.2519379885D+00 E(B2PLYPD3) =    -0.15808565295253D+03

 The electronic state is 1-A.
 Alpha  occ. eigenvalues --  -10.64991 -10.61033 -10.60289 -10.57544  -0.95367
 Alpha  occ. eigenvalues --   -0.84715  -0.74255  -0.70764  -0.56788  -0.51195
 Alpha  occ. eigenvalues --   -0.48085  -0.46647  -0.42028  -0.41855  -0.40884
 Alpha  occ. eigenvalues --   -0.37898  -0.32578
 Alpha virt. eigenvalues --    0.02339   0.05750   0.06952   0.08738   0.09611
 Alpha virt. eigenvalues --    0.10355   0.12811   0.12952   0.15123   0.15261
 Alpha virt. eigenvalues --    0.15736   0.16296   0.18836   0.19524   0.20554

 Mulliken charges:
               1
     1  C   -0.251325
     2  C   -0.035570
     3  H   -0.015386
     4  H    0.158005
     5  H    0.033792
     6  C   -0.130980
     7  H    0.012426
     8  H    0.068557
     9  C   -0.131432
    10  H    0.089463
    11  H    0.075636
    12  H    0.022140
    13  H    0.051481
    14  H    0.053193
 Sum of Mulliken charges =   0.00000

 Dipole moment (field-independent basis, Debye):
    X=             -1.1753    Y=             -0.4992    Z=              0.0460  Tot=              1.2778
 Quadrupole moment (field-independent basis, Debye-Ang):
   XX=            -32.9072   YY=            -28.7570   ZZ=            -28.4250
   XY=             -0.5988   XZ=              0.4500   YZ=             -0.3249

 Normal termination of Gaussian 09 at Wed Aug 26 12:14:04 2020.
