 Gaussian 09, Revision D.01,
 Gaussian 09:  ES64L-G09RevD.01 24-Apr-2013

 --------------------
 #p B2PLYPD3/Def2QZVP
 --------------------

 ----------
 butane_opt
 ----------
 Symbolic Z-matrix:
 Charge =  0 Multiplicity = 1

                         Standard orientation:
 ---------------------------------------------------------------------
 Center     Atomic      Atomic             Coordinates (Angstroms)
 Number     Number       Type             X           Y           Z
 ---------------------------------------------------------------------
      1          6           0       -1.995924    0.126991    0.175287
      2          6           0       -0.539770   -0.540579   -0.148119
      3          1           0       -2.752423   -0.711356   -0.294461
      4          1           0       -2.142485    0.284083   -0.476416
      5          1           0       -2.348849    1.342484    1.246740
      6          6           0        0.636910    0.498709   -0.230818
      7          1           0       -0.561101   -1.138504   -0.987781
      8          1           0       -0.224047   -1.186587    0.737465
      9          6           0        1.942480   -0.029296    0.223856
     10          1           0        0.430116    0.824152    0.240282
     11          1           0        0.495246    1.261087   -1.213156
     12          1           0        1.987895   -0.773136    1.215233
     13          1           0        2.631023    0.465016   -0.020237
     14          1           0        2.222449   -0.702184   -0.568902
 ---------------------------------------------------------------------

 SCF Done:  E(RB2PLYPD3) =  -157.180544633     A.U. after   12 cycles
 E2(B2PLYPD3) =    -0.2539473254D+00 E(B2PLYPD3) =    -0.15743449195879D+03

 The electronic state is 1-A.
 Alpha  occ. eigenvalues --  -10.62240 -10.61896 -10.58672 -10.58060  -0.95212
 Alpha  occ. eigenvalues --   -0.88873  -0.79467  -0.71647  -0.53510  -0.51841
 Alpha  occ. eigenvalues --   -0.47021  -0.46087  -0.41378  -0.40033  -0.38642
 Alpha  occ. eigenvalues --   -0.38333  -0.34944
 Alpha virt. eigenvalues --    0.01044   0.05804   0.06633   0.07705   0.10618
 Alpha virt. eigenvalues --    0.11002   0.12577   0.13732   0.14004   0.15444
 Alpha virt. eigenvalues --    0.15793   0.16688   0.18220   0.19155   0.21014

 Mulliken charges:
               1
     1  C   -0.729092
     2  C    0.023585
     3  H    0.029230
     4  H    0.568322
     5  H    0.063591
     6  C   -0.812721
     7  H    0.051497
     8  H    0.029930
     9  C   -0.145628
    10  H    0.700391
    11  H    0.048245
    12  H    0.057059
    13  H    0.092932
    14  H    0.022660
 Sum of Mulliken charges =   0.00000

 Dipole moment (field-independent basis, Debye):
    X=              0.2479    Y=              0.1800    Z=             -0.6839  Tot=              0.7494
 Quadrupole moment (field-independent basis, Debye-Ang):
   XX=            -29.2754   YY=            -28.6104   ZZ=            -27.9261
   XY=             -0.9152   XZ=              1.3104   YZ=              0.7685

 Normal termination of Gaussian 09 at Wed Aug 26 23:39:28 2020.
