 Gaussian 09, Revision D.01,
 Gaussian 09:  ES64L-G09RevD.01 24-Apr-2013

 --------------------
 #p B2PLYPD3/Def2QZVP
 --------------------

 ----------
 butane_opt
 ----------
 Symbolic Z-matrix:
 Charge =  0 Multiplicity = 1

                         Standard orientation:
 ---------------------------------------------------------------------
 Center     Atomic      Atomic             Coordinates (Angstroms)
 Number     Number       Type             X           Y           Z
 ---------------------------------------------------------------------
      1          6           0       -2.001021   -0.133544   -0.041000
      2          6           0       -0.502487    0.583949    0.069492
      3          1           0       -2.754316    0.612304   -0.196631
      4          1           0       -2.474506   -0.860966    0.850300
      5          1           0       -1.968034   -0.706728   -0.943983
      6          6           0        0.590611   -0.518740    0.000552
      7          1           0       -0.475621    1.240744    0.923748
      8          1           0       -0.408449    1.109358   -0.713911
      9          6           0        1.926184    0.090315   -0.018810
     10          1           0        0.506774   -1.005767   -0.757409
     11          1           0        0.475241   -1.306784    0.879180
     12          1           0        2.141399    0.756922   -0.843679
     13          1           0        2.732024   -0.669312   -0.054851
     14          1           0        2.145767    0.698355    0.795834
 ---------------------------------------------------------------------

 SCF Done:  E(RB2PLYPD3) =  -158.050105805     A.U. after   11 cycles
 E2(B2PLYPD3) =    -0.2459399992D+00 E(B2PLYPD3) =    -0.15829604580381D+03

 The electronic state is 1-A.
 Alpha  occ. eigenvalues --  -10.61294 -10.59984 -10.59023 -10.58619  -0.91705
 Alpha  occ. eigenvalues --   -0.82521  -0.73243  -0.69578  -0.54476  -0.49662
 Alpha  occ. eigenvalues --   -0.48153  -0.47068  -0.43630  -0.40931  -0.40245
 Alpha  occ. eigenvalues --   -0.38509  -0.36218
 Alpha virt. eigenvalues --    0.05867   0.06682   0.08416   0.09396   0.10604
 Alpha virt. eigenvalues --    0.12032   0.12952   0.13922   0.15015   0.15313
 Alpha virt. eigenvalues --    0.15766   0.16671   0.19220   0.20686   0.21650

 Mulliken charges:
               1
     1  C   -0.171290
     2  C   -0.078770
     3  H    0.045297
     4  H    0.033661
     5  H    0.049874
     6  C   -0.087199
     7  H    0.038111
     8  H    0.079746
     9  C   -0.119681
    10  H    0.093513
    11  H    0.017971
    12  H    0.024978
    13  H    0.031167
    14  H    0.042621
 Sum of Mulliken charges =   0.00000

 Dipole moment (field-independent basis, Debye):
    X=              0.1407    Y=              0.2129    Z=             -0.3489  Tot=              0.4323
 Quadrupole moment (field-independent basis, Debye-Ang):
   XX=            -29.5731   YY=            -28.2773   ZZ=            -28.2325
   XY=             -0.1771   XZ=             -0.0492   YZ=              0.0937

 Normal termination of Gaussian 09 at Wed Aug 26 22:12:30 2020.
