 Gaussian 09, Revision D.01,
 Gaussian 09:  ES64L-G09RevD.01 24-Apr-2013

 --------------------
 #p B2PLYPD3/Def2QZVP
 --------------------

 ----------
 butane_opt
 ----------
 Symbolic Z-matrix:
 Charge =  0 Multiplicity = 1

                         Standard orientation:
 ---------------------------------------------------------------------
 Center     Atomic      Atomic             Coordinates (Angstroms)
 Number     Number       Type             X           Y           Z
 ---------------------------------------------------------------------
      1          6           0       -1.994294   -0.157218   -0.057731
      2          6           0       -0.513760    0.583437   -0.129469
      3          1           0       -2.666924    0.530221    0.682937
      4          1           0       -1.693131   -0.536399    0.772881
      5          1           0       -2.426496   -1.186439   -1.006557
      6          6           0        0.649280   -0.404653    0.155898
      7          1           0       -0.333800    1.489003    0.875843
      8          1           0       -0.325339    1.099925   -0.948260
      9          6           0        1.831157   -0.005912   -0.092488
     10          1           0        0.381960   -1.077963   -0.520768
     11          1           0        0.573466   -1.109246    1.178283
     12          1           0        1.954402    0.511274   -0.905668
     13          1           0        2.581313   -0.660760   -0.039834
     14          1           0        2.120248    0.846459    0.653878
 ---------------------------------------------------------------------

 SCF Done:  E(RB2PLYPD3) =  -157.867634647     A.U. after   11 cycles
 E2(B2PLYPD3) =    -0.2532947005D+00 E(B2PLYPD3) =    -0.15812092934765D+03

 The electronic state is 1-A.
 Alpha  occ. eigenvalues --  -10.63884 -10.63804 -10.59245 -10.56590  -0.95793
 Alpha  occ. eigenvalues --   -0.84713  -0.73565  -0.67871  -0.55095  -0.53288
 Alpha  occ. eigenvalues --   -0.51120  -0.45235  -0.41330  -0.39483  -0.38794
 Alpha  occ. eigenvalues --   -0.37271  -0.33157
 Alpha virt. eigenvalues --    0.03836   0.05127   0.07417   0.07824   0.10377
 Alpha virt. eigenvalues --    0.11090   0.12063   0.13241   0.14373   0.15099
 Alpha virt. eigenvalues --    0.15843   0.16276   0.18714   0.19067   0.20295

 Mulliken charges:
               1
     1  C   -0.271219
     2  C   -0.055448
     3  H    0.053773
     4  H    0.137738
     5  H    0.063417
     6  C   -0.015744
     7  H   -0.022007
     8  H    0.076350
     9  C   -0.116107
    10  H    0.052015
    11  H    0.003635
    12  H    0.039544
    13  H    0.047082
    14  H    0.006972
 Sum of Mulliken charges =   0.00000

 Dipole moment (field-independent basis, Debye):
    X=              0.4944    Y=             -0.5283    Z=             -0.2439  Tot=              0.7636
 Quadrupole moment (field-independent basis, Debye-Ang):
   XX=            -30.5268   YY=            -29.4837   ZZ=            -28.2889
   XY=              0.4560   XZ=             -1.0910   YZ=              0.4404

 Normal termination of Gaussian 09 at Wed Aug 26 19:43:00 2020.
