 Gaussian 09, Revision D.01,
 Gaussian 09:  ES64L-G09RevD.01 24-Apr-2013

 --------------------
 #p B2PLYPD3/Def2QZVP
 --------------------

 ----------
 butane_opt
 ----------
 Symbolic Z-matrix:
 Charge =  0 Multiplicity = 1

                         Standard orientation:
 ---------------------------------------------------------------------
 Center     Atomic      Atomic             Coordinates (Angstroms)
 Number     Number       Type             X           Y           Z
 ---------------------------------------------------------------------
      1          6           0        2.020325   -0.183291   -0.183399
      2          6           0        0.511659    0.687484    0.180864
      3          1           0        2.735337    0.503783   -0.735135
      4          1           0        1.889532   -0.496852   -0.808568
      5          1           0        2.829572   -1.127032    1.021293
      6          6           0       -0.560224   -0.454401    0.180780
      7          1           0        0.089218    1.159963   -0.618214
      8          1           0        0.685906    1.363185    1.106495
      9          6           0       -1.954621    0.032670   -0.093243
     10          1           0       -0.727360   -1.117564    1.117807
     11          1           0       -0.558292   -1.361129   -0.881386
     12          1           0       -2.315860    0.761192    0.661034
     13          1           0       -2.660203   -0.839713   -0.229301
     14          1           0       -2.070684    0.659399   -1.144036
 ---------------------------------------------------------------------

 SCF Done:  E(RB2PLYPD3) =  -157.702376860     A.U. after   11 cycles
 E2(B2PLYPD3) =    -0.2559252165D+00 E(B2PLYPD3) =    -0.15795830207638D+03

 The electronic state is 1-A.
 Alpha  occ. eigenvalues --  -10.64994 -10.64329 -10.62996 -10.62088  -0.90603
 Alpha  occ. eigenvalues --   -0.85073  -0.76054  -0.64748  -0.53432  -0.49656
 Alpha  occ. eigenvalues --   -0.46977  -0.45008  -0.43147  -0.38850  -0.37998
 Alpha  occ. eigenvalues --   -0.36313  -0.34068
 Alpha virt. eigenvalues --    0.01171   0.04680   0.06938   0.07998   0.08698
 Alpha virt. eigenvalues --    0.10392   0.11600   0.12701   0.12943   0.15843
 Alpha virt. eigenvalues --    0.16162   0.16566   0.17724   0.18872   0.19733

 Mulliken charges:
               1
     1  C   -0.570328
     2  C   -0.090862
     3  H    0.050786
     4  H    0.445587
     5  H    0.027407
     6  C   -0.038400
     7  H    0.091837
     8  H    0.059538
     9  C   -0.132501
    10  H    0.045529
    11  H   -0.006080
    12  H    0.048662
    13  H    0.059403
    14  H    0.009421
 Sum of Mulliken charges =   0.00000

 Dipole moment (field-independent basis, Debye):
    X=             -0.4808    Y=              0.3793    Z=             -0.2300  Tot=              0.6541
 Quadrupole moment (field-independent basis, Debye-Ang):
   XX=            -31.2615   YY=            -29.7044   ZZ=            -28.3904
   XY=              0.6378   XZ=             -0.7978   YZ=             -0.0087

 Normal termination of Gaussian 09 at Wed Aug 26 22:52:45 2020.
