 Gaussian 09, Revision D.01,
 Gaussian 09:  ES64L-G09RevD.01 24-Apr-2013

 --------------------
 #p B2PLYPD3/Def2QZVP
 --------------------

 ----------
 butane_opt
 ----------
 Symbolic Z-matrix:
 Charge =  0 Multiplicity = 1

                         Standard orientation:
 ---------------------------------------------------------------------
 Center     Atomic      Atomic             Coordinates (Angstroms)
 Number     Number       Type             X           Y           Z
 ---------------------------------------------------------------------
      1          6           0       -1.881964    0.049645   -0.165493
      2          6           0       -0.579439   -0.437575    0.254566
      3          1           0       -2.839776   -0.884896   -0.478846
      4          1           0       -1.503803    0.427557   -0.991213
      5          1           0       -2.318163    0.980213    0.823903
      6          6           0        0.560512    0.586375   -0.047361
      7          1           0       -0.459156   -0.947906   -0.322285
      8          1           0       -0.588732   -1.160147    1.334703
      9          6           0        1.896333   -0.205340   -0.080922
     10          1           0        0.258589    1.735377    0.889073
     11          1           0        0.368691    0.984746   -0.947658
     12          1           0        2.231946   -0.601938    0.756245
     13          1           0        2.683384    0.609883    0.089258
     14          1           0        2.194373   -1.101522   -0.917916
 ---------------------------------------------------------------------

 SCF Done:  E(RB2PLYPD3) =  -157.767015338     A.U. after   11 cycles
 E2(B2PLYPD3) =    -0.2548558626D+00 E(B2PLYPD3) =    -0.15802187120024D+03

 The electronic state is 1-A.
 Alpha  occ. eigenvalues --  -10.65336 -10.64154 -10.62233 -10.59141  -0.95357
 Alpha  occ. eigenvalues --   -0.84598  -0.72474  -0.68812  -0.54125  -0.49800
 Alpha  occ. eigenvalues --   -0.48018  -0.46971  -0.42827  -0.38635  -0.37511
 Alpha  occ. eigenvalues --   -0.37235  -0.34329
 Alpha virt. eigenvalues --    0.03346   0.05483   0.06308   0.07792   0.09413
 Alpha virt. eigenvalues --    0.10607   0.11886   0.13130   0.13789   0.14803
 Alpha virt. eigenvalues --    0.15348   0.15638   0.18375   0.19247   0.19555

 Mulliken charges:
               1
     1  C   -0.178646
     2  C   -0.347185
     3  H    0.031778
     4  H    0.091639
     5  H    0.018301
     6  C   -0.059373
     7  H    0.348899
     8  H    0.023304
     9  C   -0.152205
    10  H   -0.004543
    11  H    0.087488
    12  H    0.058651
    13  H    0.035591
    14  H    0.046301
 Sum of Mulliken charges =   0.00000

 Dipole moment (field-independent basis, Debye):
    X=              0.6795    Y=             -0.6053    Z=             -0.5682  Tot=              1.0728
 Quadrupole moment (field-independent basis, Debye-Ang):
   XX=            -31.1097   YY=            -29.7841   ZZ=            -29.1036
   XY=             -0.0039   XZ=              0.7001   YZ=              0.5232

 Normal termination of Gaussian 09 at Wed Aug 26 15:51:06 2020.
