 Gaussian 09, Revision D.01,
 Gaussian 09:  ES64L-G09RevD.01 24-Apr-2013

 --------------------
 #p B2PLYPD3/Def2QZVP
 --------------------

 ----------
 butane_opt
 ----------
 Symbolic Z-matrix:
 Charge =  0 Multiplicity = 1

                         Standard orientation:
 ---------------------------------------------------------------------
 Center     Atomic      Atomic             Coordinates (Angstroms)
 Number     Number       Type             X           Y           Z
 ---------------------------------------------------------------------
      1          6           0       -1.883939    0.059663   -0.041618
      2          6           0       -0.630455   -0.486242   -0.003739
      3          1           0       -2.561797   -0.711162   -0.047741
      4          1           0       -1.919756    0.325598   -0.717020
      5          1           0       -2.119429    0.962285    1.101290
      6          6           0        0.487406    0.599053    0.072755
      7          1           0       -0.589801   -1.093960   -0.950514
      8          1           0       -0.638869   -0.948776    0.676376
      9          6           0        2.014215   -0.127894   -0.019636
     10          1           0        0.434626    1.079041    0.930541
     11          1           0        0.404444    1.269595   -0.900551
     12          1           0        2.676332   -1.098216    1.239131
     13          1           0        2.624373    0.313071   -0.787268
     14          1           0        1.766520   -0.364957   -0.590821
 ---------------------------------------------------------------------

 SCF Done:  E(RB2PLYPD3) =  -157.312744001     A.U. after   12 cycles
 E2(B2PLYPD3) =    -0.2530316350D+00 E(B2PLYPD3) =    -0.15756577563638D+03

 The electronic state is 1-A.
 Alpha  occ. eigenvalues --  -10.62734 -10.60782 -10.57775 -10.57258  -0.97298
 Alpha  occ. eigenvalues --   -0.91269  -0.78663  -0.71472  -0.57894  -0.51015
 Alpha  occ. eigenvalues --   -0.49150  -0.47186  -0.43323  -0.40736  -0.39377
 Alpha  occ. eigenvalues --   -0.36108  -0.34152
 Alpha virt. eigenvalues --    0.01250   0.05411   0.06309   0.07834   0.09659
 Alpha virt. eigenvalues --    0.10430   0.11577   0.12635   0.14181   0.15978
 Alpha virt. eigenvalues --    0.16401   0.17083   0.18394   0.19018   0.20635

 Mulliken charges:
               1
     1  C   -0.452736
     2  C   -0.154853
     3  H    0.059022
     4  H    0.347679
     5  H   -0.001126
     6  C   -0.036648
     7  H    0.019522
     8  H    0.184438
     9  C   -0.785643
    10  H    0.079871
    11  H    0.022341
    12  H    0.038903
    13  H    0.054161
    14  H    0.625069
 Sum of Mulliken charges =   0.00000

 Dipole moment (field-independent basis, Debye):
    X=             -0.5968    Y=             -0.4837    Z=             -0.8487  Tot=              1.1448
 Quadrupole moment (field-independent basis, Debye-Ang):
   XX=            -31.8689   YY=            -29.5758   ZZ=            -26.4212
   XY=              0.7329   XZ=             -0.2361   YZ=             -0.5667

 Normal termination of Gaussian 09 at Wed Aug 26 11:54:38 2020.
