 Gaussian 09, Revision D.01,
 Gaussian 09:  ES64L-G09RevD.01 24-Apr-2013

 --------------------
 #p B2PLYPD3/Def2QZVP
 --------------------

 ----------
 butane_opt
 ----------
 Symbolic Z-matrix:
 Charge =  0 Multiplicity = 1

                         Standard orientation:
 ---------------------------------------------------------------------
 Center     Atomic      Atomic             Coordinates (Angstroms)
 Number     Number       Type             X           Y           Z
 ---------------------------------------------------------------------
      1          6           0        1.918643   -0.088324   -0.146456
      2          6           0        0.612891    0.466303    0.119735
      3          1           0        2.703762    0.645330   -0.076404
      4          1           0        1.903816   -0.693766   -0.976910
      5          1           0        2.164931   -0.680290    0.746805
      6          6           0       -0.518084   -0.555464    0.063083
      7          1           0        0.325593    1.002957   -0.662825
      8          1           0        0.634729    1.338202    1.189390
      9          6           0       -1.992977    0.136375   -0.063587
     10          1           0       -0.430353   -1.345674    0.956931
     11          1           0       -0.386052   -0.978106   -0.681014
     12          1           0       -2.183989    0.524312    0.756573
     13          1           0       -2.661213   -0.468468   -0.007279
     14          1           0       -2.194063    0.902163   -1.081924
 ---------------------------------------------------------------------

 SCF Done:  E(RB2PLYPD3) =  -157.935444783     A.U. after   11 cycles
 E2(B2PLYPD3) =    -0.2470409677D+00 E(B2PLYPD3) =    -0.15818248575106D+03

 The electronic state is 1-A.
 Alpha  occ. eigenvalues --  -10.61081 -10.59945 -10.58626 -10.58345  -0.92937
 Alpha  occ. eigenvalues --   -0.85212  -0.76775  -0.67335  -0.54458  -0.51093
 Alpha  occ. eigenvalues --   -0.50134  -0.46761  -0.44275  -0.41592  -0.38953
 Alpha  occ. eigenvalues --   -0.37317  -0.36249
 Alpha virt. eigenvalues --    0.05651   0.06661   0.07847   0.08517   0.10769
 Alpha virt. eigenvalues --    0.12216   0.12968   0.13657   0.14861   0.15352
 Alpha virt. eigenvalues --    0.16010   0.16480   0.19279   0.19711   0.21862

 Mulliken charges:
               1
     1  C   -0.129522
     2  C   -0.055567
     3  H    0.047162
     4  H    0.053150
     5  H    0.032484
     6  C   -0.157672
     7  H    0.069006
     8  H   -0.015688
     9  C   -0.167679
    10  H    0.011957
    11  H    0.153772
    12  H    0.064223
    13  H    0.069632
    14  H    0.024743
 Sum of Mulliken charges =   0.00000

 Dipole moment (field-independent basis, Debye):
    X=             -0.0911    Y=             -0.3208    Z=             -0.2803  Tot=              0.4356
 Quadrupole moment (field-independent basis, Debye-Ang):
   XX=            -28.3470   YY=            -29.4077   ZZ=            -27.9889
   XY=              0.3841   XZ=             -0.3481   YZ=             -0.1266

 Normal termination of Gaussian 09 at Wed Aug 26 21:17:57 2020.
