 Gaussian 09, Revision D.01,
 Gaussian 09:  ES64L-G09RevD.01 24-Apr-2013

 --------------------
 #p B2PLYPD3/Def2QZVP
 --------------------

 ----------
 butane_opt
 ----------
 Symbolic Z-matrix:
 Charge =  0 Multiplicity = 1

                         Standard orientation:
 ---------------------------------------------------------------------
 Center     Atomic      Atomic             Coordinates (Angstroms)
 Number     Number       Type             X           Y           Z
 ---------------------------------------------------------------------
      1          6           0       -1.858675    0.088076   -0.209835
      2          6           0       -0.688367   -0.434346    0.148505
      3          1           0       -2.904198   -0.804868   -0.416560
      4          1           0       -1.781521    0.480242   -0.995938
      5          1           0       -2.434409    0.928298    0.819830
      6          6           0        0.535956    0.546796    0.132877
      7          1           0       -0.224550   -0.694023   -0.450888
      8          1           0       -0.897936   -1.282957    1.314797
      9          6           0        2.048799   -0.179974   -0.117079
     10          1           0        0.501282    1.285500    1.082088
     11          1           0        0.322534    0.918371   -0.595810
     12          1           0        2.411931   -0.717419    0.755300
     13          1           0        2.791596    0.464053   -0.411270
     14          1           0        1.988992   -0.700508   -0.828360
 ---------------------------------------------------------------------

 SCF Done:  E(RB2PLYPD3) =  -157.683384371     A.U. after   12 cycles
 E2(B2PLYPD3) =    -0.2517236940D+00 E(B2PLYPD3) =    -0.15793510806520D+03

 The electronic state is 1-A.
 Alpha  occ. eigenvalues --  -10.62810 -10.61802 -10.59939 -10.58886  -0.98135
 Alpha  occ. eigenvalues --   -0.85995  -0.78204  -0.69297  -0.58442  -0.53035
 Alpha  occ. eigenvalues --   -0.49170  -0.46943  -0.45456  -0.42616  -0.39192
 Alpha  occ. eigenvalues --   -0.36299  -0.31513
 Alpha virt. eigenvalues --    0.03780   0.06320   0.07471   0.08470   0.09265
 Alpha virt. eigenvalues --    0.10815   0.12256   0.12807   0.14091   0.15380
 Alpha virt. eigenvalues --    0.16060   0.16746   0.18732   0.18897   0.21150

 Mulliken charges:
               1
     1  C   -0.178640
     2  C   -0.291207
     3  H    0.022893
     4  H    0.112981
     5  H    0.006362
     6  C   -0.249500
     7  H    0.304341
     8  H    0.004528
     9  C   -0.177702
    10  H    0.040204
    11  H    0.206349
    12  H    0.055784
    13  H    0.042922
    14  H    0.100685
 Sum of Mulliken charges =   0.00000

 Dipole moment (field-independent basis, Debye):
    X=              0.9267    Y=              0.1048    Z=             -0.9901  Tot=              1.3601
 Quadrupole moment (field-independent basis, Debye-Ang):
   XX=            -29.7077   YY=            -30.4510   ZZ=            -27.9395
   XY=             -0.0591   XZ=             -0.1424   YZ=             -0.1479

 Normal termination of Gaussian 09 at Wed Aug 26 12:03:49 2020.
