 Gaussian 09, Revision D.01,
 Gaussian 09:  ES64L-G09RevD.01 24-Apr-2013

 --------------------
 #p B2PLYPD3/Def2QZVP
 --------------------

 ----------
 butane_opt
 ----------
 Symbolic Z-matrix:
 Charge =  0 Multiplicity = 1

                         Standard orientation:
 ---------------------------------------------------------------------
 Center     Atomic      Atomic             Coordinates (Angstroms)
 Number     Number       Type             X           Y           Z
 ---------------------------------------------------------------------
      1          6           0        1.956778   -0.133577    0.071623
      2          6           0        0.511524    0.539365   -0.131318
      3          1           0        2.650601    0.578266    0.413612
      4          1           0        2.355705   -0.722277   -0.777435
      5          1           0        1.947424   -1.050887    1.037211
      6          6           0       -0.582777   -0.389174   -0.051317
      7          1           0        0.277235    1.324763   -1.132748
      8          1           0        0.543220    0.993927    0.455079
      9          6           0       -1.909981    0.044665    0.113589
     10          1           0       -0.264785   -0.865774    0.655769
     11          1           0       -0.379833   -1.039078   -0.971802
     12          1           0       -2.305123    0.935889    1.143747
     13          1           0       -2.887816   -0.883658   -0.369713
     14          1           0       -1.789887    0.361154   -0.469181
 ---------------------------------------------------------------------

 SCF Done:  E(RB2PLYPD3) =  -157.473417093     A.U. after   12 cycles
 E2(B2PLYPD3) =    -0.2515359176D+00 E(B2PLYPD3) =    -0.15772495301043D+03

 The electronic state is 1-A.
 Alpha  occ. eigenvalues --  -10.63394 -10.60938 -10.59488 -10.58139  -0.98658
 Alpha  occ. eigenvalues --   -0.88406  -0.75731  -0.71266  -0.57365  -0.49378
 Alpha  occ. eigenvalues --   -0.48119  -0.46782  -0.44677  -0.40532  -0.39120
 Alpha  occ. eigenvalues --   -0.36734  -0.35416
 Alpha virt. eigenvalues --    0.04085   0.05546   0.06821   0.07731   0.10463
 Alpha virt. eigenvalues --    0.10980   0.12143   0.13844   0.14431   0.14698
 Alpha virt. eigenvalues --    0.15241   0.15794   0.18719   0.20082   0.21413

 Mulliken charges:
               1
     1  C   -0.130073
     2  C   -0.414752
     3  H    0.064956
     4  H    0.052517
     5  H    0.008378
     6  C    0.003063
     7  H    0.003089
     8  H    0.364512
     9  C   -0.734926
    10  H    0.091138
    11  H    0.028053
    12  H    0.051271
    13  H    0.038692
    14  H    0.574082
 Sum of Mulliken charges =   0.00000

 Dipole moment (field-independent basis, Debye):
    X=              0.6300    Y=              0.2481    Z=              0.0035  Tot=              0.6771
 Quadrupole moment (field-independent basis, Debye-Ang):
   XX=            -30.2484   YY=            -29.1610   ZZ=            -28.4246
   XY=             -0.3504   XZ=              0.7089   YZ=              1.2272

 Normal termination of Gaussian 09 at Wed Aug 26 10:18:33 2020.
