 Gaussian 09, Revision D.01,
 Gaussian 09:  ES64L-G09RevD.01 24-Apr-2013

 --------------------
 #p B2PLYPD3/Def2QZVP
 --------------------

 ----------
 butane_opt
 ----------
 Symbolic Z-matrix:
 Charge =  0 Multiplicity = 1

                         Standard orientation:
 ---------------------------------------------------------------------
 Center     Atomic      Atomic             Coordinates (Angstroms)
 Number     Number       Type             X           Y           Z
 ---------------------------------------------------------------------
      1          6           0       -1.903008    0.108306   -0.140354
      2          6           0       -0.601208   -0.434708    0.050967
      3          1           0       -2.810288   -0.736749   -0.073913
      4          1           0       -1.780600    0.876195   -0.886506
      5          1           0       -2.094425    0.468666    0.584762
      6          6           0        0.489704    0.437575    0.279601
      7          1           0       -0.310471   -0.950867   -0.788764
      8          1           0       -0.235591   -1.213286    1.073264
      9          6           0        1.903485   -0.100298   -0.140949
     10          1           0        0.460181    1.108523    1.291437
     11          1           0        0.358620    1.173024   -0.534739
     12          1           0        2.662627   -0.891086    0.688338
     13          1           0        2.697200    0.703196   -0.597002
     14          1           0        1.718911   -0.602868   -1.052465
 ---------------------------------------------------------------------

 SCF Done:  E(RB2PLYPD3) =  -157.913559846     A.U. after   11 cycles
 E2(B2PLYPD3) =    -0.2517984841D+00 E(B2PLYPD3) =    -0.15816535832999D+03

 The electronic state is 1-A.
 Alpha  occ. eigenvalues --  -10.64243 -10.62417 -10.60981 -10.58557  -0.95371
 Alpha  occ. eigenvalues --   -0.85013  -0.74018  -0.65686  -0.56356  -0.50219
 Alpha  occ. eigenvalues --   -0.49752  -0.48025  -0.41586  -0.40866  -0.39041
 Alpha  occ. eigenvalues --   -0.38138  -0.33094
 Alpha virt. eigenvalues --    0.05234   0.05988   0.07372   0.08089   0.09958
 Alpha virt. eigenvalues --    0.10603   0.12617   0.13157   0.14692   0.15043
 Alpha virt. eigenvalues --    0.15577   0.15916   0.18339   0.20262   0.21478

 Mulliken charges:
               1
     1  C   -0.266473
     2  C   -0.032001
     3  H    0.046458
     4  H    0.052621
     5  H    0.178304
     6  C   -0.028846
     7  H    0.060567
     8  H   -0.016735
     9  C   -0.161329
    10  H    0.025139
    11  H    0.013297
    12  H    0.024337
    13  H    0.038733
    14  H    0.065929
 Sum of Mulliken charges =   0.00000

 Dipole moment (field-independent basis, Debye):
    X=             -0.3187    Y=              0.4812    Z=             -0.3923  Tot=              0.6979
 Quadrupole moment (field-independent basis, Debye-Ang):
   XX=            -29.7727   YY=            -30.4353   ZZ=            -28.6831
   XY=             -0.2725   XZ=             -1.0779   YZ=             -0.0093

 Normal termination of Gaussian 09 at Wed Aug 26 23:32:48 2020.
