 Gaussian 09, Revision D.01,
 Gaussian 09:  ES64L-G09RevD.01 24-Apr-2013

 --------------------
 #p B2PLYPD3/Def2QZVP
 --------------------

 ----------
 butane_opt
 ----------
 Symbolic Z-matrix:
 Charge =  0 Multiplicity = 1

                         Standard orientation:
 ---------------------------------------------------------------------
 Center     Atomic      Atomic             Coordinates (Angstroms)
 Number     Number       Type             X           Y           Z
 ---------------------------------------------------------------------
      1          6           0        1.927985   -0.046754    0.039928
      2          6           0        0.639500    0.546484   -0.009026
      3          1           0        2.818841    0.601837   -0.321199
      4          1           0        2.076510   -1.048233   -1.003832
      5          1           0        2.244937   -0.687598    0.989693
      6          6           0       -0.542248   -0.600391    0.139966
      7          1           0        0.508187    1.422815   -0.979129
      8          1           0        0.445438    1.122017    0.715553
      9          6           0       -2.065346    0.120801   -0.065910
     10          1           0       -0.583674   -1.444669    1.096321
     11          1           0       -0.290650   -1.114117   -0.746780
     12          1           0       -2.575900    1.276288    1.137787
     13          1           0       -2.717006   -0.474287   -0.923691
     14          1           0       -1.686031    0.225109   -0.594466
 ---------------------------------------------------------------------

 SCF Done:  E(RB2PLYPD3) =  -157.478029402     A.U. after   12 cycles
 E2(B2PLYPD3) =    -0.2608974275D+00 E(B2PLYPD3) =    -0.15773892682950D+03

 The electronic state is 1-A.
 Alpha  occ. eigenvalues --  -10.65618 -10.65466 -10.63098 -10.62843  -0.93713
 Alpha  occ. eigenvalues --   -0.88088  -0.72691  -0.67301  -0.52893  -0.49640
 Alpha  occ. eigenvalues --   -0.47816  -0.44583  -0.42479  -0.38505  -0.37975
 Alpha  occ. eigenvalues --   -0.34154  -0.33272
 Alpha virt. eigenvalues --   -0.00230   0.04245   0.05912   0.06939   0.08692
 Alpha virt. eigenvalues --    0.10034   0.10621   0.12675   0.13167   0.14454
 Alpha virt. eigenvalues --    0.15510   0.16701   0.17036   0.18850   0.19223

 Mulliken charges:
               1
     1  C   -0.152203
     2  C   -0.062117
     3  H    0.064094
     4  H   -0.022696
     5  H    0.073212
     6  C   -0.072218
     7  H    0.015096
     8  H    0.091684
     9  C   -0.811447
    10  H    0.040419
    11  H    0.070736
    12  H    0.050819
    13  H    0.064900
    14  H    0.649720
 Sum of Mulliken charges =   0.00000

 Dipole moment (field-independent basis, Debye):
    X=              0.7545    Y=              0.4850    Z=             -0.1104  Tot=              0.9037
 Quadrupole moment (field-independent basis, Debye-Ang):
   XX=            -32.3657   YY=            -29.8200   ZZ=            -28.4461
   XY=              0.3097   XZ=              1.0761   YZ=              0.4962

 Normal termination of Gaussian 09 at Wed Aug 26 16:38:29 2020.
