 Gaussian 09, Revision D.01,
 Gaussian 09:  ES64L-G09RevD.01 24-Apr-2013

 --------------------
 #p B2PLYPD3/Def2QZVP
 --------------------

 ----------
 butane_opt
 ----------
 Symbolic Z-matrix:
 Charge =  0 Multiplicity = 1

                         Standard orientation:
 ---------------------------------------------------------------------
 Center     Atomic      Atomic             Coordinates (Angstroms)
 Number     Number       Type             X           Y           Z
 ---------------------------------------------------------------------
      1          6           0        1.826935    0.051595   -0.168368
      2          6           0        0.588460   -0.448158    0.132414
      3          1           0        2.625170   -0.713901    0.014203
      4          1           0        1.893626    0.638735    0.466586
      5          1           0        2.001223    0.550656   -0.932076
      6          6           0       -0.459108    0.616795    0.179813
      7          1           0        0.759449   -1.159184    1.154964
      8          1           0        0.337741   -0.925475   -0.728070
      9          6           0       -1.944438   -0.173756   -0.170932
     10          1           0       -0.419763    0.960777   -0.409857
     11          1           0       -0.397768    1.458670    1.141704
     12          1           0       -1.556848   -0.471210   -0.835521
     13          1           0       -2.621338    0.424886   -0.618277
     14          1           0       -2.692592   -1.042815    0.908787
 ---------------------------------------------------------------------

 SCF Done:  E(RB2PLYPD3) =  -157.546954129     A.U. after   11 cycles
 E2(B2PLYPD3) =    -0.2501145506D+00 E(B2PLYPD3) =    -0.15779706867947D+03

 The electronic state is 1-A.
 Alpha  occ. eigenvalues --  -10.61119 -10.60074 -10.59986 -10.54210  -0.97340
 Alpha  occ. eigenvalues --   -0.88409  -0.77711  -0.70546  -0.57719  -0.53213
 Alpha  occ. eigenvalues --   -0.50265  -0.49836  -0.42393  -0.40068  -0.38145
 Alpha  occ. eigenvalues --   -0.37902  -0.35372
 Alpha virt. eigenvalues --    0.03979   0.05712   0.08115   0.08322   0.09780
 Alpha virt. eigenvalues --    0.11273   0.12694   0.13175   0.14882   0.16237
 Alpha virt. eigenvalues --    0.16534   0.17301   0.18157   0.19588   0.21223

 Mulliken charges:
               1
     1  C   -0.207884
     2  C    0.021416
     3  H    0.038944
     4  H    0.114049
     5  H    0.027707
     6  C   -0.654080
     7  H    0.030208
     8  H    0.049661
     9  C   -0.337946
    10  H    0.543543
    11  H    0.042095
    12  H    0.241631
    13  H    0.056985
    14  H    0.033670
 Sum of Mulliken charges =   0.00000

 Dipole moment (field-independent basis, Debye):
    X=              0.4692    Y=              0.4619    Z=             -0.7257  Tot=              0.9799
 Quadrupole moment (field-independent basis, Debye-Ang):
   XX=            -29.7113   YY=            -29.0833   ZZ=            -27.3848
   XY=             -0.4691   XZ=              0.8517   YZ=             -0.7459

 Normal termination of Gaussian 09 at Wed Aug 26 12:17:33 2020.
