 Gaussian 09, Revision D.01,
 Gaussian 09:  ES64L-G09RevD.01 24-Apr-2013

 --------------------
 #p B2PLYPD3/Def2QZVP
 --------------------

 ----------
 butane_opt
 ----------
 Symbolic Z-matrix:
 Charge =  0 Multiplicity = 1

                         Standard orientation:
 ---------------------------------------------------------------------
 Center     Atomic      Atomic             Coordinates (Angstroms)
 Number     Number       Type             X           Y           Z
 ---------------------------------------------------------------------
      1          6           0       -1.950679   -0.099233   -0.178432
      2          6           0       -0.552459    0.424033    0.290379
      3          1           0       -2.861186    0.851653   -0.325433
      4          1           0       -2.361765   -0.646466    0.550801
      5          1           0       -1.604276   -0.675790   -1.105689
      6          6           0        0.569474   -0.640672    0.064555
      7          1           0       -0.636051    1.264831    1.475963
      8          1           0       -0.524726    0.895538   -0.425734
      9          6           0        1.964597    0.177901   -0.145715
     10          1           0        0.324594   -1.012619   -0.797459
     11          1           0        0.628169   -1.192563    0.870717
     12          1           0        2.025072    1.475848   -1.216478
     13          1           0        2.714683   -0.321953    0.320790
     14          1           0        2.109885    0.189348    0.467802
 ---------------------------------------------------------------------

 SCF Done:  E(RB2PLYPD3) =  -157.338776002     A.U. after   13 cycles
 E2(B2PLYPD3) =    -0.2561093141D+00 E(B2PLYPD3) =    -0.15759488531586D+03

 The electronic state is 1-A.
 Alpha  occ. eigenvalues --  -10.62117 -10.60965 -10.60861 -10.60637  -0.99734
 Alpha  occ. eigenvalues --   -0.90663  -0.78209  -0.68738  -0.56232  -0.50321
 Alpha  occ. eigenvalues --   -0.47503  -0.46148  -0.40665  -0.38874  -0.37403
 Alpha  occ. eigenvalues --   -0.35970  -0.33535
 Alpha virt. eigenvalues --    0.01134   0.05532   0.06152   0.06991   0.09907
 Alpha virt. eigenvalues --    0.10683   0.11980   0.12955   0.14696   0.15015
 Alpha virt. eigenvalues --    0.15900   0.16322   0.17883   0.18726   0.21126

 Mulliken charges:
               1
     1  C   -0.157684
     2  C   -0.258508
     3  H    0.023212
     4  H    0.067328
     5  H    0.057084
     6  C   -0.061536
     7  H    0.001683
     8  H    0.228804
     9  C   -0.815943
    10  H    0.084924
    11  H    0.059733
    12  H    0.061835
    13  H    0.016044
    14  H    0.693024
 Sum of Mulliken charges =   0.00000

 Dipole moment (field-independent basis, Debye):
    X=              0.2067    Y=             -0.2964    Z=              0.5374  Tot=              0.6476
 Quadrupole moment (field-independent basis, Debye-Ang):
   XX=            -30.2408   YY=            -29.4327   ZZ=            -28.0227
   XY=              0.0339   XZ=              2.1773   YZ=             -1.6975

 Normal termination of Gaussian 09 at Wed Aug 26 22:07:31 2020.
