 Gaussian 09, Revision D.01,
 Gaussian 09:  ES64L-G09RevD.01 24-Apr-2013

 --------------------
 #p B2PLYPD3/Def2QZVP
 --------------------

 ----------
 butane_opt
 ----------
 Symbolic Z-matrix:
 Charge =  0 Multiplicity = 1

                         Standard orientation:
 ---------------------------------------------------------------------
 Center     Atomic      Atomic             Coordinates (Angstroms)
 Number     Number       Type             X           Y           Z
 ---------------------------------------------------------------------
      1          6           0       -1.889708    0.041574    0.168562
      2          6           0       -0.573710   -0.397978   -0.331941
      3          1           0       -2.683906   -0.811376    0.187942
      4          1           0       -2.105665    0.587344   -0.390020
      5          1           0       -1.771858    0.635473    1.288766
      6          6           0        0.548803    0.587210   -0.159557
      7          1           0       -0.766947   -0.838158   -1.130801
      8          1           0       -0.258873   -1.359239    0.425723
      9          6           0        1.933179   -0.162217    0.182331
     10          1           0        0.141457    0.916854    0.755477
     11          1           0        0.639137    1.903682   -0.990785
     12          1           0        1.722176   -0.724481    0.877289
     13          1           0        2.412070    0.072479    0.905332
     14          1           0        2.561029   -0.794115   -1.085296
 ---------------------------------------------------------------------

 SCF Done:  E(RB2PLYPD3) =  -157.712214343     A.U. after   11 cycles
 E2(B2PLYPD3) =    -0.2541606024D+00 E(B2PLYPD3) =    -0.15796637494563D+03

 The electronic state is 1-A.
 Alpha  occ. eigenvalues --  -10.65555 -10.61076 -10.60698 -10.59281  -0.94196
 Alpha  occ. eigenvalues --   -0.88625  -0.77653  -0.68474  -0.54789  -0.52016
 Alpha  occ. eigenvalues --   -0.48307  -0.44382  -0.42034  -0.40335  -0.37825
 Alpha  occ. eigenvalues --   -0.36299  -0.34628
 Alpha virt. eigenvalues --    0.03728   0.04792   0.05663   0.07927   0.09782
 Alpha virt. eigenvalues --    0.10882   0.11706   0.12856   0.14130   0.14922
 Alpha virt. eigenvalues --    0.16851   0.17510   0.17817   0.19118   0.19388

 Mulliken charges:
               1
     1  C   -0.310260
     2  C   -0.011765
     3  H    0.050511
     4  H    0.225148
     5  H    0.015788
     6  C   -0.090506
     7  H    0.062242
     8  H   -0.005559
     9  C   -0.279263
    10  H    0.064465
    11  H   -0.002004
    12  H    0.127320
    13  H    0.122173
    14  H    0.031709
 Sum of Mulliken charges =   0.00000

 Dipole moment (field-independent basis, Debye):
    X=             -0.4952    Y=             -0.4754    Z=              0.5690  Tot=              0.8916
 Quadrupole moment (field-independent basis, Debye-Ang):
   XX=            -30.4610   YY=            -30.4417   ZZ=            -27.6803
   XY=             -0.3626   XZ=              2.3417   YZ=              0.2274

 Normal termination of Gaussian 09 at Wed Aug 26 21:22:39 2020.
