 Gaussian 09, Revision D.01,
 Gaussian 09:  ES64L-G09RevD.01 24-Apr-2013

 --------------------
 #p B2PLYPD3/Def2QZVP
 --------------------

 ----------
 butane_opt
 ----------
 Symbolic Z-matrix:
 Charge =  0 Multiplicity = 1

                         Standard orientation:
 ---------------------------------------------------------------------
 Center     Atomic      Atomic             Coordinates (Angstroms)
 Number     Number       Type             X           Y           Z
 ---------------------------------------------------------------------
      1          6           0        1.942293    0.120507    0.070717
      2          6           0        0.605290   -0.496610   -0.127057
      3          1           0        2.758826   -0.733768    0.066824
      4          1           0        2.127545    0.875827    1.117039
      5          1           0        2.125192    0.461520   -0.591108
      6          6           0       -0.588242    0.581741   -0.163372
      7          1           0        0.516904   -1.162725    0.817448
      8          1           0        0.521388   -1.115990   -1.017362
      9          6           0       -1.968762   -0.143582    0.132032
     10          1           0       -0.529872    1.276907   -1.004363
     11          1           0       -0.330674    1.077814    0.673560
     12          1           0       -2.372726   -0.751270   -0.765492
     13          1           0       -2.683428    0.419407    0.245405
     14          1           0       -2.076632   -0.720058    0.984131
 ---------------------------------------------------------------------

 SCF Done:  E(RB2PLYPD3) =  -157.913931016     A.U. after   11 cycles
 E2(B2PLYPD3) =    -0.2469351793D+00 E(B2PLYPD3) =    -0.15816086619520D+03

 The electronic state is 1-A.
 Alpha  occ. eigenvalues --  -10.61085 -10.60552 -10.58858 -10.58064  -0.91245
 Alpha  occ. eigenvalues --   -0.85129  -0.75680  -0.67701  -0.54609  -0.50210
 Alpha  occ. eigenvalues --   -0.48542  -0.46315  -0.43945  -0.41359  -0.39268
 Alpha  occ. eigenvalues --   -0.38565  -0.35496
 Alpha virt. eigenvalues --    0.05616   0.06705   0.08478   0.08599   0.10690
 Alpha virt. eigenvalues --    0.11903   0.13062   0.13872   0.14688   0.15429
 Alpha virt. eigenvalues --    0.16152   0.16568   0.19214   0.20209   0.22102

 Mulliken charges:
               1
     1  C   -0.399269
     2  C   -0.008702
     3  H    0.037437
     4  H    0.034537
     5  H    0.274373
     6  C   -0.091609
     7  H    0.029636
     8  H    0.041282
     9  C   -0.132382
    10  H    0.039448
    11  H    0.060293
    12  H    0.015472
    13  H    0.059116
    14  H    0.040368
 Sum of Mulliken charges =   0.00000

 Dipole moment (field-independent basis, Debye):
    X=             -0.1075    Y=              0.2300    Z=             -0.1305  Tot=              0.2854
 Quadrupole moment (field-independent basis, Debye-Ang):
   XX=            -28.8152   YY=            -29.0549   ZZ=            -27.6181
   XY=             -0.1672   XZ=             -0.8061   YZ=             -0.0634

 Normal termination of Gaussian 09 at Wed Aug 26 23:15:23 2020.
