 Gaussian 09, Revision D.01,
 Gaussian 09:  ES64L-G09RevD.01 24-Apr-2013

 --------------------
 #p B2PLYPD3/Def2QZVP
 --------------------

 ----------
 butane_opt
 ----------
 Symbolic Z-matrix:
 Charge =  0 Multiplicity = 1

                         Standard orientation:
 ---------------------------------------------------------------------
 Center     Atomic      Atomic             Coordinates (Angstroms)
 Number     Number       Type             X           Y           Z
 ---------------------------------------------------------------------
      1          6           0        1.957796   -0.169898    0.070565
      2          6           0        0.481979    0.627407   -0.163122
      3          1           0        2.629633    0.388732    0.203036
      4          1           0        2.615074   -0.701384   -0.657330
      5          1           0        1.911260   -0.947662    0.955765
      6          6           0       -0.621282   -0.514346   -0.085269
      7          1           0        0.578351    1.194888   -0.890413
      8          1           0        0.552254    1.277811    0.779179
      9          6           0       -1.886623    0.108379    0.082011
     10          1           0       -0.224541   -0.982809    0.649001
     11          1           0       -0.723447   -1.130629   -0.907488
     12          1           0       -1.892596    0.948092    1.049416
     13          1           0       -2.904302   -0.924443    0.157494
     14          1           0       -2.132906    0.568157   -0.763767
 ---------------------------------------------------------------------

 SCF Done:  E(RB2PLYPD3) =  -157.925177266     A.U. after   11 cycles
 E2(B2PLYPD3) =    -0.2493453765D+00 E(B2PLYPD3) =    -0.15817452264217D+03

 The electronic state is 1-A.
 Alpha  occ. eigenvalues --  -10.63326 -10.61663 -10.59036 -10.58742  -0.92512
 Alpha  occ. eigenvalues --   -0.83900  -0.74685  -0.69669  -0.56282  -0.50332
 Alpha  occ. eigenvalues --   -0.47493  -0.46918  -0.44349  -0.39766  -0.39180
 Alpha  occ. eigenvalues --   -0.38967  -0.33914
 Alpha virt. eigenvalues --    0.04826   0.06195   0.07914   0.09267   0.10323
 Alpha virt. eigenvalues --    0.10672   0.12467   0.13836   0.14756   0.15380
 Alpha virt. eigenvalues --    0.15405   0.16284   0.18738   0.19732   0.20994

 Mulliken charges:
               1
     1  C   -0.204922
     2  C   -0.080531
     3  H    0.100863
     4  H    0.020347
     5  H    0.022591
     6  C   -0.039267
     7  H    0.075241
     8  H    0.031590
     9  C   -0.167258
    10  H    0.085891
    11  H    0.048032
    12  H    0.037639
    13  H   -0.013190
    14  H    0.082976
 Sum of Mulliken charges =   0.00000

 Dipole moment (field-independent basis, Debye):
    X=              0.6264    Y=              0.4117    Z=             -0.3439  Tot=              0.8247
 Quadrupole moment (field-independent basis, Debye-Ang):
   XX=            -30.9045   YY=            -28.5249   ZZ=            -28.5909
   XY=              0.2435   XZ=              0.9927   YZ=             -0.1282

 Normal termination of Gaussian 09 at Wed Aug 26 19:25:07 2020.
