 Gaussian 09, Revision D.01,
 Gaussian 09:  ES64L-G09RevD.01 24-Apr-2013

 --------------------
 #p B2PLYPD3/Def2QZVP
 --------------------

 ----------
 butane_opt
 ----------
 Symbolic Z-matrix:
 Charge =  0 Multiplicity = 1

                         Standard orientation:
 ---------------------------------------------------------------------
 Center     Atomic      Atomic             Coordinates (Angstroms)
 Number     Number       Type             X           Y           Z
 ---------------------------------------------------------------------
      1          6           0       -2.040590    0.086855   -0.026328
      2          6           0       -0.584204   -0.472781    0.058550
      3          1           0       -2.831335   -0.635378   -0.316686
      4          1           0       -1.858879    0.661012   -0.963566
      5          1           0       -2.314326    0.575283    0.902149
      6          6           0        0.583317    0.495863    0.147264
      7          1           0       -0.351160   -1.116401   -0.874321
      8          1           0       -0.446383   -0.858289    0.684062
      9          6           0        1.996265   -0.124461   -0.081164
     10          1           0        0.746920    1.111024    1.045620
     11          1           0        0.206290    1.299184   -0.672419
     12          1           0        2.394817   -1.014037    1.013145
     13          1           0        2.687319    0.533026   -0.710300
     14          1           0        2.038016   -0.468274   -0.697618
 ---------------------------------------------------------------------

 SCF Done:  E(RB2PLYPD3) =  -157.643626709     A.U. after   11 cycles
 E2(B2PLYPD3) =    -0.2500001373D+00 E(B2PLYPD3) =    -0.15789362684581D+03

 The electronic state is 1-A.
 Alpha  occ. eigenvalues --  -10.62116 -10.60781 -10.60389 -10.57592  -0.93281
 Alpha  occ. eigenvalues --   -0.87047  -0.76709  -0.69673  -0.56433  -0.50806
 Alpha  occ. eigenvalues --   -0.47425  -0.45684  -0.43735  -0.40705  -0.38191
 Alpha  occ. eigenvalues --   -0.37627  -0.35470
 Alpha virt. eigenvalues --    0.04298   0.05996   0.07913   0.08499   0.10607
 Alpha virt. eigenvalues --    0.11471   0.12050   0.12690   0.14119   0.15571
 Alpha virt. eigenvalues --    0.16386   0.17372   0.18914   0.19146   0.20409

 Mulliken charges:
               1
     1  C   -0.136159
     2  C   -0.390375
     3  H    0.047143
     4  H    0.040428
     5  H    0.060845
     6  C    0.013187
     7  H    0.036107
     8  H    0.349291
     9  C   -0.561570
    10  H    0.045343
    11  H   -0.005796
    12  H    0.039385
    13  H    0.046253
    14  H    0.415918
 Sum of Mulliken charges =   0.00000

 Dipole moment (field-independent basis, Debye):
    X=             -0.1793    Y=             -0.3715    Z=             -0.2762  Tot=              0.4964
 Quadrupole moment (field-independent basis, Debye-Ang):
   XX=            -29.9174   YY=            -29.8995   ZZ=            -27.1349
   XY=             -0.0724   XZ=             -1.4531   YZ=             -0.0897

 Normal termination of Gaussian 09 at Wed Aug 26 20:14:31 2020.
