 Gaussian 09, Revision D.01,
 Gaussian 09:  ES64L-G09RevD.01 24-Apr-2013

 --------------------
 #p B2PLYPD3/Def2QZVP
 --------------------

 ----------
 butane_opt
 ----------
 Symbolic Z-matrix:
 Charge =  0 Multiplicity = 1

                         Standard orientation:
 ---------------------------------------------------------------------
 Center     Atomic      Atomic             Coordinates (Angstroms)
 Number     Number       Type             X           Y           Z
 ---------------------------------------------------------------------
      1          6           0        1.977064   -0.190721   -0.098441
      2          6           0        0.575783    0.569629    0.119645
      3          1           0        2.713547    0.537304   -0.446588
      4          1           0        2.025408   -0.543494   -0.772499
      5          1           0        2.298729   -0.845333    0.775662
      6          6           0       -0.594653   -0.495974    0.091563
      7          1           0        0.474129    0.994432   -0.646015
      8          1           0        0.656125    1.364528    1.092636
      9          6           0       -1.982733    0.106569   -0.098143
     10          1           0       -0.528209   -1.128966    0.976393
     11          1           0       -0.465471   -1.105261   -0.738301
     12          1           0       -2.088335    0.741016    0.686087
     13          1           0       -2.859850   -0.704140    0.011585
     14          1           0       -2.078836    0.752891   -1.026706
 ---------------------------------------------------------------------

 SCF Done:  E(RB2PLYPD3) =  -157.904459040     A.U. after   11 cycles
 E2(B2PLYPD3) =    -0.2464489389D+00 E(B2PLYPD3) =    -0.15815090797932D+03

 The electronic state is 1-A.
 Alpha  occ. eigenvalues --  -10.60586 -10.60328 -10.60083 -10.57019  -0.91405
 Alpha  occ. eigenvalues --   -0.85171  -0.75588  -0.68273  -0.54870  -0.50307
 Alpha  occ. eigenvalues --   -0.48299  -0.45983  -0.43478  -0.42239  -0.39764
 Alpha  occ. eigenvalues --   -0.37997  -0.36377
 Alpha virt. eigenvalues --    0.05636   0.06810   0.08323   0.08926   0.11105
 Alpha virt. eigenvalues --    0.11949   0.12718   0.13533   0.14928   0.15259
 Alpha virt. eigenvalues --    0.16114   0.16691   0.19265   0.19935   0.21757

 Mulliken charges:
               1
     1  C   -0.400946
     2  C   -0.136274
     3  H    0.028000
     4  H    0.267473
     5  H    0.061413
     6  C   -0.036978
     7  H    0.137489
     8  H    0.026974
     9  C   -0.157130
    10  H    0.031931
    11  H    0.046812
    12  H    0.060610
    13  H    0.035839
    14  H    0.034785
 Sum of Mulliken charges =   0.00000

 Dipole moment (field-independent basis, Debye):
    X=              0.0806    Y=             -0.0530    Z=             -0.3788  Tot=              0.3909
 Quadrupole moment (field-independent basis, Debye-Ang):
   XX=            -29.9499   YY=            -28.6258   ZZ=            -27.5244
   XY=              0.0065   XZ=             -0.8848   YZ=             -0.4261

 Normal termination of Gaussian 09 at Wed Aug 26 22:19:17 2020.
