 Gaussian 09, Revision D.01,
 Gaussian 09:  ES64L-G09RevD.01 24-Apr-2013

 --------------------
 #p B2PLYPD3/Def2QZVP
 --------------------

 ----------
 butane_opt
 ----------
 Symbolic Z-matrix:
 Charge =  0 Multiplicity = 1

                         Standard orientation:
 ---------------------------------------------------------------------
 Center     Atomic      Atomic             Coordinates (Angstroms)
 Number     Number       Type             X           Y           Z
 ---------------------------------------------------------------------
      1          6           0       -1.972578    0.122837   -0.161678
      2          6           0       -0.529726   -0.591685    0.151072
      3          1           0       -2.635938   -0.351838    0.003136
      4          1           0       -2.287460    0.832899   -1.020904
      5          1           0       -2.313118    0.532775    0.526759
      6          6           0        0.542334    0.528066    0.210611
      7          1           0       -0.432333   -1.114542   -0.682511
      8          1           0       -0.310186   -1.277176    1.001290
      9          6           0        1.980197   -0.090542   -0.200573
     10          1           0        0.697954    1.478134    1.292969
     11          1           0        0.400718    0.880252   -0.369771
     12          1           0        2.261797   -0.849621    0.807636
     13          1           0        2.758260    0.687589   -0.691882
     14          1           0        1.738948   -0.630532   -0.863324
 ---------------------------------------------------------------------

 SCF Done:  E(RB2PLYPD3) =  -157.584682234     A.U. after   11 cycles
 E2(B2PLYPD3) =    -0.2496645991D+00 E(B2PLYPD3) =    -0.15783434683297D+03

 The electronic state is 1-A.
 Alpha  occ. eigenvalues --  -10.61689 -10.61072 -10.59988 -10.55925  -0.93518
 Alpha  occ. eigenvalues --   -0.88205  -0.77287  -0.72188  -0.54377  -0.49075
 Alpha  occ. eigenvalues --   -0.48154  -0.47325  -0.43611  -0.41288  -0.39071
 Alpha  occ. eigenvalues --   -0.37981  -0.35591
 Alpha virt. eigenvalues --    0.04988   0.06328   0.07250   0.08998   0.11155
 Alpha virt. eigenvalues --    0.11548   0.12283   0.14265   0.14730   0.15695
 Alpha virt. eigenvalues --    0.16267   0.16839   0.18528   0.18778   0.21320

 Mulliken charges:
               1
     1  C   -0.305397
     2  C   -0.045957
     3  H    0.147157
     4  H    0.036143
     5  H    0.102595
     6  C   -0.591623
     7  H    0.076330
     8  H    0.046571
     9  C   -0.221560
    10  H    0.014744
    11  H    0.527091
    12  H    0.030013
    13  H    0.045411
    14  H    0.138481
 Sum of Mulliken charges =   0.00000

 Dipole moment (field-independent basis, Debye):
    X=             -0.7037    Y=             -0.2109    Z=             -0.4527  Tot=              0.8629
 Quadrupole moment (field-independent basis, Debye-Ang):
   XX=            -28.5910   YY=            -28.7372   ZZ=            -27.9665
   XY=             -0.0714   XZ=             -1.1739   YZ=             -0.9554

 Normal termination of Gaussian 09 at Wed Aug 26 09:55:26 2020.
