 Gaussian 09, Revision D.01,
 Gaussian 09:  ES64L-G09RevD.01 24-Apr-2013

 --------------------
 #p B2PLYPD3/Def2QZVP
 --------------------

 ----------
 butane_opt
 ----------
 Symbolic Z-matrix:
 Charge =  0 Multiplicity = 1

                         Standard orientation:
 ---------------------------------------------------------------------
 Center     Atomic      Atomic             Coordinates (Angstroms)
 Number     Number       Type             X           Y           Z
 ---------------------------------------------------------------------
      1          6           0       -1.964426    0.037323   -0.117424
      2          6           0       -0.613247   -0.520013    0.051044
      3          1           0       -2.633619   -0.646296   -0.219404
      4          1           0       -1.880227    0.642346   -0.925668
      5          1           0       -2.121507    0.694491    0.766998
      6          6           0        0.534596    0.658871    0.169927
      7          1           0       -0.314265   -0.826895   -0.725358
      8          1           0       -0.777742   -1.315650    1.084486
      9          6           0        2.032990   -0.136933   -0.102500
     10          1           0        0.156553    1.463964    1.127742
     11          1           0        0.316228    0.901484   -0.474616
     12          1           0        2.928271   -1.072909    1.066535
     13          1           0        2.686718    0.543411   -0.825115
     14          1           0        1.700114   -0.619438   -0.881884
 ---------------------------------------------------------------------

 SCF Done:  E(RB2PLYPD3) =  -157.650681659     A.U. after   12 cycles
 E2(B2PLYPD3) =    -0.2549483496D+00 E(B2PLYPD3) =    -0.15790563000896D+03

 The electronic state is 1-A.
 Alpha  occ. eigenvalues --  -10.66552 -10.61915 -10.60657 -10.57636  -0.94286
 Alpha  occ. eigenvalues --   -0.84892  -0.75193  -0.69642  -0.55137  -0.52250
 Alpha  occ. eigenvalues --   -0.48182  -0.46098  -0.41851  -0.39976  -0.37709
 Alpha  occ. eigenvalues --   -0.36849  -0.34868
 Alpha virt. eigenvalues --    0.00275   0.05546   0.07709   0.08222   0.09061
 Alpha virt. eigenvalues --    0.11080   0.12049   0.12676   0.13984   0.15742
 Alpha virt. eigenvalues --    0.16053   0.17103   0.17878   0.18260   0.19934

 Mulliken charges:
               1
     1  C   -0.124045
     2  C   -0.137921
     3  H    0.062499
     4  H    0.033570
     5  H    0.043729
     6  C   -0.586120
     7  H    0.125074
     8  H    0.011899
     9  C   -0.211316
    10  H    0.048819
    11  H    0.527934
    12  H    0.047106
    13  H    0.043087
    14  H    0.115686
 Sum of Mulliken charges =   0.00000

 Dipole moment (field-independent basis, Debye):
    X=             -0.5680    Y=              0.0468    Z=             -0.9910  Tot=              1.1432
 Quadrupole moment (field-independent basis, Debye-Ang):
   XX=            -30.4949   YY=            -30.0813   ZZ=            -27.7184
   XY=             -0.1260   XZ=             -1.0307   YZ=             -0.2776

 Normal termination of Gaussian 09 at Wed Aug 26 13:15:16 2020.
