 Gaussian 09, Revision D.01,
 Gaussian 09:  ES64L-G09RevD.01 24-Apr-2013

 --------------------
 #p B2PLYPD3/Def2QZVP
 --------------------

 ----------
 butane_opt
 ----------
 Symbolic Z-matrix:
 Charge =  0 Multiplicity = 1

                         Standard orientation:
 ---------------------------------------------------------------------
 Center     Atomic      Atomic             Coordinates (Angstroms)
 Number     Number       Type             X           Y           Z
 ---------------------------------------------------------------------
      1          6           0        1.956359    0.104008   -0.181237
      2          6           0        0.609708   -0.486997    0.177225
      3          1           0        3.032782   -0.949337   -0.144093
      4          1           0        1.947602    0.897364    0.695843
      5          1           0        1.854202    0.619681   -1.042416
      6          6           0       -0.544791    0.565847    0.125438
      7          1           0        0.668730   -1.078414    1.173840
      8          1           0        0.497216   -0.902704   -0.441774
      9          6           0       -1.990426   -0.191787   -0.140926
     10          1           0       -0.425146    1.006911   -0.591436
     11          1           0       -0.484324    1.629757    1.038866
     12          1           0       -1.945355   -0.765269   -0.948878
     13          1           0       -2.717084    0.542171   -0.451427
     14          1           0       -2.613719   -0.946587    0.828472
 ---------------------------------------------------------------------

 SCF Done:  E(RB2PLYPD3) =  -157.750427827     A.U. after   11 cycles
 E2(B2PLYPD3) =    -0.2515077289D+00 E(B2PLYPD3) =    -0.15800193555603D+03

 The electronic state is 1-A.
 Alpha  occ. eigenvalues --  -10.63543 -10.62915 -10.62800 -10.58116  -0.93896
 Alpha  occ. eigenvalues --   -0.83491  -0.73439  -0.70792  -0.56305  -0.49513
 Alpha  occ. eigenvalues --   -0.48149  -0.44804  -0.41896  -0.40924  -0.38271
 Alpha  occ. eigenvalues --   -0.37607  -0.36176
 Alpha virt. eigenvalues --    0.03847   0.05359   0.07225   0.08762   0.09817
 Alpha virt. eigenvalues --    0.10752   0.12313   0.12468   0.13957   0.15176
 Alpha virt. eigenvalues --    0.15612   0.15933   0.18596   0.19400   0.19960

 Mulliken charges:
               1
     1  C   -0.188094
     2  C   -0.409226
     3  H    0.024763
     4  H    0.053395
     5  H    0.075577
     6  C   -0.181848
     7  H    0.057452
     8  H    0.386261
     9  C   -0.156489
    10  H    0.192864
    11  H    0.004921
    12  H    0.067757
    13  H    0.046099
    14  H    0.026566
 Sum of Mulliken charges =   0.00000

 Dipole moment (field-independent basis, Debye):
    X=             -0.4208    Y=             -0.0017    Z=             -0.8879  Tot=              0.9826
 Quadrupole moment (field-independent basis, Debye-Ang):
   XX=            -31.8130   YY=            -28.9968   ZZ=            -28.4968
   XY=             -0.5150   XZ=              0.7961   YZ=             -0.4158

 Normal termination of Gaussian 09 at Wed Aug 26 20:54:26 2020.
