 Gaussian 09, Revision D.01,
 Gaussian 09:  ES64L-G09RevD.01 24-Apr-2013

 --------------------
 #p B2PLYPD3/Def2QZVP
 --------------------

 ----------
 butane_opt
 ----------
 Symbolic Z-matrix:
 Charge =  0 Multiplicity = 1

                         Standard orientation:
 ---------------------------------------------------------------------
 Center     Atomic      Atomic             Coordinates (Angstroms)
 Number     Number       Type             X           Y           Z
 ---------------------------------------------------------------------
      1          6           0        2.024281    0.176513   -0.103432
      2          6           0        0.527182   -0.560171    0.086267
      3          1           0        2.847982   -0.528044    0.220891
      4          1           0        2.263159    0.405457    0.496958
      5          1           0        2.389835    1.285605   -1.178152
      6          6           0       -0.647910    0.417230    0.195012
      7          1           0        0.715713   -1.363583    0.947898
      8          1           0        0.217755   -1.088489   -0.873962
      9          6           0       -1.945188   -0.107479   -0.204836
     10          1           0       -0.516858    0.707655   -0.418864
     11          1           0       -0.844396    1.435228    1.572259
     12          1           0       -1.680932   -0.377882   -0.929662
     13          1           0       -2.863026    0.701228   -0.364520
     14          1           0       -2.279422   -0.733729    0.689083
 ---------------------------------------------------------------------

 SCF Done:  E(RB2PLYPD3) =  -157.278422273     A.U. after   12 cycles
 E2(B2PLYPD3) =    -0.2557294352D+00 E(B2PLYPD3) =    -0.15753415170781D+03

 The electronic state is 1-A.
 Alpha  occ. eigenvalues --  -10.65935 -10.62161 -10.61660 -10.59517  -0.98523
 Alpha  occ. eigenvalues --   -0.89526  -0.78748  -0.70180  -0.57277  -0.50507
 Alpha  occ. eigenvalues --   -0.47848  -0.47103  -0.43269  -0.40221  -0.38558
 Alpha  occ. eigenvalues --   -0.37075  -0.32716
 Alpha virt. eigenvalues --    0.02533   0.03034   0.05836   0.07133   0.09978
 Alpha virt. eigenvalues --    0.10947   0.11643   0.11850   0.14435   0.14938
 Alpha virt. eigenvalues --    0.15090   0.16656   0.17714   0.18998   0.19671

 Mulliken charges:
               1
     1  C   -0.601028
     2  C    0.015149
     3  H    0.035997
     4  H    0.479866
     5  H    0.035827
     6  C   -0.684631
     7  H    0.031103
     8  H    0.042319
     9  C   -0.283938
    10  H    0.644961
    11  H   -0.044772
    12  H    0.211259
    13  H    0.047849
    14  H    0.070039
 Sum of Mulliken charges =   0.00000

 Dipole moment (field-independent basis, Debye):
    X=              0.0727    Y=             -0.5954    Z=             -0.2234  Tot=              0.6401
 Quadrupole moment (field-independent basis, Debye-Ang):
   XX=            -28.9554   YY=            -30.5434   ZZ=            -28.8909
   XY=             -0.1615   XZ=              2.3374   YZ=             -1.7022

 Normal termination of Gaussian 09 at Wed Aug 26 13:33:02 2020.
