 Gaussian 09, Revision D.01,
 Gaussian 09:  ES64L-G09RevD.01 24-Apr-2013

 --------------------
 #p B2PLYPD3/Def2QZVP
 --------------------

 ----------
 butane_opt
 ----------
 Symbolic Z-matrix:
 Charge =  0 Multiplicity = 1

                         Standard orientation:
 ---------------------------------------------------------------------
 Center     Atomic      Atomic             Coordinates (Angstroms)
 Number     Number       Type             X           Y           Z
 ---------------------------------------------------------------------
      1          6           0        1.960788    0.013387   -0.169109
      2          6           0        0.577043   -0.368354    0.383553
      3          1           0        2.674473   -0.783894   -0.438572
      4          1           0        2.585621    0.733787    0.527564
      5          1           0        1.744797    0.345062   -1.218706
      6          6           0       -0.572868    0.661581    0.032686
      7          1           0        0.489306   -0.836851    1.465049
      8          1           0        0.622289   -1.385730   -0.397302
      9          6           0       -2.025588   -0.168163   -0.146888
     10          1           0       -0.180133    0.966762   -0.830675
     11          1           0       -0.438102    1.598518    0.848500
     12          1           0       -1.834220   -0.996303   -0.958010
     13          1           0       -2.633888    0.164592   -0.379696
     14          1           0       -2.666389   -0.636645    0.780394
 ---------------------------------------------------------------------

 SCF Done:  E(RB2PLYPD3) =  -157.837314212     A.U. after   11 cycles
 E2(B2PLYPD3) =    -0.2514294680D+00 E(B2PLYPD3) =    -0.15808874368010D+03

 The electronic state is 1-A.
 Alpha  occ. eigenvalues --  -10.63919 -10.63819 -10.61898 -10.59927  -0.89714
 Alpha  occ. eigenvalues --   -0.84630  -0.76137  -0.64886  -0.52200  -0.51463
 Alpha  occ. eigenvalues --   -0.47047  -0.45987  -0.41572  -0.40647  -0.40407
 Alpha  occ. eigenvalues --   -0.37716  -0.33544
 Alpha virt. eigenvalues --    0.05245   0.06185   0.07523   0.08492   0.10062
 Alpha virt. eigenvalues --    0.11587   0.12589   0.13516   0.14882   0.15067
 Alpha virt. eigenvalues --    0.15991   0.17394   0.18432   0.18603   0.20802

 Mulliken charges:
               1
     1  C   -0.142612
     2  C   -0.039795
     3  H    0.047228
     4  H    0.031087
     5  H    0.046298
     6  C   -0.080421
     7  H    0.045564
     8  H   -0.001241
     9  C   -0.466327
    10  H    0.094506
    11  H    0.029868
    12  H    0.057130
    13  H    0.344234
    14  H    0.034481
 Sum of Mulliken charges =   0.00000

 Dipole moment (field-independent basis, Debye):
    X=             -0.1157    Y=              0.1115    Z=             -0.3672  Tot=              0.4008
 Quadrupole moment (field-independent basis, Debye-Ang):
   XX=            -28.1618   YY=            -30.2125   ZZ=            -28.3942
   XY=             -0.5831   XZ=             -0.1995   YZ=              0.6282

 Normal termination of Gaussian 09 at Wed Aug 26 16:37:35 2020.
