 Gaussian 09, Revision D.01,
 Gaussian 09:  ES64L-G09RevD.01 24-Apr-2013

 --------------------
 #p B2PLYPD3/Def2QZVP
 --------------------

 ----------
 butane_opt
 ----------
 Symbolic Z-matrix:
 Charge =  0 Multiplicity = 1

                         Standard orientation:
 ---------------------------------------------------------------------
 Center     Atomic      Atomic             Coordinates (Angstroms)
 Number     Number       Type             X           Y           Z
 ---------------------------------------------------------------------
      1          6           0        1.901904   -0.123847   -0.022444
      2          6           0        0.520080    0.633393    0.048675
      3          1           0        2.635991    0.466287   -0.285128
      4          1           0        2.368123   -1.261160   -1.033801
      5          1           0        2.451770   -0.550476    0.763875
      6          6           0       -0.549267   -0.441883    0.189560
      7          1           0        0.165133    1.336140   -0.945115
      8          1           0        0.355161    1.132567    0.659080
      9          6           0       -1.919364    0.007640   -0.118860
     10          1           0       -0.441033   -1.167736    1.255076
     11          1           0       -0.451406   -0.777624   -0.450021
     12          1           0       -2.472511    0.943998    0.813511
     13          1           0       -2.761951   -0.939310   -0.702638
     14          1           0       -1.569397    0.365498   -0.656423
 ---------------------------------------------------------------------

 SCF Done:  E(RB2PLYPD3) =  -157.428809457     A.U. after   11 cycles
 E2(B2PLYPD3) =    -0.2539852281D+00 E(B2PLYPD3) =    -0.15768279468534D+03

 The electronic state is 1-A.
 Alpha  occ. eigenvalues --  -10.63890 -10.61999 -10.61795 -10.58973  -0.99131
 Alpha  occ. eigenvalues --   -0.86936  -0.76781  -0.72640  -0.55983  -0.50913
 Alpha  occ. eigenvalues --   -0.49463  -0.47177  -0.43235  -0.39725  -0.38081
 Alpha  occ. eigenvalues --   -0.36299  -0.35417
 Alpha virt. eigenvalues --    0.02877   0.04274   0.06712   0.08326   0.09685
 Alpha virt. eigenvalues --    0.10422   0.12069   0.12877   0.13269   0.14890
 Alpha virt. eigenvalues --    0.16138   0.16726   0.17840   0.19693   0.20444

 Mulliken charges:
               1
     1  C   -0.134830
     2  C   -0.222509
     3  H    0.065375
     4  H   -0.018738
     5  H    0.055165
     6  C   -0.532164
     7  H    0.016203
     8  H    0.255121
     9  C   -0.554198
    10  H    0.036723
    11  H    0.518684
    12  H    0.018786
    13  H    0.047854
    14  H    0.448527
 Sum of Mulliken charges =   0.00000

 Dipole moment (field-independent basis, Debye):
    X=              0.7022    Y=              0.5643    Z=              0.1104  Tot=              0.9076
 Quadrupole moment (field-independent basis, Debye-Ang):
   XX=            -29.9482   YY=            -29.4576   ZZ=            -29.0759
   XY=              0.7727   XZ=              1.6044   YZ=              0.4619

 Normal termination of Gaussian 09 at Wed Aug 26 18:58:50 2020.
