 Gaussian 09, Revision D.01,
 Gaussian 09:  ES64L-G09RevD.01 24-Apr-2013

 --------------------
 #p B2PLYPD3/Def2QZVP
 --------------------

 ----------
 butane_opt
 ----------
 Symbolic Z-matrix:
 Charge =  0 Multiplicity = 1

                         Standard orientation:
 ---------------------------------------------------------------------
 Center     Atomic      Atomic             Coordinates (Angstroms)
 Number     Number       Type             X           Y           Z
 ---------------------------------------------------------------------
      1          6           0       -1.993529   -0.138619   -0.071391
      2          6           0       -0.518030    0.515194    0.127518
      3          1           0       -2.760357    0.643762   -0.363496
      4          1           0       -2.321587   -0.897556    0.883582
      5          1           0       -1.821451   -0.786301   -1.010628
      6          6           0        0.609244   -0.454319    0.054487
      7          1           0       -0.427225    1.291545    1.124103
      8          1           0       -0.457611    1.070987   -0.668601
      9          6           0        1.909723    0.105304   -0.095025
     10          1           0        0.402895   -0.916588   -0.760189
     11          1           0        0.696410   -1.324674    1.063883
     12          1           0        1.831354    0.776283   -0.899115
     13          1           0        2.679967   -0.696495   -0.219259
     14          1           0        2.133162    0.673679    0.756187
 ---------------------------------------------------------------------

 SCF Done:  E(RB2PLYPD3) =  -158.025339573     A.U. after   11 cycles
 E2(B2PLYPD3) =    -0.2487144944D+00 E(B2PLYPD3) =    -0.15827405406718D+03

 The electronic state is 1-A.
 Alpha  occ. eigenvalues --  -10.63731 -10.61716 -10.60363 -10.58598  -0.93526
 Alpha  occ. eigenvalues --   -0.83152  -0.72275  -0.66335  -0.54890  -0.50546
 Alpha  occ. eigenvalues --   -0.48900  -0.46971  -0.42809  -0.40417  -0.38995
 Alpha  occ. eigenvalues --   -0.37276  -0.36162
 Alpha virt. eigenvalues --    0.05481   0.06496   0.07758   0.08216   0.10753
 Alpha virt. eigenvalues --    0.11591   0.12552   0.12966   0.14687   0.15105
 Alpha virt. eigenvalues --    0.15391   0.16286   0.19215   0.19698   0.21565

 Mulliken charges:
               1
     1  C   -0.165814
     2  C   -0.076846
     3  H    0.058916
     4  H    0.046760
     5  H    0.041177
     6  C   -0.062397
     7  H    0.004447
     8  H    0.080721
     9  C   -0.133814
    10  H    0.080022
    11  H   -0.014242
    12  H    0.038927
    13  H    0.049544
    14  H    0.052599
 Sum of Mulliken charges =   0.00000

 Dipole moment (field-independent basis, Debye):
    X=              0.1185    Y=              0.2199    Z=             -0.6063  Tot=              0.6557
 Quadrupole moment (field-independent basis, Debye-Ang):
   XX=            -30.0193   YY=            -29.5385   ZZ=            -28.5489
   XY=             -0.7656   XZ=              0.5015   YZ=             -0.2048

 Normal termination of Gaussian 09 at Wed Aug 26 15:09:41 2020.
