 Gaussian 09, Revision D.01,
 Gaussian 09:  ES64L-G09RevD.01 24-Apr-2013

 --------------------
 #p B2PLYPD3/Def2QZVP
 --------------------

 ----------
 butane_opt
 ----------
 Symbolic Z-matrix:
 Charge =  0 Multiplicity = 1

                         Standard orientation:
 ---------------------------------------------------------------------
 Center     Atomic      Atomic             Coordinates (Angstroms)
 Number     Number       Type             X           Y           Z
 ---------------------------------------------------------------------
      1          6           0       -1.970768    0.160444    0.042276
      2          6           0       -0.492724   -0.592088    0.009233
      3          1           0       -2.819484   -0.661133   -0.404414
      4          1           0       -1.694326    0.329688   -0.484945
      5          1           0       -2.575422    1.296613    1.113286
      6          6           0        0.657756    0.449521   -0.157286
      7          1           0       -0.317209   -1.339050   -0.825264
      8          1           0       -0.271612   -0.924719    0.648416
      9          6           0        1.859575   -0.040863    0.086642
     10          1           0        0.504537    0.982297    0.464102
     11          1           0        0.473298    1.322132   -1.328515
     12          1           0        1.524817   -0.870314    1.239349
     13          1           0        2.678716    0.766393    0.343449
     14          1           0        2.173650   -0.763993   -0.650659
 ---------------------------------------------------------------------

 SCF Done:  E(RB2PLYPD3) =  -157.216412196     A.U. after   11 cycles
 E2(B2PLYPD3) =    -0.2564929146D+00 E(B2PLYPD3) =    -0.15747290511091D+03

 The electronic state is 1-A.
 Alpha  occ. eigenvalues --  -10.63823 -10.63218 -10.60141 -10.59934  -0.97756
 Alpha  occ. eigenvalues --   -0.89958  -0.78793  -0.69794  -0.56210  -0.50548
 Alpha  occ. eigenvalues --   -0.49317  -0.46939  -0.44244  -0.39755  -0.38296
 Alpha  occ. eigenvalues --   -0.36528  -0.33145
 Alpha virt. eigenvalues --    0.01229   0.03903   0.05227   0.07507   0.09737
 Alpha virt. eigenvalues --    0.10482   0.11304   0.12754   0.14204   0.14591
 Alpha virt. eigenvalues --    0.15529   0.15591   0.18436   0.19398   0.20319

 Mulliken charges:
               1
     1  C   -0.832816
     2  C   -0.376523
     3  H    0.077141
     4  H    0.669402
     5  H    0.051049
     6  C   -0.168019
     7  H    0.051871
     8  H    0.373830
     9  C   -0.161486
    10  H    0.219444
    11  H   -0.031283
    12  H   -0.014111
    13  H    0.073827
    14  H    0.067674
 Sum of Mulliken charges =   0.00000

 Dipole moment (field-independent basis, Debye):
    X=              0.4844    Y=             -0.0897    Z=             -0.0729  Tot=              0.4980
 Quadrupole moment (field-independent basis, Debye-Ang):
   XX=            -30.2145   YY=            -28.9561   ZZ=            -29.4441
   XY=              0.4614   XZ=             -0.2488   YZ=              1.8804

 Normal termination of Gaussian 09 at Wed Aug 26 15:53:51 2020.
