 Gaussian 09, Revision D.01,
 Gaussian 09:  ES64L-G09RevD.01 24-Apr-2013

 --------------------
 #p B2PLYPD3/Def2QZVP
 --------------------

 ----------
 butane_opt
 ----------
 Symbolic Z-matrix:
 Charge =  0 Multiplicity = 1

                         Standard orientation:
 ---------------------------------------------------------------------
 Center     Atomic      Atomic             Coordinates (Angstroms)
 Number     Number       Type             X           Y           Z
 ---------------------------------------------------------------------
      1          6           0        1.928927   -0.230376   -0.166818
      2          6           0        0.538342    0.539088    0.219830
      3          1           0        2.840048    0.704681   -0.562499
      4          1           0        1.597015   -0.570172   -0.876170
      5          1           0        2.560962   -0.930763    0.723773
      6          6           0       -0.621586   -0.403410    0.086228
      7          1           0        0.315862    0.894728   -0.529870
      8          1           0        0.428533    1.548143    1.213111
      9          6           0       -1.862785    0.076214   -0.147194
     10          1           0       -0.544005   -1.241964    1.098197
     11          1           0       -0.516362   -0.739582   -0.479538
     12          1           0       -2.022148    0.473250    0.612122
     13          1           0       -2.594647   -0.735396   -0.024689
     14          1           0       -1.962644    0.707979   -1.126719
 ---------------------------------------------------------------------

 SCF Done:  E(RB2PLYPD3) =  -157.501034957     A.U. after   12 cycles
 E2(B2PLYPD3) =    -0.2509784252D+00 E(B2PLYPD3) =    -0.15775201338187D+03

 The electronic state is 1-A.
 Alpha  occ. eigenvalues --  -10.63521 -10.61567 -10.57444 -10.57299  -0.99357
 Alpha  occ. eigenvalues --   -0.86968  -0.76499  -0.71876  -0.56775  -0.51113
 Alpha  occ. eigenvalues --   -0.50120  -0.47911  -0.43730  -0.40695  -0.38723
 Alpha  occ. eigenvalues --   -0.37635  -0.34258
 Alpha virt. eigenvalues --    0.04963   0.06295   0.07517   0.07908   0.10062
 Alpha virt. eigenvalues --    0.10685   0.12334   0.13251   0.15085   0.15333
 Alpha virt. eigenvalues --    0.15592   0.16317   0.18134   0.19588   0.21094

 Mulliken charges:
               1
     1  C   -0.291538
     2  C   -0.185361
     3  H    0.018936
     4  H    0.196966
     5  H    0.063104
     6  C   -0.674086
     7  H    0.230080
     8  H    0.007196
     9  C   -0.170568
    10  H    0.014513
    11  H    0.584169
    12  H    0.117673
    13  H    0.048671
    14  H    0.040246
 Sum of Mulliken charges =   0.00000

 Dipole moment (field-independent basis, Debye):
    X=             -0.4057    Y=             -0.1786    Z=             -0.6230  Tot=              0.7646
 Quadrupole moment (field-independent basis, Debye-Ang):
   XX=            -29.6723   YY=            -29.6561   ZZ=            -28.0472
   XY=             -0.2849   XZ=              0.0786   YZ=             -0.2666

 Normal termination of Gaussian 09 at Wed Aug 26 15:35:45 2020.
