 Gaussian 09, Revision D.01,
 Gaussian 09:  ES64L-G09RevD.01 24-Apr-2013

 --------------------
 #p B2PLYPD3/Def2QZVP
 --------------------

 ----------
 butane_opt
 ----------
 Symbolic Z-matrix:
 Charge =  0 Multiplicity = 1

                         Standard orientation:
 ---------------------------------------------------------------------
 Center     Atomic      Atomic             Coordinates (Angstroms)
 Number     Number       Type             X           Y           Z
 ---------------------------------------------------------------------
      1          6           0        2.018793    0.048619   -0.102660
      2          6           0        0.655129   -0.442416    0.112092
      3          1           0        2.858418   -0.890030   -0.134003
      4          1           0        2.262987    0.573526    0.694974
      5          1           0        1.688641    0.959336   -1.325884
      6          6           0       -0.551523    0.575963    0.193831
      7          1           0        0.651361   -0.990338    0.875059
      8          1           0        0.240327   -1.116650   -0.673528
      9          6           0       -2.047172   -0.138576   -0.141783
     10          1           0       -0.322870    0.972697   -0.442117
     11          1           0       -0.492747    1.388602    1.288695
     12          1           0       -1.832291   -0.473210   -0.819884
     13          1           0       -2.647748    0.315377   -0.889714
     14          1           0       -2.857437   -1.000847    1.057529
 ---------------------------------------------------------------------

 SCF Done:  E(RB2PLYPD3) =  -157.591360090     A.U. after   11 cycles
 E2(B2PLYPD3) =    -0.2557232848D+00 E(B2PLYPD3) =    -0.15784708337473D+03

 The electronic state is 1-A.
 Alpha  occ. eigenvalues --  -10.65251 -10.62598 -10.62218 -10.59591  -0.93807
 Alpha  occ. eigenvalues --   -0.87418  -0.78441  -0.69398  -0.54352  -0.49372
 Alpha  occ. eigenvalues --   -0.47839  -0.46764  -0.41614  -0.40274  -0.37417
 Alpha  occ. eigenvalues --   -0.35542  -0.35098
 Alpha virt. eigenvalues --    0.01658   0.02847   0.06947   0.07781   0.08617
 Alpha virt. eigenvalues --    0.10286   0.11560   0.12056   0.13871   0.14938
 Alpha virt. eigenvalues --    0.16368   0.16690   0.17509   0.18642   0.20396

 Mulliken charges:
               1
     1  C   -0.162211
     2  C   -0.018159
     3  H    0.055187
     4  H    0.093236
     5  H   -0.018204
     6  C   -0.359893
     7  H    0.064940
     8  H    0.017342
     9  C   -0.455261
    10  H    0.332970
    11  H    0.013067
    12  H    0.339388
    13  H    0.058577
    14  H    0.039021
 Sum of Mulliken charges =   0.00000

 Dipole moment (field-independent basis, Debye):
    X=              0.2876    Y=             -0.5515    Z=             -0.1887  Tot=              0.6499
 Quadrupole moment (field-independent basis, Debye-Ang):
   XX=            -30.7531   YY=            -30.4822   ZZ=            -28.1201
   XY=             -0.5783   XZ=              3.4212   YZ=             -0.3963

 Normal termination of Gaussian 09 at Wed Aug 26 11:57:22 2020.
