 Gaussian 09, Revision D.01,
 Gaussian 09:  ES64L-G09RevD.01 24-Apr-2013

 --------------------
 #p B2PLYPD3/Def2QZVP
 --------------------

 ----------
 butane_opt
 ----------
 Symbolic Z-matrix:
 Charge =  0 Multiplicity = 1

                         Standard orientation:
 ---------------------------------------------------------------------
 Center     Atomic      Atomic             Coordinates (Angstroms)
 Number     Number       Type             X           Y           Z
 ---------------------------------------------------------------------
      1          6           0       -1.896654    0.073030    0.045534
      2          6           0       -0.581516   -0.455546   -0.010022
      3          1           0       -2.693648   -0.687741   -0.320534
      4          1           0       -1.842494    0.547362   -0.723129
      5          1           0       -2.198138    1.030319    1.118428
      6          6           0        0.495343    0.522922   -0.038716
      7          1           0       -0.523287   -1.286005   -0.985347
      8          1           0       -0.461675   -1.038803    0.842508
      9          6           0        1.969621   -0.132242    0.045416
     10          1           0        0.515264    1.008619    0.703567
     11          1           0        0.311532    1.229453   -1.053285
     12          1           0        2.066134   -0.977366    1.019946
     13          1           0        2.711658    0.696273   -0.130267
     14          1           0        2.193885   -0.571090   -0.725154
 ---------------------------------------------------------------------

 SCF Done:  E(RB2PLYPD3) =  -157.889286473     A.U. after   11 cycles
 E2(B2PLYPD3) =    -0.2502294477D+00 E(B2PLYPD3) =    -0.15813951592020D+03

 The electronic state is 1-A.
 Alpha  occ. eigenvalues --  -10.60955 -10.60869 -10.60845 -10.60254  -0.94319
 Alpha  occ. eigenvalues --   -0.84951  -0.75091  -0.67221  -0.55737  -0.49770
 Alpha  occ. eigenvalues --   -0.48695  -0.45718  -0.42550  -0.41230  -0.38385
 Alpha  occ. eigenvalues --   -0.37357  -0.35786
 Alpha virt. eigenvalues --    0.05072   0.05603   0.06736   0.07728   0.10509
 Alpha virt. eigenvalues --    0.11650   0.12175   0.13056   0.13621   0.15378
 Alpha virt. eigenvalues --    0.15904   0.16020   0.19004   0.19601   0.21932

 Mulliken charges:
               1
     1  C   -0.206006
     2  C   -0.006440
     3  H    0.048626
     4  H    0.113017
     5  H    0.012153
     6  C   -0.108915
     7  H   -0.001362
     8  H    0.038764
     9  C   -0.175981
    10  H    0.128220
    11  H    0.000111
    12  H    0.037908
    13  H    0.035293
    14  H    0.084613
 Sum of Mulliken charges =   0.00000

 Dipole moment (field-independent basis, Debye):
    X=              0.2150    Y=             -0.0766    Z=             -0.3948  Tot=              0.4560
 Quadrupole moment (field-independent basis, Debye-Ang):
   XX=            -30.6158   YY=            -29.3113   ZZ=            -28.3646
   XY=              0.4526   XZ=              0.2751   YZ=              0.1096

 Normal termination of Gaussian 09 at Wed Aug 26 23:21:24 2020.
