 Gaussian 09, Revision D.01,
 Gaussian 09:  ES64L-G09RevD.01 24-Apr-2013

 --------------------
 #p B2PLYPD3/Def2QZVP
 --------------------

 ----------
 butane_opt
 ----------
 Symbolic Z-matrix:
 Charge =  0 Multiplicity = 1

                         Standard orientation:
 ---------------------------------------------------------------------
 Center     Atomic      Atomic             Coordinates (Angstroms)
 Number     Number       Type             X           Y           Z
 ---------------------------------------------------------------------
      1          6           0        1.972633    0.219028    0.059770
      2          6           0        0.505994   -0.583031   -0.008997
      3          1           0        2.830477   -0.779207   -0.460427
      4          1           0        2.484900    1.745265    1.049318
      5          1           0        1.791500    0.226587   -0.450444
      6          6           0       -0.612145    0.316836   -0.266529
      7          1           0        0.259349   -0.901419    0.920905
      8          1           0        0.644176   -1.399885   -0.742827
      9          6           0       -1.846366   -0.033642    0.167439
     10          1           0       -0.900061    0.637987   -1.322999
     11          1           0       -0.335730    1.066855    0.409640
     12          1           0       -2.131299   -0.165788   -0.249803
     13          1           0       -2.882401    0.750832   -0.490787
     14          1           0       -1.881611   -0.696374    1.627325
 ---------------------------------------------------------------------

 SCF Done:  E(RB2PLYPD3) =  -156.161546895     A.U. after   13 cycles
 E2(B2PLYPD3) =    -0.2675168447D+00 E(B2PLYPD3) =    -0.15642906373959D+03

 The electronic state is 1-A.
 Alpha  occ. eigenvalues --  -10.66565 -10.65943 -10.62942 -10.60724  -0.99866
 Alpha  occ. eigenvalues --   -0.93991  -0.82823  -0.69923  -0.57443  -0.53218
 Alpha  occ. eigenvalues --   -0.48426  -0.46412  -0.41580  -0.38331  -0.37276
 Alpha  occ. eigenvalues --   -0.34926  -0.31111
 Alpha virt. eigenvalues --   -0.03665   0.00756   0.03090   0.05180   0.09219
 Alpha virt. eigenvalues --    0.09467   0.10492   0.11955   0.13253   0.14515
 Alpha virt. eigenvalues --    0.15428   0.16161   0.16732   0.18597   0.19612

 Mulliken charges:
               1
     1  C   -1.061865
     2  C    0.008303
     3  H    0.040299
     4  H    0.066525
     5  H    0.867948
     6  C    0.026971
     7  H    0.056619
     8  H    0.039149
     9  C   -0.904050
    10  H    0.017389
    11  H    0.073993
    12  H    0.765408
    13  H   -0.045676
    14  H    0.048987
 Sum of Mulliken charges =   0.00000

 Dipole moment (field-independent basis, Debye):
    X=             -0.2075    Y=             -0.4943    Z=             -0.7225  Tot=              0.8997
 Quadrupole moment (field-independent basis, Debye-Ang):
   XX=            -34.2370   YY=            -29.5723   ZZ=            -27.6645
   XY=              1.8428   XZ=              0.7468   YZ=              1.3253

 Normal termination of Gaussian 09 at Wed Aug 26 23:50:31 2020.
