 Gaussian 09, Revision D.01,
 Gaussian 09:  ES64L-G09RevD.01 24-Apr-2013

 --------------------
 #p B2PLYPD3/Def2QZVP
 --------------------

 ----------
 butane_opt
 ----------
 Symbolic Z-matrix:
 Charge =  0 Multiplicity = 1

                         Standard orientation:
 ---------------------------------------------------------------------
 Center     Atomic      Atomic             Coordinates (Angstroms)
 Number     Number       Type             X           Y           Z
 ---------------------------------------------------------------------
      1          6           0        1.927221   -0.155142   -0.072638
      2          6           0        0.564039    0.493151    0.083149
      3          1           0        2.843878    0.624463   -0.387615
      4          1           0        1.887224   -1.347178   -0.982534
      5          1           0        2.120471   -0.498173    0.628204
      6          6           0       -0.563790   -0.379817    0.252818
      7          1           0        0.356009    0.966404   -0.764677
      8          1           0        0.211452    1.649923    0.930419
      9          6           0       -1.888709    0.026457   -0.212054
     10          1           0       -0.693441   -1.254733    1.609720
     11          1           0       -0.363364   -0.670371   -0.242381
     12          1           0       -2.371271    1.060260    0.611271
     13          1           0       -2.713758   -0.837592   -0.503801
     14          1           0       -1.509773    0.399102   -1.206255
 ---------------------------------------------------------------------

 SCF Done:  E(RB2PLYPD3) =  -157.306735508     A.U. after   12 cycles
 E2(B2PLYPD3) =    -0.2572010942D+00 E(B2PLYPD3) =    -0.15756393660205D+03

 The electronic state is 1-A.
 Alpha  occ. eigenvalues --  -10.65583 -10.64321 -10.63836 -10.61391  -1.00956
 Alpha  occ. eigenvalues --   -0.86574  -0.75456  -0.69687  -0.55797  -0.50825
 Alpha  occ. eigenvalues --   -0.50038  -0.44580  -0.43096  -0.42657  -0.38815
 Alpha  occ. eigenvalues --   -0.34122  -0.33369
 Alpha virt. eigenvalues --    0.02443   0.03835   0.05094   0.06571   0.09972
 Alpha virt. eigenvalues --    0.10250   0.11211   0.12478   0.13098   0.14376
 Alpha virt. eigenvalues --    0.15162   0.15756   0.17203   0.19104   0.20481

 Mulliken charges:
               1
     1  C   -0.341126
     2  C    0.002090
     3  H    0.067492
     4  H    0.008141
     5  H    0.255238
     6  C   -0.839061
     7  H    0.085607
     8  H   -0.018371
     9  C   -0.111473
    10  H   -0.028913
    11  H    0.779101
    12  H    0.029216
    13  H    0.071488
    14  H    0.040569
 Sum of Mulliken charges =   0.00000

 Dipole moment (field-independent basis, Debye):
    X=              0.3935    Y=             -0.1127    Z=             -0.9510  Tot=              1.0354
 Quadrupole moment (field-independent basis, Debye-Ang):
   XX=            -29.0453   YY=            -30.8301   ZZ=            -30.1870
   XY=              0.8139   XZ=              0.6790   YZ=              0.3447

 Normal termination of Gaussian 09 at Wed Aug 26 18:51:05 2020.
