 Gaussian 09, Revision D.01,
 Gaussian 09:  ES64L-G09RevD.01 24-Apr-2013

 --------------------
 #p B2PLYPD3/Def2QZVP
 --------------------

 ----------
 butane_opt
 ----------
 Symbolic Z-matrix:
 Charge =  0 Multiplicity = 1

                         Standard orientation:
 ---------------------------------------------------------------------
 Center     Atomic      Atomic             Coordinates (Angstroms)
 Number     Number       Type             X           Y           Z
 ---------------------------------------------------------------------
      1          6           0        1.929469   -0.143474   -0.172087
      2          6           0        0.447697    0.581632    0.130449
      3          1           0        2.687620    0.435949   -0.205200
      4          1           0        1.961621   -0.847596   -0.941309
      5          1           0        2.470751   -0.793055    0.788296
      6          6           0       -0.572103   -0.420640    0.150503
      7          1           0        0.279885    0.767961   -0.446972
      8          1           0        0.315390    1.622926    1.298256
      9          6           0       -1.813710    0.054697   -0.122503
     10          1           0       -0.769159   -1.384345    1.281520
     11          1           0       -0.523776   -0.945459   -0.689711
     12          1           0       -2.087008    0.422242    0.650305
     13          1           0       -2.665332   -0.726661   -0.284166
     14          1           0       -1.618113    1.014748   -1.369190
 ---------------------------------------------------------------------

 SCF Done:  E(RB2PLYPD3) =  -157.413656911     A.U. after   12 cycles
 E2(B2PLYPD3) =    -0.2552216695D+00 E(B2PLYPD3) =    -0.15766887858090D+03

 The electronic state is 1-A.
 Alpha  occ. eigenvalues --  -10.62971 -10.62264 -10.62148 -10.61284  -1.00070
 Alpha  occ. eigenvalues --   -0.86871  -0.78122  -0.68527  -0.57262  -0.51945
 Alpha  occ. eigenvalues --   -0.50203  -0.45162  -0.42856  -0.40708  -0.38890
 Alpha  occ. eigenvalues --   -0.36144  -0.33352
 Alpha virt. eigenvalues --    0.02681   0.03543   0.05845   0.06203   0.10050
 Alpha virt. eigenvalues --    0.10750   0.11987   0.12971   0.13691   0.14638
 Alpha virt. eigenvalues --    0.15647   0.16284   0.18184   0.19169   0.20645

 Mulliken charges:
               1
     1  C   -0.115127
     2  C   -0.823700
     3  H    0.076238
     4  H    0.061773
     5  H    0.005563
     6  C   -0.006262
     7  H    0.745888
     8  H    0.020126
     9  C   -0.165925
    10  H   -0.021905
    11  H    0.092769
    12  H    0.105512
    13  H    0.051698
    14  H   -0.026647
 Sum of Mulliken charges =   0.00000

 Dipole moment (field-independent basis, Debye):
    X=              0.0205    Y=             -0.2985    Z=             -0.3028  Tot=              0.4257
 Quadrupole moment (field-independent basis, Debye-Ang):
   XX=            -28.6608   YY=            -30.5052   ZZ=            -29.2311
   XY=              1.1387   XZ=             -1.5443   YZ=              1.0598

 Normal termination of Gaussian 09 at Wed Aug 26 10:43:24 2020.
