 Gaussian 09, Revision D.01,
 Gaussian 09:  ES64L-G09RevD.01 24-Apr-2013

 --------------------
 #p B2PLYPD3/Def2QZVP
 --------------------

 ----------
 butane_opt
 ----------
 Symbolic Z-matrix:
 Charge =  0 Multiplicity = 1

                         Standard orientation:
 ---------------------------------------------------------------------
 Center     Atomic      Atomic             Coordinates (Angstroms)
 Number     Number       Type             X           Y           Z
 ---------------------------------------------------------------------
      1          6           0       -1.966058    0.096314   -0.239550
      2          6           0       -0.644763   -0.424340    0.307626
      3          1           0       -2.714168   -0.798235   -0.767406
      4          1           0       -1.623961    0.337878   -0.877568
      5          1           0       -2.104413    0.852134    0.620647
      6          6           0        0.553664    0.593039    0.140436
      7          1           0       -0.619088   -0.865353   -0.355406
      8          1           0       -0.793390   -1.292376    1.686513
      9          6           0        2.046792   -0.191492   -0.207653
     10          1           0        0.618045    1.687561    1.010010
     11          1           0        0.119395    0.976799   -0.750200
     12          1           0        2.381618   -0.735858    0.839395
     13          1           0        2.763952    0.426710   -0.410065
     14          1           0        2.034198   -1.030388   -1.001070
 ---------------------------------------------------------------------

 SCF Done:  E(RB2PLYPD3) =  -157.646996887     A.U. after   12 cycles
 E2(B2PLYPD3) =    -0.2554053207D+00 E(B2PLYPD3) =    -0.15790240220766D+03

 The electronic state is 1-A.
 Alpha  occ. eigenvalues --  -10.66451 -10.63076 -10.62378 -10.59936  -0.96676
 Alpha  occ. eigenvalues --   -0.83079  -0.75051  -0.68314  -0.56178  -0.49305
 Alpha  occ. eigenvalues --   -0.48678  -0.46619  -0.41607  -0.40981  -0.39425
 Alpha  occ. eigenvalues --   -0.35775  -0.33224
 Alpha virt. eigenvalues --    0.03837   0.05633   0.06100   0.06943   0.10701
 Alpha virt. eigenvalues --    0.11020   0.11851   0.12247   0.13438   0.14877
 Alpha virt. eigenvalues --    0.16041   0.16580   0.16680   0.18809   0.19154

 Mulliken charges:
               1
     1  C   -0.488090
     2  C   -0.374100
     3  H    0.052257
     4  H    0.359701
     5  H    0.090407
     6  C   -0.089990
     7  H    0.374597
     8  H   -0.030337
     9  C   -0.147684
    10  H    0.022448
    11  H    0.061121
    12  H    0.044628
    13  H    0.082369
    14  H    0.042672
 Sum of Mulliken charges =   0.00000

 Dipole moment (field-independent basis, Debye):
    X=              0.4262    Y=              0.2844    Z=             -1.2338  Tot=              1.3360
 Quadrupole moment (field-independent basis, Debye-Ang):
   XX=            -29.9823   YY=            -30.0827   ZZ=            -29.0453
   XY=              0.5130   XZ=              0.7025   YZ=              1.7547

 Normal termination of Gaussian 09 at Wed Aug 26 18:48:51 2020.
