 Gaussian 09, Revision D.01,
 Gaussian 09:  ES64L-G09RevD.01 24-Apr-2013

 --------------------
 #p B2PLYPD3/Def2QZVP
 --------------------

 ----------
 butane_opt
 ----------
 Symbolic Z-matrix:
 Charge =  0 Multiplicity = 1

                         Standard orientation:
 ---------------------------------------------------------------------
 Center     Atomic      Atomic             Coordinates (Angstroms)
 Number     Number       Type             X           Y           Z
 ---------------------------------------------------------------------
      1          6           0       -1.935036   -0.185039    0.147495
      2          6           0       -0.527746    0.604419   -0.162235
      3          1           0       -2.646312    0.613000    0.325476
      4          1           0       -1.850128   -0.877249    1.127407
      5          1           0       -2.495496   -0.943624   -0.876532
      6          6           0        0.601083   -0.441183   -0.187683
      7          1           0       -0.013746    1.019305    0.651551
      8          1           0       -0.482093    1.554220   -1.102724
      9          6           0        1.878385    0.062899    0.095705
     10          1           0        0.623509   -1.123374   -1.184688
     11          1           0        0.432565   -1.033699    0.766032
     12          1           0        2.069843    0.402044   -0.616920
     13          1           0        2.705075   -0.741443    0.265045
     14          1           0        1.556674    0.884243    1.285664
 ---------------------------------------------------------------------

 SCF Done:  E(RB2PLYPD3) =  -157.847480905     A.U. after   11 cycles
 E2(B2PLYPD3) =    -0.2551503464D+00 E(B2PLYPD3) =    -0.15810263125182D+03

 The electronic state is 1-A.
 Alpha  occ. eigenvalues --  -10.65333 -10.63931 -10.61596 -10.60497  -0.94366
 Alpha  occ. eigenvalues --   -0.82960  -0.72660  -0.64853  -0.55665  -0.50079
 Alpha  occ. eigenvalues --   -0.48695  -0.43107  -0.42299  -0.39800  -0.37251
 Alpha  occ. eigenvalues --   -0.36560  -0.35263
 Alpha virt. eigenvalues --    0.04453   0.05328   0.06541   0.07208   0.10006
 Alpha virt. eigenvalues --    0.10787   0.11951   0.12511   0.14432   0.14673
 Alpha virt. eigenvalues --    0.15095   0.16447   0.18078   0.19025   0.21146

 Mulliken charges:
               1
     1  C   -0.163023
     2  C   -0.082872
     3  H    0.067803
     4  H    0.052307
     5  H    0.031620
     6  C   -0.040401
     7  H    0.074856
     8  H    0.013204
     9  C   -0.300460
    10  H    0.022984
    11  H    0.055115
    12  H    0.217000
    13  H    0.056343
    14  H   -0.004475
 Sum of Mulliken charges =   0.00000

 Dipole moment (field-independent basis, Debye):
    X=              0.1543    Y=             -0.1556    Z=             -0.0560  Tot=              0.2262
 Quadrupole moment (field-independent basis, Debye-Ang):
   XX=            -30.2063   YY=            -30.2446   ZZ=            -28.9912
   XY=             -1.0451   XZ=             -1.2361   YZ=             -0.4687

 Normal termination of Gaussian 09 at Wed Aug 26 10:56:06 2020.
