 Gaussian 09, Revision D.01,
 Gaussian 09:  ES64L-G09RevD.01 24-Apr-2013

 --------------------
 #p B2PLYPD3/Def2QZVP
 --------------------

 ----------
 butane_opt
 ----------
 Symbolic Z-matrix:
 Charge =  0 Multiplicity = 1

                         Standard orientation:
 ---------------------------------------------------------------------
 Center     Atomic      Atomic             Coordinates (Angstroms)
 Number     Number       Type             X           Y           Z
 ---------------------------------------------------------------------
      1          6           0       -1.945626    0.067290   -0.155744
      2          6           0       -0.571415   -0.578281    0.257517
      3          1           0       -2.680770   -0.645976   -0.712550
      4          1           0       -1.898944    0.446805   -0.939525
      5          1           0       -2.473958    1.179001    0.964335
      6          6           0        0.542497    0.547622   -0.014752
      7          1           0       -0.512053   -1.031850   -0.442904
      8          1           0       -0.512167   -1.229275    1.391417
      9          6           0        1.977923   -0.111596   -0.125482
     10          1           0        0.505677    1.540608    0.994819
     11          1           0        0.047417    1.036223   -0.831967
     12          1           0        2.175021   -0.620400    0.789607
     13          1           0        2.893712    0.634245   -0.018988
     14          1           0        2.435790   -0.859589   -0.963479
 ---------------------------------------------------------------------

 SCF Done:  E(RB2PLYPD3) =  -157.793689307     A.U. after   11 cycles
 E2(B2PLYPD3) =    -0.2553436397D+00 E(B2PLYPD3) =    -0.15804903294690D+03

 The electronic state is 1-A.
 Alpha  occ. eigenvalues --  -10.65655 -10.63692 -10.63097 -10.62021  -0.92466
 Alpha  occ. eigenvalues --   -0.82973  -0.74972  -0.68111  -0.52695  -0.50143
 Alpha  occ. eigenvalues --   -0.46782  -0.44638  -0.41820  -0.41259  -0.37371
 Alpha  occ. eigenvalues --   -0.35816  -0.35027
 Alpha virt. eigenvalues --    0.02307   0.05474   0.06953   0.07567   0.08377
 Alpha virt. eigenvalues --    0.11135   0.11676   0.12827   0.13500   0.14862
 Alpha virt. eigenvalues --    0.15742   0.16779   0.18034   0.19015   0.19946

 Mulliken charges:
               1
     1  C   -0.254236
     2  C   -0.238884
     3  H    0.033860
     4  H    0.162455
     5  H    0.000534
     6  C   -0.051887
     7  H    0.255045
     8  H    0.047729
     9  C   -0.145283
    10  H    0.007120
    11  H    0.056468
    12  H    0.060892
    13  H    0.028227
    14  H    0.037959
 Sum of Mulliken charges =   0.00000

 Dipole moment (field-independent basis, Debye):
    X=              0.4902    Y=             -0.5738    Z=             -0.8528  Tot=              1.1388
 Quadrupole moment (field-independent basis, Debye-Ang):
   XX=            -31.3812   YY=            -30.3076   ZZ=            -28.3217
   XY=             -0.1495   XZ=              2.3102   YZ=              0.3363

 Normal termination of Gaussian 09 at Wed Aug 26 11:34:08 2020.
