 Gaussian 09, Revision D.01,
 Gaussian 09:  ES64L-G09RevD.01 24-Apr-2013

 --------------------
 #p B2PLYPD3/Def2QZVP
 --------------------

 ----------
 butane_opt
 ----------
 Symbolic Z-matrix:
 Charge =  0 Multiplicity = 1

                         Standard orientation:
 ---------------------------------------------------------------------
 Center     Atomic      Atomic             Coordinates (Angstroms)
 Number     Number       Type             X           Y           Z
 ---------------------------------------------------------------------
      1          6           0       -2.066870   -0.119851    0.090053
      2          6           0       -0.572466    0.534424   -0.202817
      3          1           0       -2.763254    0.515934    0.085412
      4          1           0       -2.127159   -0.817117    1.173964
      5          1           0       -2.143465   -0.702659   -0.833852
      6          6           0        0.678755   -0.474959   -0.014709
      7          1           0       -0.236737    1.051068    0.500016
      8          1           0       -0.693486    1.113299   -0.885127
      9          6           0        1.942165    0.090683    0.044232
     10          1           0        0.612522   -1.103469   -0.795647
     11          1           0        0.470395   -1.144865    1.016634
     12          1           0        1.991519    0.302459   -0.519961
     13          1           0        2.748299   -0.640366   -0.498087
     14          1           0        2.251863    1.243934    1.256101
 ---------------------------------------------------------------------

 SCF Done:  E(RB2PLYPD3) =  -157.389741074     A.U. after   12 cycles
 E2(B2PLYPD3) =    -0.2529576548D+00 E(B2PLYPD3) =    -0.15764269872886D+03

 The electronic state is 1-A.
 Alpha  occ. eigenvalues --  -10.61866 -10.61696 -10.61037 -10.57727  -0.97239
 Alpha  occ. eigenvalues --   -0.86957  -0.76476  -0.70703  -0.56340  -0.52205
 Alpha  occ. eigenvalues --   -0.49032  -0.47429  -0.41898  -0.40329  -0.38345
 Alpha  occ. eigenvalues --   -0.36555  -0.33955
 Alpha virt. eigenvalues --    0.01302   0.05495   0.06619   0.08573   0.10281
 Alpha virt. eigenvalues --    0.10648   0.12754   0.13108   0.14195   0.15084
 Alpha virt. eigenvalues --    0.15363   0.16801   0.18424   0.18599   0.20638

 Mulliken charges:
               1
     1  C   -0.177603
     2  C   -0.113537
     3  H    0.073583
     4  H    0.030245
     5  H    0.046194
     6  C    0.036766
     7  H    0.061792
     8  H    0.052435
     9  C   -0.802286
    10  H    0.049102
    11  H    0.024303
    12  H    0.643394
    13  H    0.054241
    14  H    0.021371
 Sum of Mulliken charges =   0.00000

 Dipole moment (field-independent basis, Debye):
    X=             -0.1603    Y=              0.2506    Z=             -1.0018  Tot=              1.0450
 Quadrupole moment (field-independent basis, Debye-Ang):
   XX=            -30.3468   YY=            -29.2345   ZZ=            -27.5998
   XY=             -0.9029   XZ=             -1.4141   YZ=              0.4600

 Normal termination of Gaussian 09 at Wed Aug 26 13:23:08 2020.
