 Gaussian 09, Revision D.01,
 Gaussian 09:  ES64L-G09RevD.01 24-Apr-2013

 --------------------
 #p B2PLYPD3/Def2QZVP
 --------------------

 ----------
 butane_opt
 ----------
 Symbolic Z-matrix:
 Charge =  0 Multiplicity = 1

                         Standard orientation:
 ---------------------------------------------------------------------
 Center     Atomic      Atomic             Coordinates (Angstroms)
 Number     Number       Type             X           Y           Z
 ---------------------------------------------------------------------
      1          6           0       -1.896117    0.037853   -0.181551
      2          6           0       -0.579431   -0.429569    0.362996
      3          1           0       -2.747148   -0.719497   -0.671302
      4          1           0       -1.445493    0.584463   -1.208153
      5          1           0       -2.431170    0.874138    0.596534
      6          6           0        0.543165    0.544976    0.063133
      7          1           0       -0.427124   -1.118136   -0.231250
      8          1           0       -0.450592   -0.975013    1.434214
      9          6           0        1.910101   -0.129967   -0.120048
     10          1           0        0.661997    1.434638    0.868798
     11          1           0        0.142132    0.969468   -0.730277
     12          1           0        2.273810   -0.260160    0.497710
     13          1           0        2.499789    0.325492   -0.333234
     14          1           0        2.057489   -1.255150   -0.970218
 ---------------------------------------------------------------------

 SCF Done:  E(RB2PLYPD3) =  -157.666449736     A.U. after   11 cycles
 E2(B2PLYPD3) =    -0.2502855966D+00 E(B2PLYPD3) =    -0.15791673533237D+03

 The electronic state is 1-A.
 Alpha  occ. eigenvalues --  -10.64877 -10.61145 -10.59673 -10.56094  -0.94902
 Alpha  occ. eigenvalues --   -0.89501  -0.75521  -0.67419  -0.54346  -0.51897
 Alpha  occ. eigenvalues --   -0.50088  -0.46387  -0.42157  -0.40891  -0.38776
 Alpha  occ. eigenvalues --   -0.37170  -0.36509
 Alpha virt. eigenvalues --    0.05380   0.06065   0.07499   0.08226   0.10542
 Alpha virt. eigenvalues --    0.11353   0.11789   0.14287   0.14331   0.15378
 Alpha virt. eigenvalues --    0.15736   0.17600   0.18589   0.19634   0.21704

 Mulliken charges:
               1
     1  C   -0.187611
     2  C   -0.078437
     3  H    0.053578
     4  H    0.029560
     5  H    0.038630
     6  C    0.019447
     7  H    0.116112
     8  H    0.014907
     9  C   -0.545098
    10  H    0.000765
    11  H    0.063635
    12  H    0.271408
    13  H    0.195288
    14  H    0.007816
 Sum of Mulliken charges =   0.00000

 Dipole moment (field-independent basis, Debye):
    X=              0.5039    Y=              0.1089    Z=              0.0042  Tot=              0.5155
 Quadrupole moment (field-independent basis, Debye-Ang):
   XX=            -28.3739   YY=            -29.3230   ZZ=            -28.7874
   XY=              1.1667   XZ=              1.1193   YZ=              0.7054

 Normal termination of Gaussian 09 at Wed Aug 26 19:58:22 2020.
