 Gaussian 09, Revision D.01,
 Gaussian 09:  ES64L-G09RevD.01 24-Apr-2013

 --------------------
 #p B2PLYPD3/Def2QZVP
 --------------------

 ----------
 butane_opt
 ----------
 Symbolic Z-matrix:
 Charge =  0 Multiplicity = 1

                         Standard orientation:
 ---------------------------------------------------------------------
 Center     Atomic      Atomic             Coordinates (Angstroms)
 Number     Number       Type             X           Y           Z
 ---------------------------------------------------------------------
      1          6           0       -1.877726    0.093600   -0.135492
      2          6           0       -0.567367   -0.433375    0.159743
      3          1           0       -2.761995   -0.829960    0.081710
      4          1           0       -2.276744    0.910989   -1.114647
      5          1           0       -1.870695    0.392949    0.491546
      6          6           0        0.502986    0.560043    0.156016
      7          1           0       -0.275909   -1.016186   -0.619775
      8          1           0       -0.389256   -1.100590    0.954376
      9          6           0        1.965758   -0.172350   -0.193465
     10          1           0        0.551964    1.477564    1.243266
     11          1           0        0.095389    0.774545   -0.427896
     12          1           0        2.191936   -0.996689    0.881883
     13          1           0        2.774295    0.883042   -0.392551
     14          1           0        1.819107   -0.783171   -1.018723
 ---------------------------------------------------------------------

 SCF Done:  E(RB2PLYPD3) =  -157.490293308     A.U. after   12 cycles
 E2(B2PLYPD3) =    -0.2545281516D+00 E(B2PLYPD3) =    -0.15774482145910D+03

 The electronic state is 1-A.
 Alpha  occ. eigenvalues --  -10.66221 -10.60126 -10.60035 -10.59426  -0.99272
 Alpha  occ. eigenvalues --   -0.86449  -0.74647  -0.70065  -0.56335  -0.50272
 Alpha  occ. eigenvalues --   -0.47313  -0.44584  -0.42782  -0.41045  -0.39609
 Alpha  occ. eigenvalues --   -0.35982  -0.34338
 Alpha virt. eigenvalues --    0.04274   0.05512   0.06969   0.07764   0.09836
 Alpha virt. eigenvalues --    0.10802   0.12342   0.13091   0.14183   0.14512
 Alpha virt. eigenvalues --    0.15281   0.15929   0.18019   0.19531   0.20546

 Mulliken charges:
               1
     1  C   -0.691264
     2  C   -0.016097
     3  H    0.048838
     4  H    0.071770
     5  H    0.515101
     6  C   -0.446931
     7  H    0.046159
     8  H    0.039102
     9  C   -0.190022
    10  H    0.005351
    11  H    0.435014
    12  H    0.034515
    13  H    0.058055
    14  H    0.090410
 Sum of Mulliken charges =   0.00000

 Dipole moment (field-independent basis, Debye):
    X=             -0.3637    Y=             -0.2337    Z=             -0.2822  Tot=              0.5163
 Quadrupole moment (field-independent basis, Debye-Ang):
   XX=            -31.1701   YY=            -29.1572   ZZ=            -28.4803
   XY=             -0.3774   XZ=             -0.3326   YZ=             -0.5340

 Normal termination of Gaussian 09 at Wed Aug 26 12:26:17 2020.
