 Gaussian 09, Revision D.01,
 Gaussian 09:  ES64L-G09RevD.01 24-Apr-2013

 --------------------
 #p B2PLYPD3/Def2QZVP
 --------------------

 ----------
 butane_opt
 ----------
 Symbolic Z-matrix:
 Charge =  0 Multiplicity = 1

                         Standard orientation:
 ---------------------------------------------------------------------
 Center     Atomic      Atomic             Coordinates (Angstroms)
 Number     Number       Type             X           Y           Z
 ---------------------------------------------------------------------
      1          6           0        2.040787    0.078680   -0.107313
      2          6           0        0.611376   -0.485432    0.161665
      3          1           0        2.751277   -0.578088    0.107921
      4          1           0        2.022627    0.620289    0.575062
      5          1           0        1.974498    0.711078   -1.143868
      6          6           0       -0.602294    0.583553   -0.002090
      7          1           0        0.380085   -1.274018    1.405359
      8          1           0        0.444305   -1.028284   -0.605816
      9          6           0       -1.967093   -0.152679   -0.131623
     10          1           0       -0.317947    1.096439   -0.829688
     11          1           0       -0.681921    1.459664    0.960790
     12          1           0       -2.479953   -1.275160   -1.103161
     13          1           0       -2.765865    0.632984    0.665900
     14          1           0       -1.823757   -0.509637    0.443667
 ---------------------------------------------------------------------

 SCF Done:  E(RB2PLYPD3) =  -157.570385410     A.U. after   12 cycles
 E2(B2PLYPD3) =    -0.2554018327D+00 E(B2PLYPD3) =    -0.15782578724260D+03

 The electronic state is 1-A.
 Alpha  occ. eigenvalues --  -10.64104 -10.63657 -10.62578 -10.58678  -0.92834
 Alpha  occ. eigenvalues --   -0.87612  -0.75879  -0.67650  -0.53209  -0.50892
 Alpha  occ. eigenvalues --   -0.46623  -0.45608  -0.43648  -0.39914  -0.38464
 Alpha  occ. eigenvalues --   -0.36057  -0.35197
 Alpha virt. eigenvalues --    0.01853   0.04410   0.06076   0.06829   0.10109
 Alpha virt. eigenvalues --    0.10949   0.12139   0.13005   0.13965   0.14799
 Alpha virt. eigenvalues --    0.15664   0.16086   0.17749   0.18591   0.19401

 Mulliken charges:
               1
     1  C   -0.222710
     2  C   -0.147419
     3  H    0.059595
     4  H    0.150294
     5  H    0.044253
     6  C    0.007975
     7  H   -0.018014
     8  H    0.122914
     9  C   -0.733038
    10  H    0.056971
    11  H    0.013439
    12  H    0.055814
    13  H    0.032262
    14  H    0.577664
 Sum of Mulliken charges =   0.00000

 Dipole moment (field-independent basis, Debye):
    X=              0.7170    Y=             -0.0240    Z=              0.0562  Tot=              0.7196
 Quadrupole moment (field-independent basis, Debye-Ang):
   XX=            -31.3352   YY=            -29.3030   ZZ=            -28.5750
   XY=              0.7743   XZ=             -0.8570   YZ=              0.8970

 Normal termination of Gaussian 09 at Wed Aug 26 23:02:06 2020.
