 Gaussian 09, Revision D.01,
 Gaussian 09:  ES64L-G09RevD.01 24-Apr-2013

 --------------------
 #p B2PLYPD3/Def2QZVP
 --------------------

 ----------
 butane_opt
 ----------
 Symbolic Z-matrix:
 Charge =  0 Multiplicity = 1

                         Standard orientation:
 ---------------------------------------------------------------------
 Center     Atomic      Atomic             Coordinates (Angstroms)
 Number     Number       Type             X           Y           Z
 ---------------------------------------------------------------------
      1          6           0       -1.998768    0.089800   -0.097453
      2          6           0       -0.612910   -0.462146    0.129982
      3          1           0       -2.838396   -0.885578   -0.174547
      4          1           0       -2.017033    0.507551   -1.025062
      5          1           0       -1.943436    0.707217    0.675052
      6          6           0        0.494285    0.596128    0.108033
      7          1           0       -0.452597   -1.074891   -0.512875
      8          1           0       -0.412569   -1.022400    1.104059
      9          6           0        2.062791   -0.169172   -0.113610
     10          1           0        0.475634    1.664457    1.155418
     11          1           0        0.606815    1.047488   -0.796459
     12          1           0        2.737119   -0.898005    0.994517
     13          1           0        2.595883    0.293099   -0.909898
     14          1           0        1.576189   -0.666602   -0.671925
 ---------------------------------------------------------------------

 SCF Done:  E(RB2PLYPD3) =  -157.840942740     A.U. after   11 cycles
 E2(B2PLYPD3) =    -0.2537742303D+00 E(B2PLYPD3) =    -0.15809471697012D+03

 The electronic state is 1-A.
 Alpha  occ. eigenvalues --  -10.65620 -10.62376 -10.60386 -10.59721  -0.92871
 Alpha  occ. eigenvalues --   -0.84748  -0.74209  -0.67813  -0.56703  -0.49433
 Alpha  occ. eigenvalues --   -0.47578  -0.46809  -0.42485  -0.41468  -0.37983
 Alpha  occ. eigenvalues --   -0.37019  -0.33816
 Alpha virt. eigenvalues --    0.04095   0.05321   0.06572   0.08238   0.09781
 Alpha virt. eigenvalues --    0.11183   0.11917   0.12115   0.14545   0.15413
 Alpha virt. eigenvalues --    0.15586   0.16549   0.17114   0.18910   0.19899

 Mulliken charges:
               1
     1  C   -0.155483
     2  C   -0.096315
     3  H    0.024494
     4  H    0.058350
     5  H    0.083070
     6  C   -0.123546
     7  H    0.093518
     8  H    0.040779
     9  C   -0.292316
    10  H   -0.000301
    11  H    0.090367
    12  H    0.048653
    13  H    0.056209
    14  H    0.172520
 Sum of Mulliken charges =   0.00000

 Dipole moment (field-independent basis, Debye):
    X=             -0.2227    Y=             -0.4261    Z=             -0.9570  Tot=              1.0710
 Quadrupole moment (field-independent basis, Debye-Ang):
   XX=            -31.7815   YY=            -29.9968   ZZ=            -27.7745
   XY=              0.2082   XZ=             -0.2848   YZ=             -0.4944

 Normal termination of Gaussian 09 at Wed Aug 26 23:50:03 2020.
