 Gaussian 09, Revision D.01,
 Gaussian 09:  ES64L-G09RevD.01 24-Apr-2013

 --------------------
 #p B2PLYPD3/Def2QZVP
 --------------------

 ----------
 butane_opt
 ----------
 Symbolic Z-matrix:
 Charge =  0 Multiplicity = 1

                         Standard orientation:
 ---------------------------------------------------------------------
 Center     Atomic      Atomic             Coordinates (Angstroms)
 Number     Number       Type             X           Y           Z
 ---------------------------------------------------------------------
      1          6           0        1.981634   -0.172453    0.101841
      2          6           0        0.546073    0.631274   -0.043438
      3          1           0        2.539720    0.341326    0.218178
      4          1           0        2.590580   -0.636646   -0.908816
      5          1           0        1.947686   -1.126474    1.067336
      6          6           0       -0.624846   -0.452176   -0.302505
      7          1           0        0.509939    1.515173   -0.716239
      8          1           0        0.276655    0.985023    0.795698
      9          6           0       -1.896385    0.095140    0.121914
     10          1           0       -0.379290   -1.015335    0.421352
     11          1           0       -0.742990   -0.932044   -1.185418
     12          1           0       -1.455758    0.467003    1.092508
     13          1           0       -2.860299   -0.982596    0.522142
     14          1           0       -2.465090    0.773853   -0.573612
 ---------------------------------------------------------------------

 SCF Done:  E(RB2PLYPD3) =  -157.814664822     A.U. after   11 cycles
 E2(B2PLYPD3) =    -0.2509175394D+00 E(B2PLYPD3) =    -0.15806558236123D+03

 The electronic state is 1-A.
 Alpha  occ. eigenvalues --  -10.63637 -10.62081 -10.61739 -10.58125  -0.93010
 Alpha  occ. eigenvalues --   -0.84891  -0.74871  -0.68056  -0.57191  -0.50607
 Alpha  occ. eigenvalues --   -0.47427  -0.45380  -0.42940  -0.40939  -0.39693
 Alpha  occ. eigenvalues --   -0.38571  -0.33433
 Alpha virt. eigenvalues --    0.04509   0.05259   0.08067   0.08940   0.09441
 Alpha virt. eigenvalues --    0.10792   0.12006   0.13177   0.14723   0.15141
 Alpha virt. eigenvalues --    0.16140   0.16723   0.18469   0.18896   0.20879

 Mulliken charges:
               1
     1  C   -0.422577
     2  C   -0.065404
     3  H    0.304429
     4  H    0.033595
     5  H    0.032201
     6  C   -0.093793
     7  H    0.028211
     8  H    0.092276
     9  C   -0.163600
    10  H    0.109104
    11  H    0.048702
    12  H    0.045526
    13  H   -0.017349
    14  H    0.068676
 Sum of Mulliken charges =   0.00000

 Dipole moment (field-independent basis, Debye):
    X=              0.7196    Y=              0.5744    Z=             -0.0493  Tot=              0.9220
 Quadrupole moment (field-independent basis, Debye-Ang):
   XX=            -30.9612   YY=            -29.1195   ZZ=            -28.7014
   XY=             -0.0081   XZ=              1.1243   YZ=             -0.5396

 Normal termination of Gaussian 09 at Wed Aug 26 22:39:54 2020.
