 Gaussian 09, Revision D.01,
 Gaussian 09:  ES64L-G09RevD.01 24-Apr-2013

 --------------------
 #p B2PLYPD3/Def2QZVP
 --------------------

 ----------
 butane_opt
 ----------
 Symbolic Z-matrix:
 Charge =  0 Multiplicity = 1

                         Standard orientation:
 ---------------------------------------------------------------------
 Center     Atomic      Atomic             Coordinates (Angstroms)
 Number     Number       Type             X           Y           Z
 ---------------------------------------------------------------------
      1          6           0        2.002304   -0.227040   -0.131869
      2          6           0        0.548966    0.569868   -0.024747
      3          1           0        2.716695    0.552161   -0.064157
      4          1           0        2.147650   -1.111989   -0.804088
      5          1           0        1.914882   -0.479615    0.641226
      6          6           0       -0.575231   -0.304871    0.400207
      7          1           0        0.067254    0.581794   -0.828201
      8          1           0        0.296370    1.718722    0.641125
      9          6           0       -1.912951   -0.000060   -0.232019
     10          1           0       -0.743679   -0.871127    1.659112
     11          1           0       -0.420904   -0.864083   -0.149080
     12          1           0       -2.152955    1.023525    0.506698
     13          1           0       -2.614439   -0.988406   -0.514522
     14          1           0       -1.589397    0.211635   -1.157549
 ---------------------------------------------------------------------

 SCF Done:  E(RB2PLYPD3) =  -157.719309990     A.U. after   11 cycles
 E2(B2PLYPD3) =    -0.2535356560D+00 E(B2PLYPD3) =    -0.15797284564564D+03

 The electronic state is 1-A.
 Alpha  occ. eigenvalues --  -10.62934 -10.62517 -10.59391 -10.58813  -0.97263
 Alpha  occ. eigenvalues --   -0.85917  -0.75794  -0.67180  -0.55726  -0.51342
 Alpha  occ. eigenvalues --   -0.49894  -0.47104  -0.43264  -0.41074  -0.38626
 Alpha  occ. eigenvalues --   -0.36850  -0.33578
 Alpha virt. eigenvalues --    0.04430   0.06409   0.07478   0.07951   0.10712
 Alpha virt. eigenvalues --    0.11415   0.11873   0.13935   0.14417   0.14571
 Alpha virt. eigenvalues --    0.15689   0.16009   0.17868   0.18947   0.19584

 Mulliken charges:
               1
     1  C   -0.363922
     2  C   -0.115557
     3  H    0.065757
     4  H    0.060996
     5  H    0.271355
     6  C   -0.414818
     7  H    0.117726
     8  H    0.011748
     9  C   -0.158502
    10  H   -0.007025
    11  H    0.372301
    12  H    0.042567
    13  H    0.048520
    14  H    0.068853
 Sum of Mulliken charges =   0.00000

 Dipole moment (field-independent basis, Debye):
    X=              0.4250    Y=             -0.6164    Z=             -0.6468  Tot=              0.9893
 Quadrupole moment (field-independent basis, Debye-Ang):
   XX=            -30.3004   YY=            -29.1700   ZZ=            -29.0281
   XY=              0.2837   XZ=              0.7685   YZ=              1.8603

 Normal termination of Gaussian 09 at Wed Aug 26 13:48:46 2020.
