 Gaussian 09, Revision D.01,
 Gaussian 09:  ES64L-G09RevD.01 24-Apr-2013

 --------------------
 #p B2PLYPD3/Def2QZVP
 --------------------

 ----------
 butane_opt
 ----------
 Symbolic Z-matrix:
 Charge =  0 Multiplicity = 1

                         Standard orientation:
 ---------------------------------------------------------------------
 Center     Atomic      Atomic             Coordinates (Angstroms)
 Number     Number       Type             X           Y           Z
 ---------------------------------------------------------------------
      1          6           0       -1.996873    0.176246   -0.088648
      2          6           0       -0.562770   -0.607984    0.034976
      3          1           0       -2.715816   -0.610287   -0.131608
      4          1           0       -2.260880    1.226225   -1.069699
      5          1           0       -2.439037    0.442381    0.603450
      6          6           0        0.605905    0.411039    0.373067
      7          1           0       -0.325476   -0.858706   -0.867010
      8          1           0       -0.393501   -1.302265    0.795452
      9          6           0        1.985994   -0.106119   -0.214083
     10          1           0        0.496934    0.946079    1.448139
     11          1           0        0.510835    1.250102   -0.329863
     12          1           0        2.612349   -0.892061    0.558205
     13          1           0        3.029375    0.995528   -0.526479
     14          1           0        1.291681   -0.436095   -1.112459
 ---------------------------------------------------------------------

 SCF Done:  E(RB2PLYPD3) =  -157.841005021     A.U. after   11 cycles
 E2(B2PLYPD3) =    -0.2559695144D+00 E(B2PLYPD3) =    -0.15809697453564D+03

 The electronic state is 1-A.
 Alpha  occ. eigenvalues --  -10.67365 -10.62636 -10.61737 -10.61693  -0.91259
 Alpha  occ. eigenvalues --   -0.83342  -0.74604  -0.64997  -0.56084  -0.49805
 Alpha  occ. eigenvalues --   -0.46000  -0.44756  -0.41673  -0.39899  -0.37965
 Alpha  occ. eigenvalues --   -0.36662  -0.34152
 Alpha virt. eigenvalues --    0.03468   0.04556   0.07598   0.08396   0.08897
 Alpha virt. eigenvalues --    0.09975   0.11623   0.13332   0.13837   0.14708
 Alpha virt. eigenvalues --    0.15923   0.16281   0.17448   0.19177   0.20568

 Mulliken charges:
               1
     1  C   -0.227463
     2  C   -0.082841
     3  H    0.032340
     4  H    0.029378
     5  H    0.114822
     6  C   -0.080913
     7  H    0.097451
     8  H    0.067640
     9  C   -0.181376
    10  H    0.023999
    11  H    0.067679
    12  H    0.051188
    13  H    0.013340
    14  H    0.074757
 Sum of Mulliken charges =   0.00000

 Dipole moment (field-independent basis, Debye):
    X=             -0.7930    Y=             -0.3716    Z=              0.4564  Tot=              0.9875
 Quadrupole moment (field-independent basis, Debye-Ang):
   XX=            -30.8300   YY=            -29.7689   ZZ=            -29.4901
   XY=             -0.0327   XZ=             -0.0119   YZ=             -1.0370

 Normal termination of Gaussian 09 at Wed Aug 26 20:15:15 2020.
