 Gaussian 09, Revision D.01,
 Gaussian 09:  ES64L-G09RevD.01 24-Apr-2013

 --------------------
 #p B2PLYPD3/Def2QZVP
 --------------------

 ----------
 butane_opt
 ----------
 Symbolic Z-matrix:
 Charge =  0 Multiplicity = 1

                         Standard orientation:
 ---------------------------------------------------------------------
 Center     Atomic      Atomic             Coordinates (Angstroms)
 Number     Number       Type             X           Y           Z
 ---------------------------------------------------------------------
      1          6           0        1.968471    0.024121   -0.214551
      2          6           0        0.630612   -0.339092    0.282246
      3          1           0        2.856396   -1.037971   -0.683630
      4          1           0        2.773598    1.101921    0.533321
      5          1           0        1.258751    0.293820   -1.074526
      6          6           0       -0.570244    0.578554    0.044373
      7          1           0        0.929574   -1.218676    1.804043
      8          1           0        0.516406   -0.739089   -0.326829
      9          6           0       -2.006809   -0.230153   -0.078763
     10          1           0       -0.423163    0.991437   -0.838435
     11          1           0       -0.533140    1.611623    0.906342
     12          1           0       -2.195333   -1.117860   -0.894192
     13          1           0       -2.846787    0.336919   -0.201343
     14          1           0       -2.468484   -0.422709    0.575421
 ---------------------------------------------------------------------

 SCF Done:  E(RB2PLYPD3) =  -157.499871720     A.U. after   12 cycles
 E2(B2PLYPD3) =    -0.2610237940D+00 E(B2PLYPD3) =    -0.15776089551389D+03

 The electronic state is 1-A.
 Alpha  occ. eigenvalues --  -10.69014 -10.66148 -10.63842 -10.59807  -0.99027
 Alpha  occ. eigenvalues --   -0.88109  -0.77312  -0.66764  -0.54385  -0.50509
 Alpha  occ. eigenvalues --   -0.47502  -0.46711  -0.42727  -0.40722  -0.40164
 Alpha  occ. eigenvalues --   -0.35535  -0.30167
 Alpha virt. eigenvalues --    0.00972   0.03497   0.05658   0.06825   0.07457
 Alpha virt. eigenvalues --    0.09352   0.11178   0.13161   0.13620   0.14951
 Alpha virt. eigenvalues --    0.15491   0.16089   0.17186   0.19175   0.19932

 Mulliken charges:
               1
     1  C   -0.130483
     2  C   -0.582208
     3  H    0.060758
     4  H    0.030956
     5  H    0.036387
     6  C   -0.060466
     7  H   -0.070494
     8  H    0.600839
     9  C   -0.236045
    10  H    0.101910
    11  H    0.019589
    12  H    0.028438
    13  H    0.037222
    14  H    0.163598
 Sum of Mulliken charges =   0.00000

 Dipole moment (field-independent basis, Debye):
    X=             -0.9534    Y=              0.3952    Z=             -1.2369  Tot=              1.6109
 Quadrupole moment (field-independent basis, Debye-Ang):
   XX=            -27.8524   YY=            -30.9038   ZZ=            -31.3730
   XY=             -0.3977   XZ=             -0.7005   YZ=              2.3085

 Normal termination of Gaussian 09 at Wed Aug 26 12:40:29 2020.
