 Gaussian 09, Revision D.01,
 Gaussian 09:  ES64L-G09RevD.01 24-Apr-2013

 --------------------
 #p B2PLYPD3/Def2QZVP
 --------------------

 ----------
 butane_opt
 ----------
 Symbolic Z-matrix:
 Charge =  0 Multiplicity = 1

                         Standard orientation:
 ---------------------------------------------------------------------
 Center     Atomic      Atomic             Coordinates (Angstroms)
 Number     Number       Type             X           Y           Z
 ---------------------------------------------------------------------
      1          6           0       -1.834829   -0.001406   -0.230910
      2          6           0       -0.579634   -0.442591    0.367759
      3          1           0       -2.684231   -0.867442   -0.711195
      4          1           0       -1.585609    0.266097   -0.971320
      5          1           0       -2.443707    1.405430    0.727941
      6          6           0        0.502675    0.585089    0.049502
      7          1           0       -0.278628   -1.044044   -0.226941
      8          1           0       -0.666036   -0.927398    1.393911
      9          6           0        1.943869   -0.133784   -0.066285
     10          1           0        0.416077    1.117692    0.721716
     11          1           0        0.370470    1.134283   -1.057335
     12          1           0        2.075585   -0.302380    0.732893
     13          1           0        2.613308    0.396251   -0.364271
     14          1           0        1.990290   -1.222341   -0.965796
 ---------------------------------------------------------------------

 SCF Done:  E(RB2PLYPD3) =  -157.647466261     A.U. after   12 cycles
 E2(B2PLYPD3) =    -0.2525716131D+00 E(B2PLYPD3) =    -0.15790003787450D+03

 The electronic state is 1-A.
 Alpha  occ. eigenvalues --  -10.64168 -10.60904 -10.59371 -10.59008  -0.95686
 Alpha  occ. eigenvalues --   -0.87035  -0.77026  -0.70548  -0.57303  -0.54840
 Alpha  occ. eigenvalues --   -0.48530  -0.46392  -0.44820  -0.41428  -0.38530
 Alpha  occ. eigenvalues --   -0.37093  -0.32470
 Alpha virt. eigenvalues --    0.00966   0.05001   0.07472   0.07656   0.09293
 Alpha virt. eigenvalues --    0.10471   0.11735   0.13207   0.13717   0.14982
 Alpha virt. eigenvalues --    0.15925   0.17131   0.18418   0.18972   0.20220

 Mulliken charges:
               1
     1  C   -0.288499
     2  C   -0.128578
     3  H    0.037355
     4  H    0.231192
     5  H   -0.058157
     6  C   -0.155870
     7  H    0.155051
     8  H    0.043359
     9  C   -0.275378
    10  H    0.151191
    11  H    0.024674
    12  H    0.183769
    13  H    0.075074
    14  H    0.004816
 Sum of Mulliken charges =   0.00000

 Dipole moment (field-independent basis, Debye):
    X=              1.2396    Y=             -0.4942    Z=             -0.3062  Tot=              1.3692
 Quadrupole moment (field-independent basis, Debye-Ang):
   XX=            -32.3932   YY=            -30.0026   ZZ=            -27.5327
   XY=              2.5434   XZ=              1.5662   YZ=              0.3257

 Normal termination of Gaussian 09 at Wed Aug 26 12:12:51 2020.
