 Gaussian 09, Revision D.01,
 Gaussian 09:  ES64L-G09RevD.01 24-Apr-2013

 --------------------
 #p B2PLYPD3/Def2QZVP
 --------------------

 ----------
 butane_opt
 ----------
 Symbolic Z-matrix:
 Charge =  0 Multiplicity = 1

                         Standard orientation:
 ---------------------------------------------------------------------
 Center     Atomic      Atomic             Coordinates (Angstroms)
 Number     Number       Type             X           Y           Z
 ---------------------------------------------------------------------
      1          6           0       -1.845858    0.111379   -0.245962
      2          6           0       -0.626358   -0.457060    0.213455
      3          1           0       -2.637748   -0.621837    0.156044
      4          1           0       -1.926156    0.850499   -1.181067
      5          1           0       -2.133706    0.504754    0.515309
      6          6           0        0.498375    0.557811    0.199679
      7          1           0       -0.603223   -1.162714   -0.727663
      8          1           0       -0.602959   -1.312723    1.259048
      9          6           0        1.948045   -0.172502   -0.200404
     10          1           0        0.615930    1.569216    1.169068
     11          1           0        0.183660    0.840728   -0.377273
     12          1           0        2.388633   -0.693333    0.695110
     13          1           0        2.864144    0.474790   -0.355295
     14          1           0        2.006194   -0.687147   -0.953890
 ---------------------------------------------------------------------

 SCF Done:  E(RB2PLYPD3) =  -157.684289607     A.U. after   11 cycles
 E2(B2PLYPD3) =    -0.2528554876D+00 E(B2PLYPD3) =    -0.15793714509491D+03

 The electronic state is 1-A.
 Alpha  occ. eigenvalues --  -10.63621 -10.60920 -10.59462 -10.59164  -0.95857
 Alpha  occ. eigenvalues --   -0.85438  -0.77920  -0.66689  -0.55149  -0.50494
 Alpha  occ. eigenvalues --   -0.48734  -0.47885  -0.42384  -0.40723  -0.39179
 Alpha  occ. eigenvalues --   -0.35343  -0.33245
 Alpha virt. eigenvalues --    0.05031   0.06229   0.06883   0.07295   0.10459
 Alpha virt. eigenvalues --    0.11903   0.12427   0.14002   0.14358   0.14719
 Alpha virt. eigenvalues --    0.15649   0.16052   0.18512   0.19926   0.22098

 Mulliken charges:
               1
     1  C   -0.228075
     2  C   -0.027975
     3  H    0.046637
     4  H    0.067973
     5  H    0.112784
     6  C   -0.573937
     7  H    0.031386
     8  H    0.010813
     9  C   -0.121062
    10  H    0.029589
    11  H    0.509979
    12  H    0.038254
    13  H    0.012138
    14  H    0.091496
 Sum of Mulliken charges =   0.00000

 Dipole moment (field-independent basis, Debye):
    X=             -0.3740    Y=              0.2229    Z=             -0.2458  Tot=              0.5000
 Quadrupole moment (field-independent basis, Debye-Ang):
   XX=            -28.6335   YY=            -29.7090   ZZ=            -28.1918
   XY=             -0.6189   XZ=             -0.6389   YZ=             -0.4694

 Normal termination of Gaussian 09 at Wed Aug 26 22:47:32 2020.
