 Gaussian 09, Revision D.01,
 Gaussian 09:  ES64L-G09RevD.01 24-Apr-2013

 --------------------
 #p B2PLYPD3/Def2QZVP
 --------------------

 ----------
 butane_opt
 ----------
 Symbolic Z-matrix:
 Charge =  0 Multiplicity = 1

                         Standard orientation:
 ---------------------------------------------------------------------
 Center     Atomic      Atomic             Coordinates (Angstroms)
 Number     Number       Type             X           Y           Z
 ---------------------------------------------------------------------
      1          6           0       -1.918995    0.151789   -0.161969
      2          6           0       -0.485375   -0.542819    0.242400
      3          1           0       -2.636920   -0.556156   -0.312146
      4          1           0       -1.935910    0.896969   -1.109134
      5          1           0       -2.440235    0.756936    0.740091
      6          6           0        0.533691    0.400781    0.075855
      7          1           0       -0.390220   -0.915254   -0.423018
      8          1           0       -0.281266   -1.448206    1.262491
      9          6           0        1.899537   -0.103504   -0.197304
     10          1           0        0.628878    1.570926    1.309863
     11          1           0        0.462764    0.815079   -0.692542
     12          1           0        1.963680   -0.536936    0.539634
     13          1           0        2.824408    0.954919    0.045373
     14          1           0        1.631674   -0.975756   -1.114504
 ---------------------------------------------------------------------

 SCF Done:  E(RB2PLYPD3) =  -157.632673756     A.U. after   12 cycles
 E2(B2PLYPD3) =    -0.2556332247D+00 E(B2PLYPD3) =    -0.15788830698103D+03

 The electronic state is 1-A.
 Alpha  occ. eigenvalues --  -10.63137 -10.62508 -10.62157 -10.61444  -0.98131
 Alpha  occ. eigenvalues --   -0.85289  -0.75360  -0.69871  -0.56884  -0.48937
 Alpha  occ. eigenvalues --   -0.48252  -0.46262  -0.43043  -0.40787  -0.39442
 Alpha  occ. eigenvalues --   -0.37334  -0.31797
 Alpha virt. eigenvalues --    0.02370   0.04381   0.05844   0.06551   0.09890
 Alpha virt. eigenvalues --    0.11004   0.11740   0.12884   0.13432   0.14624
 Alpha virt. eigenvalues --    0.15098   0.15768   0.17897   0.19373   0.20873

 Mulliken charges:
               1
     1  C   -0.119585
     2  C   -0.449342
     3  H    0.059838
     4  H    0.042789
     5  H    0.039317
     6  C   -0.135547
     7  H    0.411004
     8  H    0.041741
     9  C   -0.273980
    10  H   -0.089072
    11  H    0.192643
    12  H    0.188867
    13  H    0.060027
    14  H    0.031300
 Sum of Mulliken charges =   0.00000

 Dipole moment (field-independent basis, Debye):
    X=             -0.4017    Y=             -0.9435    Z=             -0.8388  Tot=              1.3248
 Quadrupole moment (field-independent basis, Debye-Ang):
   XX=            -29.9717   YY=            -30.2659   ZZ=            -29.5789
   XY=              0.3078   XZ=              1.1002   YZ=             -0.9626

 Normal termination of Gaussian 09 at Wed Aug 26 15:00:34 2020.
