 Gaussian 09, Revision D.01,
 Gaussian 09:  ES64L-G09RevD.01 24-Apr-2013

 --------------------
 #p B2PLYPD3/Def2QZVP
 --------------------

 ----------
 butane_opt
 ----------
 Symbolic Z-matrix:
 Charge =  0 Multiplicity = 1

                         Standard orientation:
 ---------------------------------------------------------------------
 Center     Atomic      Atomic             Coordinates (Angstroms)
 Number     Number       Type             X           Y           Z
 ---------------------------------------------------------------------
      1          6           0        1.949357    0.097930   -0.014297
      2          6           0        0.620761   -0.488679    0.048567
      3          1           0        2.703410   -0.653954   -0.434562
      4          1           0        2.491560    1.050065    1.049002
      5          1           0        1.728317    0.419315   -0.657041
      6          6           0       -0.545144    0.498064   -0.074262
      7          1           0        0.564003   -1.000748    0.970714
      8          1           0        0.510305   -1.212054   -0.811385
      9          6           0       -2.016919   -0.139851    0.059781
     10          1           0       -0.538934    1.253849   -1.122953
     11          1           0       -0.469493    1.209012    0.795699
     12          1           0       -2.080034   -0.717794   -0.810379
     13          1           0       -2.783015    0.591501   -0.122649
     14          1           0       -2.174446   -0.743978    1.024821
 ---------------------------------------------------------------------

 SCF Done:  E(RB2PLYPD3) =  -157.853601949     A.U. after   11 cycles
 E2(B2PLYPD3) =    -0.2504743624D+00 E(B2PLYPD3) =    -0.15810407631094D+03

 The electronic state is 1-A.
 Alpha  occ. eigenvalues --  -10.63637 -10.61115 -10.60700 -10.59730  -0.94498
 Alpha  occ. eigenvalues --   -0.84628  -0.73949  -0.65709  -0.54311  -0.50315
 Alpha  occ. eigenvalues --   -0.48711  -0.47113  -0.41692  -0.40517  -0.38769
 Alpha  occ. eigenvalues --   -0.36994  -0.36078
 Alpha virt. eigenvalues --    0.04789   0.05804   0.07412   0.07680   0.10115
 Alpha virt. eigenvalues --    0.11275   0.12400   0.12919   0.14320   0.15357
 Alpha virt. eigenvalues --    0.15759   0.16384   0.18709   0.19355   0.20901

 Mulliken charges:
               1
     1  C   -0.516195
     2  C   -0.007312
     3  H    0.060638
     4  H    0.025415
     5  H    0.388308
     6  C   -0.067140
     7  H    0.039936
     8  H    0.028165
     9  C   -0.143812
    10  H    0.001875
    11  H    0.038817
    12  H    0.048669
    13  H    0.051792
    14  H    0.050844
 Sum of Mulliken charges =   0.00000

 Dipole moment (field-independent basis, Debye):
    X=             -0.3461    Y=             -0.2802    Z=             -0.3260  Tot=              0.5519
 Quadrupole moment (field-independent basis, Debye-Ang):
   XX=            -30.2760   YY=            -29.6596   ZZ=            -28.0340
   XY=             -0.8140   XZ=             -0.3902   YZ=              0.3696

 Normal termination of Gaussian 09 at Wed Aug 26 22:50:06 2020.
