 Gaussian 09, Revision D.01,
 Gaussian 09:  ES64L-G09RevD.01 24-Apr-2013

 --------------------
 #p B2PLYPD3/Def2QZVP
 --------------------

 ----------
 butane_opt
 ----------
 Symbolic Z-matrix:
 Charge =  0 Multiplicity = 1

                         Standard orientation:
 ---------------------------------------------------------------------
 Center     Atomic      Atomic             Coordinates (Angstroms)
 Number     Number       Type             X           Y           Z
 ---------------------------------------------------------------------
      1          6           0        2.051506   -0.162060    0.042093
      2          6           0        0.560396    0.595373   -0.244767
      3          1           0        2.905479    0.554343    0.800036
      4          1           0        2.457199   -1.018929   -0.866432
      5          1           0        1.688078   -0.763313    1.084316
      6          6           0       -0.604159   -0.511879   -0.015806
      7          1           0        0.527675    1.158494   -1.121391
      8          1           0        0.359015    1.265684    0.708535
      9          6           0       -1.956301    0.093831    0.056880
     10          1           0       -0.656797   -0.985326    0.742138
     11          1           0       -0.739981   -1.084768   -0.885160
     12          1           0       -1.935440    0.929872    1.077994
     13          1           0       -2.742876   -0.671402    0.162455
     14          1           0       -2.171001    0.523753   -0.732890
 ---------------------------------------------------------------------

 SCF Done:  E(RB2PLYPD3) =  -157.923757116     A.U. after   11 cycles
 E2(B2PLYPD3) =    -0.2525681675D+00 E(B2PLYPD3) =    -0.15817632528335D+03

 The electronic state is 1-A.
 Alpha  occ. eigenvalues --  -10.67155 -10.63816 -10.59933 -10.58366  -0.91754
 Alpha  occ. eigenvalues --   -0.80910  -0.71167  -0.67570  -0.55591  -0.50666
 Alpha  occ. eigenvalues --   -0.46693  -0.44982  -0.42767  -0.39805  -0.37651
 Alpha  occ. eigenvalues --   -0.36793  -0.34952
 Alpha virt. eigenvalues --    0.04480   0.05806   0.08125   0.08679   0.09780
 Alpha virt. eigenvalues --    0.10902   0.11080   0.12824   0.13988   0.14410
 Alpha virt. eigenvalues --    0.15432   0.16998   0.18461   0.18931   0.19933

 Mulliken charges:
               1
     1  C   -0.211859
     2  C   -0.053677
     3  H    0.046739
     4  H    0.065136
     5  H    0.028519
     6  C   -0.085807
     7  H    0.070091
     8  H    0.035982
     9  C   -0.148857
    10  H    0.121394
    11  H    0.020944
    12  H   -0.001676
    13  H    0.040946
    14  H    0.072124
 Sum of Mulliken charges =   0.00000

 Dipole moment (field-independent basis, Debye):
    X=             -0.4802    Y=             -0.2629    Z=             -0.2938  Tot=              0.6213
 Quadrupole moment (field-independent basis, Debye-Ang):
   XX=            -31.6357   YY=            -29.8119   ZZ=            -27.8159
   XY=              0.8687   XZ=              0.9033   YZ=              0.2421

 Normal termination of Gaussian 09 at Wed Aug 26 23:27:00 2020.
