 Gaussian 09, Revision D.01,
 Gaussian 09:  ES64L-G09RevD.01 24-Apr-2013

 --------------------
 #p B2PLYPD3/Def2QZVP
 --------------------

 ----------
 butane_opt
 ----------
 Symbolic Z-matrix:
 Charge =  0 Multiplicity = 1

                         Standard orientation:
 ---------------------------------------------------------------------
 Center     Atomic      Atomic             Coordinates (Angstroms)
 Number     Number       Type             X           Y           Z
 ---------------------------------------------------------------------
      1          6           0        1.977712    0.107904   -0.011176
      2          6           0        0.590817   -0.479997   -0.028590
      3          1           0        2.805769   -0.667841   -0.080867
      4          1           0        2.018838    0.703355    0.829020
      5          1           0        1.905911    0.770341   -0.895041
      6          6           0       -0.596816    0.543606    0.099996
      7          1           0        0.579499   -1.309608    0.907277
      8          1           0        0.407368   -1.087286   -0.952088
      9          6           0       -1.959045   -0.151432   -0.014924
     10          1           0       -0.453454    1.183706   -0.719398
     11          1           0       -0.366859    1.241852    0.948070
     12          1           0       -1.936857   -0.603467   -0.830539
     13          1           0       -2.718366    0.539430   -0.399625
     14          1           0       -2.317857   -0.890960    0.921350
 ---------------------------------------------------------------------

 SCF Done:  E(RB2PLYPD3) =  -158.057093691     A.U. after   11 cycles
 E2(B2PLYPD3) =    -0.2479264151D+00 E(B2PLYPD3) =    -0.15830502010609D+03

 The electronic state is 1-A.
 Alpha  occ. eigenvalues --  -10.62129 -10.61160 -10.60041 -10.59845  -0.90970
 Alpha  occ. eigenvalues --   -0.84304  -0.73327  -0.65689  -0.53313  -0.49822
 Alpha  occ. eigenvalues --   -0.48360  -0.47944  -0.43156  -0.40963  -0.39725
 Alpha  occ. eigenvalues --   -0.37240  -0.35747
 Alpha virt. eigenvalues --    0.05679   0.06730   0.07920   0.08653   0.10760
 Alpha virt. eigenvalues --    0.11869   0.12905   0.13273   0.14866   0.15366
 Alpha virt. eigenvalues --    0.15781   0.16561   0.19276   0.19800   0.21078

 Mulliken charges:
               1
     1  C   -0.157364
     2  C   -0.039744
     3  H    0.056737
     4  H    0.063221
     5  H    0.036929
     6  C   -0.030598
     7  H   -0.008301
     8  H    0.030464
     9  C   -0.178812
    10  H    0.037229
    11  H    0.026061
    12  H    0.083263
    13  H    0.031419
    14  H    0.049497
 Sum of Mulliken charges =   0.00000

 Dipole moment (field-independent basis, Debye):
    X=             -0.0284    Y=              0.1747    Z=             -0.4237  Tot=              0.4592
 Quadrupole moment (field-independent basis, Debye-Ang):
   XX=            -29.7066   YY=            -29.2862   ZZ=            -28.2509
   XY=             -0.2492   XZ=              1.0446   YZ=             -0.0792

 Normal termination of Gaussian 09 at Wed Aug 26 20:40:00 2020.
