 Gaussian 09, Revision D.01,
 Gaussian 09:  ES64L-G09RevD.01 24-Apr-2013

 --------------------
 #p B2PLYPD3/Def2QZVP
 --------------------

 ----------
 butane_opt
 ----------
 Symbolic Z-matrix:
 Charge =  0 Multiplicity = 1

                         Standard orientation:
 ---------------------------------------------------------------------
 Center     Atomic      Atomic             Coordinates (Angstroms)
 Number     Number       Type             X           Y           Z
 ---------------------------------------------------------------------
      1          6           0       -1.954162   -0.065910    0.132278
      2          6           0       -0.619628    0.422707   -0.096020
      3          1           0       -2.885464    0.835121   -0.278593
      4          1           0       -2.105436   -0.821788    0.960416
      5          1           0       -1.857878   -0.769293   -0.756062
      6          6           0        0.545286   -0.555796    0.038764
      7          1           0       -0.632502    1.049220    0.756865
      8          1           0       -0.862299    1.174977   -1.261022
      9          6           0        2.016952    0.152724   -0.008671
     10          1           0        0.379833   -1.206699   -0.696466
     11          1           0        0.483758   -1.059103    0.960234
     12          1           0        1.993889    0.315662   -0.603816
     13          1           0        2.814445   -0.607472   -0.616231
     14          1           0        2.740966    1.367024    1.136566
 ---------------------------------------------------------------------

 SCF Done:  E(RB2PLYPD3) =  -157.405819787     A.U. after   13 cycles
 E2(B2PLYPD3) =    -0.2589027255D+00 E(B2PLYPD3) =    -0.15766472251285D+03

 The electronic state is 1-A.
 Alpha  occ. eigenvalues --  -10.64006 -10.63144 -10.62958 -10.62099  -0.94183
 Alpha  occ. eigenvalues --   -0.88788  -0.77247  -0.65305  -0.55463  -0.50033
 Alpha  occ. eigenvalues --   -0.47724  -0.46549  -0.41590  -0.38621  -0.36863
 Alpha  occ. eigenvalues --   -0.35824  -0.33931
 Alpha virt. eigenvalues --   -0.01242   0.03981   0.06283   0.06865   0.09566
 Alpha virt. eigenvalues --    0.09836   0.11255   0.12307   0.13796   0.15225
 Alpha virt. eigenvalues --    0.15579   0.16472   0.18180   0.18546   0.19696

 Mulliken charges:
               1
     1  C   -0.175101
     2  C   -0.052919
     3  H    0.055722
     4  H    0.058736
     5  H    0.018725
     6  C   -0.012894
     7  H    0.051798
     8  H    0.007712
     9  C   -0.840461
    10  H    0.068339
    11  H    0.052748
    12  H    0.681003
    13  H    0.039276
    14  H    0.047315
 Sum of Mulliken charges =   0.00000

 Dipole moment (field-independent basis, Debye):
    X=             -0.1982    Y=             -0.3307    Z=             -0.3258  Tot=              0.5047
 Quadrupole moment (field-independent basis, Debye-Ang):
   XX=            -31.8578   YY=            -29.7466   ZZ=            -28.3452
   XY=             -0.1172   XZ=             -1.0049   YZ=              0.3612

 Normal termination of Gaussian 09 at Wed Aug 26 21:51:51 2020.
