 Gaussian 09, Revision D.01,
 Gaussian 09:  ES64L-G09RevD.01 24-Apr-2013

 --------------------
 #p B2PLYPD3/Def2QZVP
 --------------------

 ----------
 butane_opt
 ----------
 Symbolic Z-matrix:
 Charge =  0 Multiplicity = 1

                         Standard orientation:
 ---------------------------------------------------------------------
 Center     Atomic      Atomic             Coordinates (Angstroms)
 Number     Number       Type             X           Y           Z
 ---------------------------------------------------------------------
      1          6           0       -1.963654   -0.129600   -0.116323
      2          6           0       -0.454007    0.580458    0.168315
      3          1           0       -2.409102    0.295473   -0.757166
      4          1           0       -2.626132   -0.808575    0.998374
      5          1           0       -1.722987   -0.730011   -0.880145
      6          6           0        0.542415   -0.431334    0.107147
      7          1           0       -0.575622    1.447507    1.124995
      8          1           0       -0.038019    1.004004   -0.590347
      9          6           0        1.840958    0.074586   -0.167221
     10          1           0        0.374587   -1.031373   -0.784231
     11          1           0        0.753125   -1.078581    1.047158
     12          1           0        1.943422    0.587975   -1.105882
     13          1           0        2.712489   -0.715787    0.392777
     14          1           0        1.793970    0.464714    0.602962
 ---------------------------------------------------------------------

 SCF Done:  E(RB2PLYPD3) =  -157.796687632     A.U. after   11 cycles
 E2(B2PLYPD3) =    -0.2531945433D+00 E(B2PLYPD3) =    -0.15804988217519D+03

 The electronic state is 1-A.
 Alpha  occ. eigenvalues --  -10.62047 -10.60917 -10.60089 -10.58189  -0.97267
 Alpha  occ. eigenvalues --   -0.85850  -0.77238  -0.65842  -0.58965  -0.51359
 Alpha  occ. eigenvalues --   -0.48206  -0.45897  -0.42841  -0.39714  -0.38774
 Alpha  occ. eigenvalues --   -0.35623  -0.34465
 Alpha virt. eigenvalues --    0.04705   0.05478   0.07329   0.08096   0.10080
 Alpha virt. eigenvalues --    0.10695   0.12382   0.13569   0.14332   0.15281
 Alpha virt. eigenvalues --    0.16282   0.16382   0.18523   0.19345   0.20709

 Mulliken charges:
               1
     1  C   -0.248982
     2  C   -0.114875
     3  H    0.112036
     4  H    0.057206
     5  H    0.069629
     6  C   -0.028773
     7  H    0.024342
     8  H    0.095079
     9  C   -0.310345
    10  H    0.046981
    11  H    0.021195
    12  H    0.067104
    13  H    0.026718
    14  H    0.182687
 Sum of Mulliken charges =   0.00000

 Dipole moment (field-independent basis, Debye):
    X=              0.0014    Y=              0.1440    Z=             -0.4585  Tot=              0.4806
 Quadrupole moment (field-independent basis, Debye-Ang):
   XX=            -31.2416   YY=            -30.4253   ZZ=            -26.7509
   XY=              0.3831   XZ=              0.9480   YZ=             -0.6736

 Normal termination of Gaussian 09 at Wed Aug 26 22:22:37 2020.
