 Gaussian 09, Revision D.01,
 Gaussian 09:  ES64L-G09RevD.01 24-Apr-2013

 --------------------
 #p B2PLYPD3/Def2QZVP
 --------------------

 ----------
 butane_opt
 ----------
 Symbolic Z-matrix:
 Charge =  0 Multiplicity = 1

                         Standard orientation:
 ---------------------------------------------------------------------
 Center     Atomic      Atomic             Coordinates (Angstroms)
 Number     Number       Type             X           Y           Z
 ---------------------------------------------------------------------
      1          6           0        1.891092    0.126036   -0.160238
      2          6           0        0.595087   -0.513384    0.295285
      3          1           0        2.506475   -0.795351   -0.857653
      4          1           0        2.546609    0.883833    0.631241
      5          1           0        1.305354    0.328038   -0.773444
      6          6           0       -0.544453    0.588405    0.000631
      7          1           0        0.459173   -1.136147    1.552085
      8          1           0        0.556169   -0.915935   -0.319209
      9          6           0       -1.951106   -0.126956   -0.159905
     10          1           0       -0.116276    0.877317   -0.665885
     11          1           0       -0.552153    1.558063    0.904729
     12          1           0       -1.811532   -1.072693   -1.024594
     13          1           0       -2.610991    0.464914   -0.080492
     14          1           0       -2.226545   -0.636645    0.778584
 ---------------------------------------------------------------------

 SCF Done:  E(RB2PLYPD3) =  -157.598285298     A.U. after   11 cycles
 E2(B2PLYPD3) =    -0.2535254245D+00 E(B2PLYPD3) =    -0.15785181072218D+03

 The electronic state is 1-A.
 Alpha  occ. eigenvalues --  -10.61931 -10.61542 -10.61108 -10.60875  -0.98817
 Alpha  occ. eigenvalues --   -0.85739  -0.75198  -0.70687  -0.55064  -0.51296
 Alpha  occ. eigenvalues --   -0.48972  -0.47123  -0.42726  -0.41217  -0.38595
 Alpha  occ. eigenvalues --   -0.36611  -0.33960
 Alpha virt. eigenvalues --    0.04725   0.06268   0.07005   0.07825   0.10212
 Alpha virt. eigenvalues --    0.10669   0.12476   0.13588   0.14348   0.14950
 Alpha virt. eigenvalues --    0.15891   0.16766   0.17102   0.18861   0.20549

 Mulliken charges:
               1
     1  C   -0.258251
     2  C   -0.571505
     3  H    0.011732
     4  H    0.081199
     5  H    0.171551
     6  C   -0.180466
     7  H    0.016439
     8  H    0.499162
     9  C   -0.163539
    10  H    0.204215
    11  H    0.003868
    12  H    0.041251
    13  H    0.103307
    14  H    0.041037
 Sum of Mulliken charges =   0.00000

 Dipole moment (field-independent basis, Debye):
    X=             -0.4609    Y=              0.1438    Z=             -0.3076  Tot=              0.5725
 Quadrupole moment (field-independent basis, Debye-Ang):
   XX=            -29.8900   YY=            -29.6602   ZZ=            -28.7787
   XY=              0.2254   XZ=             -0.5162   YZ=              1.4918

 Normal termination of Gaussian 09 at Wed Aug 26 16:32:06 2020.
