 Gaussian 09, Revision D.01,
 Gaussian 09:  ES64L-G09RevD.01 24-Apr-2013

 --------------------
 #p B2PLYPD3/Def2QZVP
 --------------------

 ----------
 butane_opt
 ----------
 Symbolic Z-matrix:
 Charge =  0 Multiplicity = 1

                         Standard orientation:
 ---------------------------------------------------------------------
 Center     Atomic      Atomic             Coordinates (Angstroms)
 Number     Number       Type             X           Y           Z
 ---------------------------------------------------------------------
      1          6           0        1.941398   -0.155261   -0.104669
      2          6           0        0.588045    0.516093   -0.008861
      3          1           0        2.598337    0.496782   -0.372101
      4          1           0        1.971778   -1.165461   -0.903533
      5          1           0        1.987504   -0.558413    0.926104
      6          6           0       -0.563233   -0.349322    0.263464
      7          1           0        0.006399    0.640588   -0.742479
      8          1           0        0.609294    1.625799    0.790419
      9          6           0       -1.907128    0.075392   -0.180345
     10          1           0       -0.453843   -0.978124    1.489300
     11          1           0       -0.390565   -0.822818   -0.352346
     12          1           0       -2.286374    0.800202    0.652128
     13          1           0       -2.770374   -0.826788   -0.362496
     14          1           0       -1.626651    0.266824   -0.942530
 ---------------------------------------------------------------------

 SCF Done:  E(RB2PLYPD3) =  -157.743421984     A.U. after   11 cycles
 E2(B2PLYPD3) =    -0.2518527508D+00 E(B2PLYPD3) =    -0.15799527473531D+03

 The electronic state is 1-A.
 Alpha  occ. eigenvalues --  -10.61829 -10.61787 -10.60493 -10.59918  -1.00158
 Alpha  occ. eigenvalues --   -0.86152  -0.76925  -0.66948  -0.57992  -0.53306
 Alpha  occ. eigenvalues --   -0.49136  -0.48727  -0.42032  -0.41922  -0.40964
 Alpha  occ. eigenvalues --   -0.36111  -0.32750
 Alpha virt. eigenvalues --    0.05318   0.06424   0.07140   0.08164   0.10476
 Alpha virt. eigenvalues --    0.11401   0.12515   0.13202   0.14307   0.14625
 Alpha virt. eigenvalues --    0.15805   0.16595   0.18230   0.19416   0.20655

 Mulliken charges:
               1
     1  C   -0.141950
     2  C   -0.074333
     3  H    0.085477
     4  H    0.010939
     5  H    0.074045
     6  C   -0.368774
     7  H    0.079528
     8  H   -0.011929
     9  C   -0.294029
    10  H   -0.032533
    11  H    0.362597
    12  H    0.069047
    13  H    0.043001
    14  H    0.198915
 Sum of Mulliken charges =   0.00000

 Dipole moment (field-independent basis, Debye):
    X=              0.0290    Y=             -0.0578    Z=             -0.7054  Tot=              0.7084
 Quadrupole moment (field-independent basis, Debye-Ang):
   XX=            -28.9759   YY=            -30.5048   ZZ=            -28.9215
   XY=              0.4413   XZ=              0.2760   YZ=              1.2498

 Normal termination of Gaussian 09 at Wed Aug 26 20:03:40 2020.
