 Gaussian 09, Revision D.01,
 Gaussian 09:  ES64L-G09RevD.01 24-Apr-2013

 --------------------
 #p B2PLYPD3/Def2QZVP
 --------------------

 ----------
 butane_opt
 ----------
 Symbolic Z-matrix:
 Charge =  0 Multiplicity = 1

                         Standard orientation:
 ---------------------------------------------------------------------
 Center     Atomic      Atomic             Coordinates (Angstroms)
 Number     Number       Type             X           Y           Z
 ---------------------------------------------------------------------
      1          6           0        1.912507   -0.133384   -0.136819
      2          6           0        0.608420    0.486902    0.213994
      3          1           0        2.828007    0.604983   -0.588155
      4          1           0        1.658672   -0.548004   -0.947594
      5          1           0        2.303398   -1.022269    0.838470
      6          6           0       -0.544419   -0.490493    0.052687
      7          1           0        0.699639    1.008274   -0.433858
      8          1           0        0.341425    1.456653    1.449440
      9          6           0       -1.966041    0.185325   -0.113327
     10          1           0       -0.477842   -1.319074    1.058738
     11          1           0       -0.404879   -1.002958   -0.895310
     12          1           0       -2.190007    0.409301    0.396203
     13          1           0       -2.907787   -0.786828    0.122801
     14          1           0       -1.913432    0.909818   -1.099939
 ---------------------------------------------------------------------

 SCF Done:  E(RB2PLYPD3) =  -157.360977234     A.U. after   12 cycles
 E2(B2PLYPD3) =    -0.2546231676D+00 E(B2PLYPD3) =    -0.15761560040130D+03

 The electronic state is 1-A.
 Alpha  occ. eigenvalues --  -10.64246 -10.63796 -10.62494 -10.61829  -0.94907
 Alpha  occ. eigenvalues --   -0.88732  -0.75950  -0.68613  -0.56000  -0.50442
 Alpha  occ. eigenvalues --   -0.49054  -0.47517  -0.42077  -0.39883  -0.37504
 Alpha  occ. eigenvalues --   -0.36660  -0.34406
 Alpha virt. eigenvalues --    0.03253   0.05134   0.05580   0.07494   0.09271
 Alpha virt. eigenvalues --    0.10734   0.11431   0.12950   0.13905   0.14398
 Alpha virt. eigenvalues --    0.15393   0.16044   0.17904   0.19334   0.19726

 Mulliken charges:
               1
     1  C   -0.199598
     2  C   -0.218092
     3  H    0.038942
     4  H    0.115063
     5  H    0.026211
     6  C    0.018841
     7  H    0.239775
     8  H   -0.028631
     9  C   -0.759060
    10  H    0.020601
    11  H    0.063741
    12  H    0.573741
    13  H    0.024551
    14  H    0.083915
 Sum of Mulliken charges =   0.00000

 Dipole moment (field-independent basis, Debye):
    X=              0.0378    Y=              0.1539    Z=             -0.9353  Tot=              0.9487
 Quadrupole moment (field-independent basis, Debye-Ang):
   XX=            -31.3462   YY=            -30.3174   ZZ=            -28.5629
   XY=             -0.2194   XZ=             -2.2829   YZ=             -1.4339

 Normal termination of Gaussian 09 at Wed Aug 26 15:27:12 2020.
