 Gaussian 09, Revision D.01,
 Gaussian 09:  ES64L-G09RevD.01 24-Apr-2013

 --------------------
 #p B2PLYPD3/Def2QZVP
 --------------------

 ----------
 butane_opt
 ----------
 Symbolic Z-matrix:
 Charge =  0 Multiplicity = 1

                         Standard orientation:
 ---------------------------------------------------------------------
 Center     Atomic      Atomic             Coordinates (Angstroms)
 Number     Number       Type             X           Y           Z
 ---------------------------------------------------------------------
      1          6           0       -1.968580    0.051927    0.020982
      2          6           0       -0.610553   -0.429258   -0.093963
      3          1           0       -2.736885   -0.774269    0.416813
      4          1           0       -2.534784    0.973402   -0.922040
      5          1           0       -1.916219    0.642538    0.819595
      6          6           0        0.561572    0.570731    0.005276
      7          1           0       -0.614956   -1.238880   -1.058569
      8          1           0       -0.569035   -1.076722    0.796660
      9          6           0        2.062780   -0.168656    0.022310
     10          1           0        0.661913    1.403891    1.072861
     11          1           0        0.460405    0.993827   -0.740927
     12          1           0        2.040467   -1.065207    0.955800
     13          1           0        2.683329    0.496036   -0.293229
     14          1           0        2.254449   -0.503076   -0.774589
 ---------------------------------------------------------------------

 SCF Done:  E(RB2PLYPD3) =  -157.837598401     A.U. after   11 cycles
 E2(B2PLYPD3) =    -0.2519550701D+00 E(B2PLYPD3) =    -0.15808955347080D+03

 The electronic state is 1-A.
 Alpha  occ. eigenvalues --  -10.62690 -10.62523 -10.62091 -10.59315  -0.92085
 Alpha  occ. eigenvalues --   -0.86092  -0.76713  -0.65761  -0.54417  -0.49451
 Alpha  occ. eigenvalues --   -0.48614  -0.46404  -0.42793  -0.39652  -0.37649
 Alpha  occ. eigenvalues --   -0.36418  -0.35025
 Alpha virt. eigenvalues --    0.05026   0.05605   0.06818   0.07880   0.10357
 Alpha virt. eigenvalues --    0.10815   0.11539   0.13154   0.13604   0.14641
 Alpha virt. eigenvalues --    0.15505   0.16129   0.18872   0.19277   0.20836

 Mulliken charges:
               1
     1  C   -0.166293
     2  C   -0.014670
     3  H    0.047594
     4  H   -0.000385
     5  H    0.075303
     6  C   -0.176595
     7  H    0.016805
     8  H    0.032509
     9  C   -0.217842
    10  H    0.017913
    11  H    0.160148
    12  H    0.067907
    13  H    0.054415
    14  H    0.103192
 Sum of Mulliken charges =   0.00000

 Dipole moment (field-independent basis, Debye):
    X=              0.4345    Y=             -0.1635    Z=             -0.0327  Tot=              0.4654
 Quadrupole moment (field-independent basis, Debye-Ang):
   XX=            -30.4875   YY=            -29.3653   ZZ=            -28.4652
   XY=              0.8419   XZ=             -2.4729   YZ=             -0.9557

 Normal termination of Gaussian 09 at Wed Aug 26 13:21:06 2020.
