 Gaussian 09, Revision D.01,
 Gaussian 09:  ES64L-G09RevD.01 24-Apr-2013

 --------------------
 #p B2PLYPD3/Def2QZVP
 --------------------

 ----------
 butane_opt
 ----------
 Symbolic Z-matrix:
 Charge =  0 Multiplicity = 1

                         Standard orientation:
 ---------------------------------------------------------------------
 Center     Atomic      Atomic             Coordinates (Angstroms)
 Number     Number       Type             X           Y           Z
 ---------------------------------------------------------------------
      1          6           0       -2.015978   -0.120384    0.066412
      2          6           0       -0.484847    0.598510   -0.125338
      3          1           0       -2.593395    0.170996   -0.086707
      4          1           0       -2.396463   -0.637003    0.826717
      5          1           0       -2.111986   -0.897380   -0.843264
      6          6           0        0.633899   -0.474530   -0.027708
      7          1           0       -0.468616    1.385079    0.792384
      8          1           0       -0.442500    1.331256   -1.007454
      9          6           0        1.914630    0.068715    0.042587
     10          1           0        0.528839   -1.000498   -0.701193
     11          1           0        0.288550   -1.300104    1.135329
     12          1           0        2.041109    0.326731   -0.666751
     13          1           0        2.824721   -0.748453   -0.391760
     14          1           0        2.043521    0.935510    1.206979
 ---------------------------------------------------------------------

 SCF Done:  E(RB2PLYPD3) =  -157.446112281     A.U. after   12 cycles
 E2(B2PLYPD3) =    -0.2528945333D+00 E(B2PLYPD3) =    -0.15769900681385D+03

 The electronic state is 1-A.
 Alpha  occ. eigenvalues --  -10.64958 -10.61705 -10.61488 -10.56936  -0.95063
 Alpha  occ. eigenvalues --   -0.88560  -0.78617  -0.69235  -0.56845  -0.51340
 Alpha  occ. eigenvalues --   -0.47583  -0.46267  -0.44211  -0.41374  -0.37564
 Alpha  occ. eigenvalues --   -0.36465  -0.33793
 Alpha virt. eigenvalues --    0.03075   0.06067   0.06870   0.07458   0.09962
 Alpha virt. eigenvalues --    0.10855   0.12093   0.13692   0.13931   0.15222
 Alpha virt. eigenvalues --    0.16193   0.17299   0.17971   0.19135   0.19956

 Mulliken charges:
               1
     1  C   -0.573395
     2  C    0.001327
     3  H    0.439232
     4  H    0.054761
     5  H    0.022811
     6  C   -0.101025
     7  H    0.007895
     8  H    0.038099
     9  C   -0.452755
    10  H    0.158467
    11  H   -0.018098
    12  H    0.343548
    13  H    0.019401
    14  H    0.059732
 Sum of Mulliken charges =   0.00000

 Dipole moment (field-independent basis, Debye):
    X=             -0.2071    Y=              0.5034    Z=             -0.8530  Tot=              1.0119
 Quadrupole moment (field-independent basis, Debye-Ang):
   XX=            -28.9913   YY=            -29.7737   ZZ=            -28.0104
   XY=              0.0526   XZ=             -2.0259   YZ=              0.8435

 Normal termination of Gaussian 09 at Wed Aug 26 13:05:07 2020.
