 Gaussian 09, Revision D.01,
 Gaussian 09:  ES64L-G09RevD.01 24-Apr-2013

 --------------------
 #p B2PLYPD3/Def2QZVP
 --------------------

 ----------
 butane_opt
 ----------
 Symbolic Z-matrix:
 Charge =  0 Multiplicity = 1

                         Standard orientation:
 ---------------------------------------------------------------------
 Center     Atomic      Atomic             Coordinates (Angstroms)
 Number     Number       Type             X           Y           Z
 ---------------------------------------------------------------------
      1          6           0        1.909180   -0.011036   -0.162493
      2          6           0        0.562334   -0.376682    0.295586
      3          1           0        2.575416   -0.922149   -0.323008
      4          1           0        2.084869    0.633495    0.510656
      5          1           0        1.693698    0.519248   -1.231138
      6          6           0       -0.467249    0.652092    0.115685
      7          1           0        0.556816   -0.732462    1.453404
      8          1           0        0.330215   -0.928716   -0.274998
      9          6           0       -1.931422   -0.202864   -0.110203
     10          1           0       -0.241671    1.048693   -0.914730
     11          1           0       -0.607483    1.579643    0.820183
     12          1           0       -1.617309   -1.167917   -0.841271
     13          1           0       -2.524019    0.097218   -0.735528
     14          1           0       -2.687591   -0.496119    0.704970
 ---------------------------------------------------------------------

 SCF Done:  E(RB2PLYPD3) =  -157.915631346     A.U. after   11 cycles
 E2(B2PLYPD3) =    -0.2494898372D+00 E(B2PLYPD3) =    -0.15816512118371D+03

 The electronic state is 1-A.
 Alpha  occ. eigenvalues --  -10.63332 -10.60818 -10.59458 -10.57666  -0.94309
 Alpha  occ. eigenvalues --   -0.82528  -0.74936  -0.67930  -0.56374  -0.50857
 Alpha  occ. eigenvalues --   -0.47847  -0.46191  -0.42891  -0.40330  -0.38926
 Alpha  occ. eigenvalues --   -0.37372  -0.36386
 Alpha virt. eigenvalues --    0.05606   0.06689   0.07897   0.08242   0.11147
 Alpha virt. eigenvalues --    0.11480   0.12722   0.13230   0.14627   0.15520
 Alpha virt. eigenvalues --    0.15704   0.17713   0.18263   0.19635   0.21207

 Mulliken charges:
               1
     1  C   -0.150952
     2  C   -0.248237
     3  H    0.056874
     4  H    0.081018
     5  H    0.015785
     6  C   -0.058290
     7  H    0.023460
     8  H    0.245094
     9  C   -0.184871
    10  H    0.038994
    11  H    0.043038
    12  H   -0.002901
    13  H    0.093178
    14  H    0.047811
 Sum of Mulliken charges =   0.00000

 Dipole moment (field-independent basis, Debye):
    X=             -0.1222    Y=              0.1103    Z=             -0.1625  Tot=              0.2313
 Quadrupole moment (field-independent basis, Debye-Ang):
   XX=            -29.4692   YY=            -29.3708   ZZ=            -28.1948
   XY=             -0.8949   XZ=              0.3698   YZ=              0.8772

 Normal termination of Gaussian 09 at Wed Aug 26 16:07:11 2020.
