 Gaussian 09, Revision D.01,
 Gaussian 09:  ES64L-G09RevD.01 24-Apr-2013

 --------------------
 #p B2PLYPD3/Def2QZVP
 --------------------

 ----------
 butane_opt
 ----------
 Symbolic Z-matrix:
 Charge =  0 Multiplicity = 1

                         Standard orientation:
 ---------------------------------------------------------------------
 Center     Atomic      Atomic             Coordinates (Angstroms)
 Number     Number       Type             X           Y           Z
 ---------------------------------------------------------------------
      1          6           0       -1.880018    0.047242   -0.148276
      2          6           0       -0.620126   -0.498583    0.175976
      3          1           0       -2.560391   -0.562550   -0.705907
      4          1           0       -1.393432    0.448482   -0.967612
      5          1           0       -2.542800    0.960507    0.922841
      6          6           0        0.549340    0.604900    0.141523
      7          1           0       -0.402254   -0.950699   -0.528114
      8          1           0       -0.648122   -1.315216    1.353068
      9          6           0        1.941236   -0.173084   -0.055740
     10          1           0        0.484219    1.113648    0.892188
     11          1           0        0.119558    1.382935   -0.925920
     12          1           0        2.321421   -0.523396    0.469893
     13          1           0        2.760136    0.523566   -0.125435
     14          1           0        1.919075   -0.960131   -1.065899
 ---------------------------------------------------------------------

 SCF Done:  E(RB2PLYPD3) =  -157.656526950     A.U. after   11 cycles
 E2(B2PLYPD3) =    -0.2536202376D+00 E(B2PLYPD3) =    -0.15791014718785D+03

 The electronic state is 1-A.
 Alpha  occ. eigenvalues --  -10.63592 -10.62530 -10.61646 -10.59388  -0.95055
 Alpha  occ. eigenvalues --   -0.87630  -0.76813  -0.68253  -0.55355  -0.52195
 Alpha  occ. eigenvalues --   -0.49559  -0.47282  -0.41765  -0.40332  -0.38331
 Alpha  occ. eigenvalues --   -0.36363  -0.34052
 Alpha virt. eigenvalues --    0.03759   0.05066   0.06317   0.08263   0.10005
 Alpha virt. eigenvalues --    0.10687   0.11755   0.13641   0.14295   0.14460
 Alpha virt. eigenvalues --    0.16365   0.16994   0.17973   0.19205   0.20428

 Mulliken charges:
               1
     1  C   -0.156120
     2  C   -0.200384
     3  H    0.065125
     4  H    0.063895
     5  H    0.015273
     6  C   -0.041578
     7  H    0.206443
     8  H   -0.020769
     9  C   -0.416901
    10  H    0.117492
    11  H   -0.001395
    12  H    0.301935
    13  H    0.038992
    14  H    0.027993
 Sum of Mulliken charges =   0.00000

 Dipole moment (field-independent basis, Debye):
    X=              0.5526    Y=             -0.1114    Z=             -0.3063  Tot=              0.6415
 Quadrupole moment (field-independent basis, Debye-Ang):
   XX=            -29.5901   YY=            -30.3099   ZZ=            -28.5687
   XY=              0.5216   XZ=              1.8576   YZ=              1.5764

 Normal termination of Gaussian 09 at Wed Aug 26 21:17:04 2020.
