 Gaussian 09, Revision D.01,
 Gaussian 09:  ES64L-G09RevD.01 24-Apr-2013

 --------------------
 #p B2PLYPD3/Def2QZVP
 --------------------

 ----------
 butane_opt
 ----------
 Symbolic Z-matrix:
 Charge =  0 Multiplicity = 1

                         Standard orientation:
 ---------------------------------------------------------------------
 Center     Atomic      Atomic             Coordinates (Angstroms)
 Number     Number       Type             X           Y           Z
 ---------------------------------------------------------------------
      1          6           0       -1.876693    0.073377    0.163298
      2          6           0       -0.607190   -0.363253   -0.314518
      3          1           0       -2.880099   -1.016571    0.341495
      4          1           0       -2.391293    1.189941   -0.626263
      5          1           0       -1.369321    0.265449    0.901444
      6          6           0        0.553580    0.482061    0.020493
      7          1           0       -0.450584   -0.895729   -1.224304
      8          1           0       -0.529889   -1.265811    0.414507
      9          6           0        1.895100   -0.170782    0.069716
     10          1           0        0.057701    1.126352    1.150772
     11          1           0        0.606611    1.372909   -0.792751
     12          1           0        2.360092   -1.035767    0.934657
     13          1           0        2.685078    0.568210   -0.024514
     14          1           0        2.122920   -0.437409   -0.708977
 ---------------------------------------------------------------------

 SCF Done:  E(RB2PLYPD3) =  -157.803164819     A.U. after   11 cycles
 E2(B2PLYPD3) =    -0.2561367469D+00 E(B2PLYPD3) =    -0.15805930156591D+03

 The electronic state is 1-A.
 Alpha  occ. eigenvalues --  -10.65649 -10.64495 -10.61260 -10.60395  -0.96143
 Alpha  occ. eigenvalues --   -0.87860  -0.74019  -0.65788  -0.54312  -0.51468
 Alpha  occ. eigenvalues --   -0.47869  -0.46702  -0.41393  -0.40621  -0.39026
 Alpha  occ. eigenvalues --   -0.36694  -0.33042
 Alpha virt. eigenvalues --    0.03654   0.05392   0.06648   0.07203   0.08693
 Alpha virt. eigenvalues --    0.09720   0.12278   0.13033   0.13688   0.14804
 Alpha virt. eigenvalues --    0.15410   0.15872   0.18465   0.19254   0.20585

 Mulliken charges:
               1
     1  C   -0.213873
     2  C   -0.010795
     3  H    0.032873
     4  H    0.005116
     5  H    0.144655
     6  C   -0.025489
     7  H    0.033390
     8  H    0.024852
     9  C   -0.226078
    10  H   -0.011056
    11  H    0.029916
    12  H    0.041624
    13  H    0.035443
    14  H    0.139423
 Sum of Mulliken charges =   0.00000

 Dipole moment (field-independent basis, Debye):
    X=              1.0558    Y=             -0.4597    Z=             -0.5098  Tot=              1.2593
 Quadrupole moment (field-independent basis, Debye-Ang):
   XX=            -30.7655   YY=            -29.9597   ZZ=            -29.5802
   XY=              0.7127   XZ=             -0.9100   YZ=             -0.9790

 Normal termination of Gaussian 09 at Wed Aug 26 09:58:55 2020.
