 Gaussian 09, Revision D.01,
 Gaussian 09:  ES64L-G09RevD.01 24-Apr-2013

 --------------------
 #p B2PLYPD3/Def2QZVP
 --------------------

 ----------
 butane_opt
 ----------
 Symbolic Z-matrix:
 Charge =  0 Multiplicity = 1

                         Standard orientation:
 ---------------------------------------------------------------------
 Center     Atomic      Atomic             Coordinates (Angstroms)
 Number     Number       Type             X           Y           Z
 ---------------------------------------------------------------------
      1          6           0        2.081674   -0.199792    0.079952
      2          6           0        0.540078    0.594421   -0.049152
      3          1           0        2.647076    0.372134   -0.137975
      4          1           0        1.979660   -0.494015   -0.726345
      5          1           0        2.307720   -0.919745    0.930640
      6          6           0       -0.657990   -0.420263   -0.263904
      7          1           0        0.737879    1.302277   -0.780596
      8          1           0        0.302090    1.279342    0.927581
      9          6           0       -1.909980    0.024418    0.137150
     10          1           0       -0.371885   -1.103903    0.622868
     11          1           0       -0.910495   -1.151449   -1.182860
     12          1           0       -1.535632    0.422109    1.077028
     13          1           0       -2.720978   -0.642620    0.642761
     14          1           0       -2.758130    0.943165   -0.797381
 ---------------------------------------------------------------------

 SCF Done:  E(RB2PLYPD3) =  -157.826425978     A.U. after   11 cycles
 E2(B2PLYPD3) =    -0.2534522014D+00 E(B2PLYPD3) =    -0.15807987817985D+03

 The electronic state is 1-A.
 Alpha  occ. eigenvalues --  -10.63997 -10.63606 -10.63206 -10.56492  -0.92689
 Alpha  occ. eigenvalues --   -0.87505  -0.74347  -0.64651  -0.54826  -0.51288
 Alpha  occ. eigenvalues --   -0.50031  -0.48560  -0.43107  -0.41543  -0.37041
 Alpha  occ. eigenvalues --   -0.35765  -0.33047
 Alpha virt. eigenvalues --    0.04651   0.05882   0.07453   0.07565   0.09423
 Alpha virt. eigenvalues --    0.10661   0.12085   0.13364   0.14233   0.14876
 Alpha virt. eigenvalues --    0.15606   0.17102   0.18252   0.19208   0.21129

 Mulliken charges:
               1
     1  C   -0.350331
     2  C   -0.030968
     3  H    0.139469
     4  H    0.148904
     5  H    0.066777
     6  C   -0.074199
     7  H    0.044566
     8  H    0.019515
     9  C   -0.142165
    10  H    0.054200
    11  H    0.036965
    12  H    0.043710
    13  H    0.057826
    14  H   -0.014269
 Sum of Mulliken charges =   0.00000

 Dipole moment (field-independent basis, Debye):
    X=              0.7601    Y=             -0.3884    Z=              0.2540  Tot=              0.8906
 Quadrupole moment (field-independent basis, Debye-Ang):
   XX=            -30.1800   YY=            -29.8014   ZZ=            -28.3367
   XY=              1.6580   XZ=             -1.0237   YZ=             -0.8559

 Normal termination of Gaussian 09 at Wed Aug 26 21:12:21 2020.
