 Gaussian 09, Revision D.01,
 Gaussian 09:  ES64L-G09RevD.01 24-Apr-2013

 --------------------
 #p B2PLYPD3/Def2QZVP
 --------------------

 ----------
 butane_opt
 ----------
 Symbolic Z-matrix:
 Charge =  0 Multiplicity = 1

                         Standard orientation:
 ---------------------------------------------------------------------
 Center     Atomic      Atomic             Coordinates (Angstroms)
 Number     Number       Type             X           Y           Z
 ---------------------------------------------------------------------
      1          6           0        1.867213   -0.149980    0.188687
      2          6           0        0.612028    0.420530   -0.121843
      3          1           0        3.037323    0.913312   -0.135027
      4          1           0        2.036289   -0.281544   -0.466111
      5          1           0        1.827742   -1.140566    1.238273
      6          6           0       -0.524781   -0.522174   -0.333445
      7          1           0        0.437315    1.226801   -0.984433
      8          1           0        0.213134    1.064123    0.779586
      9          6           0       -1.906044    0.155243    0.173833
     10          1           0       -0.361061   -0.998898    0.318813
     11          1           0       -0.553097   -1.185127   -1.299235
     12          1           0       -1.670833    0.781664    1.155021
     13          1           0       -2.756231   -0.683105    0.656119
     14          1           0       -2.501081    0.881628   -0.706390
 ---------------------------------------------------------------------

 SCF Done:  E(RB2PLYPD3) =  -157.563147239     A.U. after   12 cycles
 E2(B2PLYPD3) =    -0.2571658922D+00 E(B2PLYPD3) =    -0.15782031313083D+03

 The electronic state is 1-A.
 Alpha  occ. eigenvalues --  -10.65939 -10.63503 -10.62237 -10.59775  -0.96451
 Alpha  occ. eigenvalues --   -0.86770  -0.72412  -0.67939  -0.56500  -0.49956
 Alpha  occ. eigenvalues --   -0.46760  -0.46028  -0.41848  -0.40502  -0.38864
 Alpha  occ. eigenvalues --   -0.35829  -0.33003
 Alpha virt. eigenvalues --    0.00979   0.05210   0.05360   0.07636   0.09306
 Alpha virt. eigenvalues --    0.10984   0.11384   0.12427   0.13779   0.14374
 Alpha virt. eigenvalues --    0.15395   0.15635   0.18042   0.19328   0.20152

 Mulliken charges:
               1
     1  C   -0.653874
     2  C    0.026072
     3  H   -0.026603
     4  H    0.530340
     5  H    0.079081
     6  C   -0.257179
     7  H    0.023620
     8  H    0.017793
     9  C   -0.163893
    10  H    0.253286
    11  H    0.043755
    12  H    0.052667
    13  H    0.032297
    14  H    0.042637
 Sum of Mulliken charges =   0.00000

 Dipole moment (field-independent basis, Debye):
    X=             -0.4105    Y=             -0.7082    Z=             -0.1034  Tot=              0.8251
 Quadrupole moment (field-independent basis, Debye-Ang):
   XX=            -33.4293   YY=            -29.7323   ZZ=            -28.3074
   XY=             -1.2552   XZ=             -1.0831   YZ=             -1.0082

 Normal termination of Gaussian 09 at Wed Aug 26 22:55:59 2020.
