 Gaussian 09, Revision D.01,
 Gaussian 09:  ES64L-G09RevD.01 24-Apr-2013

 --------------------
 #p B2PLYPD3/Def2QZVP
 --------------------

 ----------
 butane_opt
 ----------
 Symbolic Z-matrix:
 Charge =  0 Multiplicity = 1

                         Standard orientation:
 ---------------------------------------------------------------------
 Center     Atomic      Atomic             Coordinates (Angstroms)
 Number     Number       Type             X           Y           Z
 ---------------------------------------------------------------------
      1          6           0       -1.954749    0.030447   -0.218250
      2          6           0       -0.611442   -0.472673    0.260756
      3          1           0       -2.729962   -0.801536   -0.517800
      4          1           0       -1.584841    0.322071   -0.942696
      5          1           0       -2.224208    1.116170    0.732164
      6          6           0        0.463867    0.602980    0.064220
      7          1           0       -0.452661   -0.961764   -0.313460
      8          1           0       -0.589201   -1.131210    1.414586
      9          6           0        2.002928   -0.187932   -0.115853
     10          1           0        0.655725    1.724423    0.931656
     11          1           0        0.311495    1.058379   -0.720972
     12          1           0        2.286814   -0.746429    0.793250
     13          1           0        2.624450    0.342300   -0.425489
     14          1           0        2.298760   -0.759339   -0.896477
 ---------------------------------------------------------------------

 SCF Done:  E(RB2PLYPD3) =  -157.690519403     A.U. after   11 cycles
 E2(B2PLYPD3) =    -0.2514371933D+00 E(B2PLYPD3) =    -0.15794195659589D+03

 The electronic state is 1-A.
 Alpha  occ. eigenvalues --  -10.64185 -10.61910 -10.60140 -10.57880  -0.95123
 Alpha  occ. eigenvalues --   -0.85355  -0.76785  -0.70711  -0.54117  -0.51182
 Alpha  occ. eigenvalues --   -0.50725  -0.44637  -0.44137  -0.39084  -0.38189
 Alpha  occ. eigenvalues --   -0.36916  -0.36224
 Alpha virt. eigenvalues --    0.04112   0.06160   0.07422   0.08054   0.09708
 Alpha virt. eigenvalues --    0.11566   0.12286   0.13214   0.13447   0.15727
 Alpha virt. eigenvalues --    0.16173   0.16809   0.18049   0.19366   0.20919

 Mulliken charges:
               1
     1  C   -0.275822
     2  C   -0.381903
     3  H    0.056777
     4  H    0.182271
     5  H    0.027085
     6  C   -0.112126
     7  H    0.384471
     8  H    0.022983
     9  C   -0.205192
    10  H    0.005177
    11  H    0.114768
    12  H    0.056431
    13  H    0.106846
    14  H    0.018234
 Sum of Mulliken charges =   0.00000

 Dipole moment (field-independent basis, Debye):
    X=              0.4594    Y=             -0.3673    Z=             -1.0890  Tot=              1.2377
 Quadrupole moment (field-independent basis, Debye-Ang):
   XX=            -29.7736   YY=            -29.1303   ZZ=            -28.2764
   XY=              1.0461   XZ=             -0.2714   YZ=              0.1287

 Normal termination of Gaussian 09 at Wed Aug 26 20:32:16 2020.
