 Gaussian 09, Revision D.01,
 Gaussian 09:  ES64L-G09RevD.01 24-Apr-2013

 --------------------
 #p B2PLYPD3/Def2QZVP
 --------------------

 ----------
 butane_opt
 ----------
 Symbolic Z-matrix:
 Charge =  0 Multiplicity = 1

                         Standard orientation:
 ---------------------------------------------------------------------
 Center     Atomic      Atomic             Coordinates (Angstroms)
 Number     Number       Type             X           Y           Z
 ---------------------------------------------------------------------
      1          6           0       -1.914195    0.105796   -0.114937
      2          6           0       -0.485775   -0.581571    0.180005
      3          1           0       -2.525931   -0.401822   -0.764475
      4          1           0       -1.608335    0.597238   -0.778934
      5          1           0       -2.554249    1.044764    1.022674
      6          6           0        0.511747    0.428291    0.116076
      7          1           0       -0.344968   -1.110704   -0.807366
      8          1           0       -0.539029   -1.076350    0.927242
      9          6           0        1.905051   -0.035729   -0.084561
     10          1           0        0.511909    0.844657    0.840922
     11          1           0        0.255550    1.176211   -0.810523
     12          1           0        1.869276   -0.785299    0.928641
     13          1           0        2.723572    0.905646   -0.151755
     14          1           0        2.111236   -0.695060   -0.985929
 ---------------------------------------------------------------------

 SCF Done:  E(RB2PLYPD3) =  -157.818631265     A.U. after   11 cycles
 E2(B2PLYPD3) =    -0.2513414973D+00 E(B2PLYPD3) =    -0.15806997276265D+03

 The electronic state is 1-A.
 Alpha  occ. eigenvalues --  -10.63746 -10.61165 -10.59586 -10.58173  -0.95630
 Alpha  occ. eigenvalues --   -0.84865  -0.74902  -0.69062  -0.58757  -0.50478
 Alpha  occ. eigenvalues --   -0.48998  -0.44971  -0.43623  -0.41230  -0.39557
 Alpha  occ. eigenvalues --   -0.36344  -0.34683
 Alpha virt. eigenvalues --    0.03873   0.05089   0.07713   0.08114   0.09982
 Alpha virt. eigenvalues --    0.10937   0.12107   0.12249   0.13634   0.14975
 Alpha virt. eigenvalues --    0.16169   0.16981   0.18887   0.19578   0.20647

 Mulliken charges:
               1
     1  C   -0.262277
     2  C   -0.070482
     3  H    0.055779
     4  H    0.157284
     5  H    0.004175
     6  C   -0.125680
     7  H    0.034737
     8  H    0.075709
     9  C   -0.152587
    10  H    0.167696
    11  H   -0.002822
    12  H    0.025134
    13  H    0.047404
    14  H    0.045929
 Sum of Mulliken charges =   0.00000

 Dipole moment (field-independent basis, Debye):
    X=              0.3252    Y=             -0.1314    Z=             -0.4631  Tot=              0.5809
 Quadrupole moment (field-independent basis, Debye-Ang):
   XX=            -32.4044   YY=            -29.7833   ZZ=            -27.4663
   XY=              0.9826   XZ=              0.4537   YZ=              0.2577

 Normal termination of Gaussian 09 at Wed Aug 26 15:08:46 2020.
