 Gaussian 09, Revision D.01,
 Gaussian 09:  ES64L-G09RevD.01 24-Apr-2013

 --------------------
 #p B2PLYPD3/Def2QZVP
 --------------------

 ----------
 butane_opt
 ----------
 Symbolic Z-matrix:
 Charge =  0 Multiplicity = 1

                         Standard orientation:
 ---------------------------------------------------------------------
 Center     Atomic      Atomic             Coordinates (Angstroms)
 Number     Number       Type             X           Y           Z
 ---------------------------------------------------------------------
      1          6           0        1.905115    0.067243   -0.008889
      2          6           0        0.599680   -0.476993   -0.084828
      3          1           0        2.762256   -0.674174    0.061786
      4          1           0        2.171698    0.781566    0.983066
      5          1           0        2.089207    0.340168   -0.570850
      6          6           0       -0.541682    0.656154   -0.041962
      7          1           0        0.441892   -1.416538    0.891712
      8          1           0        0.672818   -0.824303   -0.867023
      9          6           0       -2.019791   -0.169026    0.036878
     10          1           0       -0.307195    1.371621   -0.921279
     11          1           0       -0.294048    1.107348    0.760855
     12          1           0       -2.539864   -0.862384   -0.954910
     13          1           0       -2.663122    0.522849    0.417889
     14          1           0       -1.993571   -0.810425    0.791559
 ---------------------------------------------------------------------

 SCF Done:  E(RB2PLYPD3) =  -157.620192478     A.U. after   11 cycles
 E2(B2PLYPD3) =    -0.2487938600D+00 E(B2PLYPD3) =    -0.15786898633810D+03

 The electronic state is 1-A.
 Alpha  occ. eigenvalues --  -10.61921 -10.61381 -10.59831 -10.57196  -0.94803
 Alpha  occ. eigenvalues --   -0.84656  -0.76247  -0.70583  -0.56441  -0.49408
 Alpha  occ. eigenvalues --   -0.48344  -0.47655  -0.43726  -0.41188  -0.39550
 Alpha  occ. eigenvalues --   -0.37662  -0.34871
 Alpha virt. eigenvalues --    0.05335   0.06274   0.07654   0.09302   0.10333
 Alpha virt. eigenvalues --    0.11582   0.12658   0.13402   0.15189   0.15255
 Alpha virt. eigenvalues --    0.16023   0.16557   0.18689   0.19462   0.21493

 Mulliken charges:
               1
     1  C   -0.639185
     2  C   -0.083084
     3  H    0.059203
     4  H    0.032531
     5  H    0.456802
     6  C   -0.093182
     7  H   -0.004413
     8  H    0.155518
     9  C   -0.172658
    10  H    0.028921
    11  H    0.100727
    12  H    0.037620
    13  H    0.050896
    14  H    0.070305
 Sum of Mulliken charges =   0.00000

 Dipole moment (field-independent basis, Debye):
    X=              0.1400    Y=              0.1565    Z=             -0.1848  Tot=              0.2797
 Quadrupole moment (field-independent basis, Debye-Ang):
   XX=            -28.9474   YY=            -29.0578   ZZ=            -27.7356
   XY=              0.1999   XZ=             -1.5273   YZ=              0.3068

 Normal termination of Gaussian 09 at Wed Aug 26 15:59:45 2020.
