 Gaussian 09, Revision D.01,
 Gaussian 09:  ES64L-G09RevD.01 24-Apr-2013

 --------------------
 #p B2PLYPD3/Def2QZVP
 --------------------

 ----------
 butane_opt
 ----------
 Symbolic Z-matrix:
 Charge =  0 Multiplicity = 1

                         Standard orientation:
 ---------------------------------------------------------------------
 Center     Atomic      Atomic             Coordinates (Angstroms)
 Number     Number       Type             X           Y           Z
 ---------------------------------------------------------------------
      1          6           0       -2.077857    0.095287    0.014288
      2          6           0       -0.436777   -0.637512   -0.081763
      3          1           0       -2.791066   -0.411135    0.171041
      4          1           0       -2.303014    0.541297   -0.788732
      5          1           0       -2.198017    1.312566    1.121108
      6          6           0        0.617851    0.473175   -0.120899
      7          1           0       -0.406563   -1.176936   -0.845511
      8          1           0       -0.506894   -1.086185    0.935838
      9          6           0        1.917703   -0.029366    0.058100
     10          1           0        0.683573    1.167547    0.711703
     11          1           0        0.470923    0.904956   -0.884370
     12          1           0        2.324517   -0.777348    1.274000
     13          1           0        2.674275    0.556245   -0.364179
     14          1           0        1.926750   -0.440512   -0.549249
 ---------------------------------------------------------------------

 SCF Done:  E(RB2PLYPD3) =  -157.632648444     A.U. after   11 cycles
 E2(B2PLYPD3) =    -0.2509505324D+00 E(B2PLYPD3) =    -0.15788359897618D+03

 The electronic state is 1-A.
 Alpha  occ. eigenvalues --  -10.61980 -10.61594 -10.57865 -10.57700  -0.96342
 Alpha  occ. eigenvalues --   -0.84889  -0.78086  -0.71069  -0.58288  -0.51518
 Alpha  occ. eigenvalues --   -0.50838  -0.50490  -0.42580  -0.38564  -0.37839
 Alpha  occ. eigenvalues --   -0.35978  -0.34311
 Alpha virt. eigenvalues --    0.03572   0.04961   0.07627   0.08507   0.09984
 Alpha virt. eigenvalues --    0.10406   0.11793   0.13009   0.13923   0.15072
 Alpha virt. eigenvalues --    0.16026   0.17152   0.18700   0.20050   0.20858

 Mulliken charges:
               1
     1  C   -0.220338
     2  C   -0.075371
     3  H    0.106865
     4  H    0.063231
     5  H   -0.032777
     6  C   -0.041494
     7  H    0.077828
     8  H    0.050274
     9  C   -0.516412
    10  H    0.046439
    11  H    0.078349
    12  H    0.033817
    13  H    0.050343
    14  H    0.379247
 Sum of Mulliken charges =   0.00000

 Dipole moment (field-independent basis, Debye):
    X=              0.2655    Y=             -0.5563    Z=             -1.2766  Tot=              1.4177
 Quadrupole moment (field-independent basis, Debye-Ang):
   XX=            -29.6370   YY=            -29.6176   ZZ=            -27.6014
   XY=              1.7054   XZ=              0.3836   YZ=             -0.4974

 Normal termination of Gaussian 09 at Wed Aug 26 09:37:05 2020.
