 Gaussian 09, Revision D.01,
 Gaussian 09:  ES64L-G09RevD.01 24-Apr-2013

 --------------------
 #p B2PLYPD3/Def2QZVP
 --------------------

 ----------
 butane_opt
 ----------
 Symbolic Z-matrix:
 Charge =  0 Multiplicity = 1

                         Standard orientation:
 ---------------------------------------------------------------------
 Center     Atomic      Atomic             Coordinates (Angstroms)
 Number     Number       Type             X           Y           Z
 ---------------------------------------------------------------------
      1          6           0        1.892463   -0.049953    0.199109
      2          6           0        0.585500    0.437572   -0.238757
      3          1           0        2.659104    0.792727    0.282904
      4          1           0        2.737515   -0.687550   -0.631901
      5          1           0        1.807001   -0.767248    1.125778
      6          6           0       -0.559227   -0.644037   -0.074801
      7          1           0        0.864433    1.248199   -1.247864
      8          1           0        0.626380    1.206053    0.505547
      9          6           0       -2.031468    0.165053    0.115759
     10          1           0       -0.374486   -1.219588    0.760374
     11          1           0       -0.401323   -1.266143   -0.950644
     12          1           0       -2.535432    1.208662    1.118776
     13          1           0       -2.686063   -0.561406   -0.332497
     14          1           0       -2.020738    0.594479   -0.638337
 ---------------------------------------------------------------------

 SCF Done:  E(RB2PLYPD3) =  -157.872514941     A.U. after   11 cycles
 E2(B2PLYPD3) =    -0.2546714054D+00 E(B2PLYPD3) =    -0.15812718634637D+03

 The electronic state is 1-A.
 Alpha  occ. eigenvalues --  -10.63431 -10.63163 -10.62904 -10.61989  -0.91077
 Alpha  occ. eigenvalues --   -0.84186  -0.74312  -0.65226  -0.52582  -0.50263
 Alpha  occ. eigenvalues --   -0.47539  -0.44402  -0.42727  -0.39916  -0.39002
 Alpha  occ. eigenvalues --   -0.36669  -0.32906
 Alpha virt. eigenvalues --    0.03005   0.05179   0.06980   0.07791   0.09388
 Alpha virt. eigenvalues --    0.11309   0.11914   0.12536   0.13912   0.14581
 Alpha virt. eigenvalues --    0.15688   0.16067   0.17676   0.19042   0.20490

 Mulliken charges:
               1
     1  C   -0.146112
     2  C   -0.042311
     3  H    0.047686
     4  H   -0.016240
     5  H    0.047792
     6  C   -0.079315
     7  H    0.014546
     8  H    0.055597
     9  C   -0.294986
    10  H    0.066028
    11  H    0.070981
    12  H    0.059161
    13  H    0.042025
    14  H    0.175147
 Sum of Mulliken charges =   0.00000

 Dipole moment (field-independent basis, Debye):
    X=             -0.2558    Y=              0.2359    Z=             -0.1009  Tot=              0.3623
 Quadrupole moment (field-independent basis, Debye-Ang):
   XX=            -31.2643   YY=            -28.6692   ZZ=            -29.3418
   XY=              0.7159   XZ=              1.0365   YZ=              0.3010

 Normal termination of Gaussian 09 at Wed Aug 26 23:01:28 2020.
