 Gaussian 09, Revision D.01,
 Gaussian 09:  ES64L-G09RevD.01 24-Apr-2013

 --------------------
 #p B2PLYPD3/Def2QZVP
 --------------------

 ----------
 butane_opt
 ----------
 Symbolic Z-matrix:
 Charge =  0 Multiplicity = 1

                         Standard orientation:
 ---------------------------------------------------------------------
 Center     Atomic      Atomic             Coordinates (Angstroms)
 Number     Number       Type             X           Y           Z
 ---------------------------------------------------------------------
      1          6           0       -1.932438   -0.194674   -0.232174
      2          6           0       -0.546993    0.533447    0.280048
      3          1           0       -2.729370    0.555046   -0.545202
      4          1           0       -2.713476   -0.779844    0.678011
      5          1           0       -1.658247   -0.559165   -0.865784
      6          6           0        0.582890   -0.406845    0.178029
      7          1           0       -0.437319    1.375278    1.287772
      8          1           0       -0.099283    1.098017   -0.519652
      9          6           0        1.843900    0.057016   -0.131099
     10          1           0        0.682414   -1.326561   -0.733339
     11          1           0        0.582919   -1.110917    1.132816
     12          1           0        1.787345    1.056954   -1.375895
     13          1           0        2.721832   -0.626802   -0.054828
     14          1           0        2.179030    0.384325    0.427275
 ---------------------------------------------------------------------

 SCF Done:  E(RB2PLYPD3) =  -157.603589426     A.U. after   12 cycles
 E2(B2PLYPD3) =    -0.2552617758D+00 E(B2PLYPD3) =    -0.15785885120208D+03

 The electronic state is 1-A.
 Alpha  occ. eigenvalues --  -10.63817 -10.62997 -10.61245 -10.60106  -0.95426
 Alpha  occ. eigenvalues --   -0.87109  -0.77986  -0.66973  -0.55434  -0.53382
 Alpha  occ. eigenvalues --   -0.49926  -0.44872  -0.42195  -0.40510  -0.37129
 Alpha  occ. eigenvalues --   -0.35794  -0.33084
 Alpha virt. eigenvalues --    0.03480   0.05545   0.06192   0.06714   0.09957
 Alpha virt. eigenvalues --    0.10704   0.11511   0.13390   0.14152   0.14974
 Alpha virt. eigenvalues --    0.15482   0.16065   0.18343   0.19685   0.20825

 Mulliken charges:
               1
     1  C   -0.380203
     2  C   -0.065342
     3  H    0.042970
     4  H    0.043206
     5  H    0.305394
     6  C    0.005339
     7  H    0.025739
     8  H    0.054872
     9  C   -0.441403
    10  H    0.009820
    11  H    0.016087
    12  H   -0.013857
    13  H    0.059335
    14  H    0.338041
 Sum of Mulliken charges =   0.00000

 Dipole moment (field-independent basis, Debye):
    X=              0.1738    Y=             -0.0302    Z=              0.4930  Tot=              0.5236
 Quadrupole moment (field-independent basis, Debye-Ang):
   XX=            -28.1616   YY=            -30.4290   ZZ=            -29.3120
   XY=             -0.8343   XZ=              1.6306   YZ=              0.2110

 Normal termination of Gaussian 09 at Wed Aug 26 20:26:41 2020.
