 Gaussian 09, Revision D.01,
 Gaussian 09:  ES64L-G09RevD.01 24-Apr-2013

 --------------------
 #p B2PLYPD3/Def2QZVP
 --------------------

 ----------
 butane_opt
 ----------
 Symbolic Z-matrix:
 Charge =  0 Multiplicity = 1

                         Standard orientation:
 ---------------------------------------------------------------------
 Center     Atomic      Atomic             Coordinates (Angstroms)
 Number     Number       Type             X           Y           Z
 ---------------------------------------------------------------------
      1          6           0       -1.954876   -0.040846    0.120138
      2          6           0       -0.597209    0.514357   -0.286875
      3          1           0       -2.747403    0.547874    0.079823
      4          1           0       -1.768697   -0.691238    1.329267
      5          1           0       -2.154290   -0.616473   -0.533754
      6          6           0        0.485824   -0.626438    0.035548
      7          1           0       -0.486482    1.069720    0.466838
      8          1           0       -0.664930    1.002503   -1.187598
      9          6           0        2.032590    0.119625    0.067245
     10          1           0        0.305068   -1.285724   -0.801519
     11          1           0        0.362703   -1.021266    0.906944
     12          1           0        2.191914    0.268671   -0.526652
     13          1           0        2.742063   -0.611859   -0.593005
     14          1           0        2.422081    1.537601    1.243321
 ---------------------------------------------------------------------

 SCF Done:  E(RB2PLYPD3) =  -157.386590314     A.U. after   13 cycles
 E2(B2PLYPD3) =    -0.2565245198D+00 E(B2PLYPD3) =    -0.15764311483344D+03

 The electronic state is 1-A.
 Alpha  occ. eigenvalues --  -10.63634 -10.62201 -10.58906 -10.58324  -0.93038
 Alpha  occ. eigenvalues --   -0.89482  -0.78682  -0.70640  -0.56491  -0.51043
 Alpha  occ. eigenvalues --   -0.48552  -0.46425  -0.40514  -0.39759  -0.38012
 Alpha  occ. eigenvalues --   -0.35592  -0.33548
 Alpha virt. eigenvalues --   -0.02935   0.05273   0.06366   0.08392   0.09913
 Alpha virt. eigenvalues --    0.10396   0.12329   0.13064   0.13792   0.15471
 Alpha virt. eigenvalues --    0.16010   0.16633   0.18388   0.18918   0.20390

 Mulliken charges:
               1
     1  C   -0.173407
     2  C   -0.099221
     3  H    0.043194
     4  H    0.006810
     5  H    0.085742
     6  C   -0.083519
     7  H    0.098551
     8  H    0.041939
     9  C   -0.761853
    10  H    0.047106
    11  H    0.098281
    12  H    0.638556
    13  H    0.022713
    14  H    0.035108
 Sum of Mulliken charges =   0.00000

 Dipole moment (field-independent basis, Debye):
    X=             -0.6576    Y=              0.2171    Z=             -1.1837  Tot=              1.3714
 Quadrupole moment (field-independent basis, Debye-Ang):
   XX=            -31.4306   YY=            -29.1655   ZZ=            -27.4108
   XY=              0.1348   XZ=             -0.9675   YZ=              0.8725

 Normal termination of Gaussian 09 at Wed Aug 26 13:36:46 2020.
