 Gaussian 09, Revision D.01,
 Gaussian 09:  ES64L-G09RevD.01 24-Apr-2013

 --------------------
 #p B2PLYPD3/Def2QZVP
 --------------------

 ----------
 butane_opt
 ----------
 Symbolic Z-matrix:
 Charge =  0 Multiplicity = 1

                         Standard orientation:
 ---------------------------------------------------------------------
 Center     Atomic      Atomic             Coordinates (Angstroms)
 Number     Number       Type             X           Y           Z
 ---------------------------------------------------------------------
      1          6           0       -1.910286    0.042823    0.039393
      2          6           0       -0.630316   -0.528337   -0.107024
      3          1           0       -2.713717   -0.663828    0.141079
      4          1           0       -2.080695    0.667365   -0.714050
      5          1           0       -2.200268    0.975958    1.144951
      6          6           0        0.550690    0.653886   -0.193149
      7          1           0       -0.473399   -1.215452   -0.868391
      8          1           0       -0.547214   -1.170399    0.885642
      9          6           0        1.976633   -0.194002    0.102791
     10          1           0        0.342927    1.322822    0.759853
     11          1           0        0.413649    1.176912   -1.058294
     12          1           0        1.880378   -0.795929    0.873616
     13          1           0        2.796718    0.666009    0.489470
     14          1           0        2.661298   -0.809679   -0.705941
 ---------------------------------------------------------------------

 SCF Done:  E(RB2PLYPD3) =  -157.985799762     A.U. after   11 cycles
 E2(B2PLYPD3) =    -0.2509685217D+00 E(B2PLYPD3) =    -0.15823676828400D+03

 The electronic state is 1-A.
 Alpha  occ. eigenvalues --  -10.63637 -10.62781 -10.61458 -10.61341  -0.90823
 Alpha  occ. eigenvalues --   -0.81927  -0.72236  -0.67523  -0.53387  -0.51321
 Alpha  occ. eigenvalues --   -0.48635  -0.44996  -0.43715  -0.40172  -0.39278
 Alpha  occ. eigenvalues --   -0.36256  -0.33402
 Alpha virt. eigenvalues --    0.04678   0.06049   0.07953   0.08313   0.09555
 Alpha virt. eigenvalues --    0.11083   0.12220   0.13523   0.14238   0.14867
 Alpha virt. eigenvalues --    0.15273   0.16349   0.18655   0.19875   0.21048

 Mulliken charges:
               1
     1  C   -0.134583
     2  C   -0.031267
     3  H    0.058460
     4  H    0.061048
     5  H   -0.020287
     6  C   -0.077503
     7  H    0.059938
     8  H    0.010105
     9  C   -0.194097
    10  H    0.046695
    11  H    0.068354
    12  H    0.093463
    13  H    0.017717
    14  H    0.041957
 Sum of Mulliken charges =   0.00000

 Dipole moment (field-independent basis, Debye):
    X=             -0.1647    Y=             -0.3474    Z=             -0.4607  Tot=              0.6001
 Quadrupole moment (field-independent basis, Debye-Ang):
   XX=            -30.7029   YY=            -28.9067   ZZ=            -28.9696
   XY=              0.1687   XZ=              0.7219   YZ=             -0.3107

 Normal termination of Gaussian 09 at Wed Aug 26 13:16:57 2020.
