 Gaussian 09, Revision D.01,
 Gaussian 09:  ES64L-G09RevD.01 24-Apr-2013

 --------------------
 #p B2PLYPD3/Def2QZVP
 --------------------

 ----------
 butane_opt
 ----------
 Symbolic Z-matrix:
 Charge =  0 Multiplicity = 1

                         Standard orientation:
 ---------------------------------------------------------------------
 Center     Atomic      Atomic             Coordinates (Angstroms)
 Number     Number       Type             X           Y           Z
 ---------------------------------------------------------------------
      1          6           0        1.963947    0.085929   -0.149064
      2          6           0        0.597175   -0.505674    0.225099
      3          1           0        2.823222   -0.853191   -0.504851
      4          1           0        2.460438    0.816439    0.679883
      5          1           0        1.777777    0.483800   -0.968421
      6          6           0       -0.578621    0.666231    0.057151
      7          1           0        0.803913   -1.024644    1.255194
      8          1           0        0.412899   -0.992710   -0.475374
      9          6           0       -1.968916   -0.171458   -0.002503
     10          1           0       -0.587036    1.301806   -0.833548
     11          1           0       -0.421012    1.357453    0.848254
     12          1           0       -2.071269   -1.291596   -1.066389
     13          1           0       -2.783991    0.338178   -0.490657
     14          1           0       -2.496448   -0.585701    0.771816
 ---------------------------------------------------------------------

 SCF Done:  E(RB2PLYPD3) =  -157.916828973     A.U. after   11 cycles
 E2(B2PLYPD3) =    -0.2511019518D+00 E(B2PLYPD3) =    -0.15816793092477D+03

 The electronic state is 1-A.
 Alpha  occ. eigenvalues --  -10.63970 -10.63547 -10.61267 -10.60169  -0.90602
 Alpha  occ. eigenvalues --   -0.82494  -0.72738  -0.69167  -0.55446  -0.49736
 Alpha  occ. eigenvalues --   -0.47491  -0.44991  -0.43132  -0.41494  -0.38744
 Alpha  occ. eigenvalues --   -0.36868  -0.33739
 Alpha virt. eigenvalues --    0.04016   0.05396   0.07818   0.08524   0.10709
 Alpha virt. eigenvalues --    0.10915   0.11597   0.12884   0.13829   0.15133
 Alpha virt. eigenvalues --    0.15609   0.17081   0.18416   0.18815   0.21001

 Mulliken charges:
               1
     1  C   -0.190156
     2  C   -0.174183
     3  H    0.011822
     4  H    0.042449
     5  H    0.093860
     6  C   -0.044178
     7  H    0.053543
     8  H    0.179424
     9  C   -0.149020
    10  H    0.043379
    11  H    0.049369
    12  H   -0.032409
    13  H    0.041034
    14  H    0.075066
 Sum of Mulliken charges =   0.00000

 Dipole moment (field-independent basis, Debye):
    X=             -0.2701    Y=              0.6737    Z=              0.1788  Tot=              0.7475
 Quadrupole moment (field-independent basis, Debye-Ang):
   XX=            -30.4070   YY=            -29.5618   ZZ=            -28.5172
   XY=             -0.6451   XZ=             -0.1396   YZ=             -0.2329

 Normal termination of Gaussian 09 at Wed Aug 26 13:44:49 2020.
