 Gaussian 09, Revision D.01,
 Gaussian 09:  ES64L-G09RevD.01 24-Apr-2013

 --------------------
 #p B2PLYPD3/Def2QZVP
 --------------------

 ----------
 butane_opt
 ----------
 Symbolic Z-matrix:
 Charge =  0 Multiplicity = 1

                         Standard orientation:
 ---------------------------------------------------------------------
 Center     Atomic      Atomic             Coordinates (Angstroms)
 Number     Number       Type             X           Y           Z
 ---------------------------------------------------------------------
      1          6           0        1.969633   -0.165011   -0.113238
      2          6           0        0.568789    0.593798    0.101509
      3          1           0        2.679510    0.418715   -0.190033
      4          1           0        2.220238   -1.196031   -1.196124
      5          1           0        2.539118   -0.401463    0.518692
      6          6           0       -0.617222   -0.478709    0.231765
      7          1           0        0.287423    0.980542   -0.570737
      8          1           0        0.425145    1.578973    0.993762
      9          6           0       -1.903036    0.066250   -0.192333
     10          1           0       -0.741941   -1.398360    1.618187
     11          1           0       -0.576936   -0.769321   -0.282025
     12          1           0       -2.245399    0.857313    0.723562
     13          1           0       -2.703740   -0.864952   -0.501187
     14          1           0       -1.992402    0.696622   -1.280319
 ---------------------------------------------------------------------

 SCF Done:  E(RB2PLYPD3) =  -157.205615503     A.U. after   12 cycles
 E2(B2PLYPD3) =    -0.2560321178D+00 E(B2PLYPD3) =    -0.15746164762073D+03

 The electronic state is 1-A.
 Alpha  occ. eigenvalues --  -10.65361 -10.63213 -10.62226 -10.60820  -0.97148
 Alpha  occ. eigenvalues --   -0.88390  -0.78656  -0.70264  -0.53461  -0.51612
 Alpha  occ. eigenvalues --   -0.46571  -0.45369  -0.41969  -0.39174  -0.38602
 Alpha  occ. eigenvalues --   -0.37438  -0.33559
 Alpha virt. eigenvalues --    0.02408   0.03883   0.05249   0.07255   0.10392
 Alpha virt. eigenvalues --    0.10497   0.11583   0.12617   0.13783   0.15119
 Alpha virt. eigenvalues --    0.15660   0.16352   0.18398   0.19198   0.19804

 Mulliken charges:
               1
     1  C   -0.215274
     2  C   -0.191591
     3  H    0.082047
     4  H    0.010469
     5  H    0.097821
     6  C   -0.871727
     7  H    0.258681
     8  H    0.019256
     9  C   -0.145587
    10  H   -0.005770
    11  H    0.822945
    12  H    0.055581
    13  H    0.048922
    14  H    0.034227
 Sum of Mulliken charges =   0.00000

 Dipole moment (field-independent basis, Debye):
    X=              0.4850    Y=              0.5595    Z=             -0.4689  Tot=              0.8765
 Quadrupole moment (field-independent basis, Debye-Ang):
   XX=            -28.1653   YY=            -29.7874   ZZ=            -29.2909
   XY=              0.5879   XZ=              1.7264   YZ=              0.9170

 Normal termination of Gaussian 09 at Wed Aug 26 20:13:18 2020.
