 Gaussian 09, Revision D.01,
 Gaussian 09:  ES64L-G09RevD.01 24-Apr-2013

 --------------------
 #p B2PLYPD3/Def2QZVP
 --------------------

 ----------
 butane_opt
 ----------
 Symbolic Z-matrix:
 Charge =  0 Multiplicity = 1

                         Standard orientation:
 ---------------------------------------------------------------------
 Center     Atomic      Atomic             Coordinates (Angstroms)
 Number     Number       Type             X           Y           Z
 ---------------------------------------------------------------------
      1          6           0       -2.088740   -0.158033   -0.128433
      2          6           0       -0.467551    0.594253    0.081858
      3          1           0       -2.778824    0.382024    0.063818
      4          1           0       -2.250471   -0.439893    0.758105
      5          1           0       -2.339976   -0.974102   -0.972983
      6          6           0        0.626978   -0.471971    0.217652
      7          1           0       -0.436277    1.303211    0.757016
      8          1           0       -0.473684    1.109588   -0.756817
      9          6           0        1.907587    0.046982   -0.196275
     10          1           0        0.440623   -0.808854   -0.367875
     11          1           0        0.823700   -1.294259    1.328069
     12          1           0        2.025521    0.400305   -1.035213
     13          1           0        2.685727   -0.784124   -0.502841
     14          1           0        2.434019    1.038724    0.879906
 ---------------------------------------------------------------------

 SCF Done:  E(RB2PLYPD3) =  -157.611392569     A.U. after   11 cycles
 E2(B2PLYPD3) =    -0.2510009091D+00 E(B2PLYPD3) =    -0.15786239347821D+03

 The electronic state is 1-A.
 Alpha  occ. eigenvalues --  -10.62705 -10.60619 -10.59752 -10.58223  -0.95604
 Alpha  occ. eigenvalues --   -0.85429  -0.77892  -0.72490  -0.56432  -0.50181
 Alpha  occ. eigenvalues --   -0.48825  -0.47640  -0.43492  -0.41492  -0.37489
 Alpha  occ. eigenvalues --   -0.35602  -0.35186
 Alpha virt. eigenvalues --    0.03644   0.06306   0.07292   0.08687   0.09455
 Alpha virt. eigenvalues --    0.11112   0.12256   0.13754   0.14193   0.15193
 Alpha virt. eigenvalues --    0.15749   0.16706   0.18524   0.19910   0.20840

 Mulliken charges:
               1
     1  C   -0.236829
     2  C   -0.051860
     3  H    0.084026
     4  H    0.065920
     5  H    0.052371
     6  C   -0.603114
     7  H    0.056477
     8  H    0.055524
     9  C   -0.138359
    10  H    0.564767
    11  H    0.047510
    12  H    0.088304
    13  H    0.026814
    14  H   -0.011552
 Sum of Mulliken charges =   0.00000

 Dipole moment (field-independent basis, Debye):
    X=             -0.5000    Y=             -0.1186    Z=             -0.5899  Tot=              0.7823
 Quadrupole moment (field-independent basis, Debye-Ang):
   XX=            -30.0520   YY=            -28.9877   ZZ=            -27.5976
   XY=             -1.0862   XZ=             -2.0591   YZ=              0.7415

 Normal termination of Gaussian 09 at Wed Aug 26 15:18:46 2020.
