 Gaussian 09, Revision D.01,
 Gaussian 09:  ES64L-G09RevD.01 24-Apr-2013

 --------------------
 #p B2PLYPD3/Def2QZVP
 --------------------

 ----------
 butane_opt
 ----------
 Symbolic Z-matrix:
 Charge =  0 Multiplicity = 1

                         Standard orientation:
 ---------------------------------------------------------------------
 Center     Atomic      Atomic             Coordinates (Angstroms)
 Number     Number       Type             X           Y           Z
 ---------------------------------------------------------------------
      1          6           0        1.871835    0.050492   -0.084389
      2          6           0        0.623148   -0.437794    0.034218
      3          1           0        2.730397   -0.839212    0.023497
      4          1           0        1.946246    0.592841    0.672274
      5          1           0        2.000756    0.813437   -1.146376
      6          6           0       -0.509884    0.572415    0.190217
      7          1           0        0.476644   -1.347465    0.997203
      8          1           0        0.396283   -0.704146   -0.652500
      9          6           0       -1.887168   -0.177231   -0.098383
     10          1           0       -0.336680    1.070200   -0.634211
     11          1           0       -0.568788    1.516345    1.306041
     12          1           0       -1.851054   -0.763977   -0.779256
     13          1           0       -2.678264    0.508840   -0.808515
     14          1           0       -2.703132   -0.894150    0.771860
 ---------------------------------------------------------------------

 SCF Done:  E(RB2PLYPD3) =  -157.730970817     A.U. after   11 cycles
 E2(B2PLYPD3) =    -0.2527991783D+00 E(B2PLYPD3) =    -0.15798376999554D+03

 The electronic state is 1-A.
 Alpha  occ. eigenvalues --  -10.64400 -10.63163 -10.60984 -10.58834  -0.97181
 Alpha  occ. eigenvalues --   -0.84973  -0.74922  -0.69436  -0.55294  -0.50836
 Alpha  occ. eigenvalues --   -0.49090  -0.45778  -0.42324  -0.40199  -0.38505
 Alpha  occ. eigenvalues --   -0.37164  -0.34968
 Alpha virt. eigenvalues --    0.04472   0.05619   0.06455   0.07055   0.09533
 Alpha virt. eigenvalues --    0.10820   0.11792   0.12926   0.14404   0.15186
 Alpha virt. eigenvalues --    0.15468   0.16088   0.18279   0.19402   0.20609

 Mulliken charges:
               1
     1  C   -0.152095
     2  C   -0.390475
     3  H    0.050357
     4  H    0.101639
     5  H    0.011410
     6  C   -0.072125
     7  H    0.018894
     8  H    0.365328
     9  C   -0.226204
    10  H    0.111864
    11  H    0.009360
    12  H    0.123797
    13  H    0.013823
    14  H    0.034425
 Sum of Mulliken charges =   0.00000

 Dipole moment (field-independent basis, Debye):
    X=              0.2841    Y=             -0.2403    Z=             -0.6940  Tot=              0.7874
 Quadrupole moment (field-independent basis, Debye-Ang):
   XX=            -31.1683   YY=            -29.8059   ZZ=            -28.5490
   XY=              0.5399   XZ=              1.2508   YZ=             -0.2003

 Normal termination of Gaussian 09 at Wed Aug 26 23:48:52 2020.
