 Gaussian 09, Revision D.01,
 Gaussian 09:  ES64L-G09RevD.01 24-Apr-2013

 --------------------
 #p B2PLYPD3/Def2QZVP
 --------------------

 ----------
 butane_opt
 ----------
 Symbolic Z-matrix:
 Charge =  0 Multiplicity = 1

                         Standard orientation:
 ---------------------------------------------------------------------
 Center     Atomic      Atomic             Coordinates (Angstroms)
 Number     Number       Type             X           Y           Z
 ---------------------------------------------------------------------
      1          6           0       -1.971095   -0.131198   -0.016773
      2          6           0       -0.567492    0.579592   -0.005137
      3          1           0       -2.643179    0.382655   -0.117465
      4          1           0       -2.358753   -0.664509    0.871637
      5          1           0       -2.093943   -0.789459   -0.918467
      6          6           0        0.605908   -0.498948    0.082367
      7          1           0       -0.565897    1.191043    0.781678
      8          1           0       -0.299444    1.093312   -0.926668
      9          6           0        1.953957    0.085723   -0.060253
     10          1           0        0.480767   -0.994379   -0.658608
     11          1           0        0.590912   -1.224773    1.096879
     12          1           0        1.776322    0.381251   -0.754479
     13          1           0        2.776449   -0.646110   -0.338726
     14          1           0        2.209100    1.059955    0.962998
 ---------------------------------------------------------------------

 SCF Done:  E(RB2PLYPD3) =  -157.825323285     A.U. after   11 cycles
 E2(B2PLYPD3) =    -0.2473807281D+00 E(B2PLYPD3) =    -0.15807270401280D+03

 The electronic state is 1-A.
 Alpha  occ. eigenvalues --  -10.60781 -10.59804 -10.59426 -10.57896  -0.93747
 Alpha  occ. eigenvalues --   -0.86409  -0.76059  -0.68803  -0.55273  -0.50286
 Alpha  occ. eigenvalues --   -0.49136  -0.48874  -0.43101  -0.40952  -0.39284
 Alpha  occ. eigenvalues --   -0.38067  -0.36087
 Alpha virt. eigenvalues --    0.05217   0.06453   0.08361   0.08621   0.10595
 Alpha virt. eigenvalues --    0.11451   0.12759   0.13630   0.14451   0.15369
 Alpha virt. eigenvalues --    0.16370   0.17216   0.18931   0.19653   0.21579

 Mulliken charges:
               1
     1  C   -0.201175
     2  C   -0.047937
     3  H    0.119671
     4  H    0.035643
     5  H    0.015916
     6  C   -0.097578
     7  H    0.057063
     8  H    0.039745
     9  C   -0.452603
    10  H    0.118730
    11  H    0.007702
    12  H    0.324556
    13  H    0.058447
    14  H    0.021818
 Sum of Mulliken charges =   0.00000

 Dipole moment (field-independent basis, Debye):
    X=             -0.4692    Y=              0.1163    Z=             -0.5961  Tot=              0.7675
 Quadrupole moment (field-independent basis, Debye-Ang):
   XX=            -28.9514   YY=            -29.3455   ZZ=            -27.6411
   XY=             -1.0331   XZ=             -1.2469   YZ=              0.7221

 Normal termination of Gaussian 09 at Wed Aug 26 21:53:02 2020.
