 Gaussian 09, Revision D.01,
 Gaussian 09:  ES64L-G09RevD.01 24-Apr-2013

 --------------------
 #p B2PLYPD3/Def2QZVP
 --------------------

 ----------
 butane_opt
 ----------
 Symbolic Z-matrix:
 Charge =  0 Multiplicity = 1

                         Standard orientation:
 ---------------------------------------------------------------------
 Center     Atomic      Atomic             Coordinates (Angstroms)
 Number     Number       Type             X           Y           Z
 ---------------------------------------------------------------------
      1          6           0       -1.857942    0.068088    0.106119
      2          6           0       -0.617481   -0.439049   -0.108905
      3          1           0       -2.790621   -0.833001   -0.219722
      4          1           0       -1.784793    0.757801   -0.789339
      5          1           0       -2.085147    0.803142    1.296261
      6          6           0        0.542370    0.494699    0.037982
      7          1           0       -0.683103   -1.032561   -1.235855
      8          1           0       -0.464047   -0.995719    0.621729
      9          6           0        1.997589   -0.105203    0.036816
     10          1           0        0.284937    0.951551    0.870341
     11          1           0        0.254184    1.407408   -0.939119
     12          1           0        2.463261   -1.249795    1.041217
     13          1           0        2.774723    0.562996   -0.409521
     14          1           0        1.643395   -0.483031   -0.668069
 ---------------------------------------------------------------------

 SCF Done:  E(RB2PLYPD3) =  -157.774014578     A.U. after   11 cycles
 E2(B2PLYPD3) =    -0.2569850675D+00 E(B2PLYPD3) =    -0.15803099964515D+03

 The electronic state is 1-A.
 Alpha  occ. eigenvalues --  -10.64993 -10.63606 -10.62697 -10.60162  -0.96262
 Alpha  occ. eigenvalues --   -0.86855  -0.73059  -0.65830  -0.56301  -0.50776
 Alpha  occ. eigenvalues --   -0.48129  -0.44059  -0.43567  -0.38898  -0.37240
 Alpha  occ. eigenvalues --   -0.36009  -0.34899
 Alpha virt. eigenvalues --    0.02415   0.04325   0.05695   0.06911   0.10157
 Alpha virt. eigenvalues --    0.10481   0.11601   0.12170   0.13682   0.15020
 Alpha virt. eigenvalues --    0.15200   0.16017   0.18169   0.19151   0.20284

 Mulliken charges:
               1
     1  C   -0.170980
     2  C   -0.048514
     3  H    0.050368
     4  H    0.041780
     5  H    0.028530
     6  C   -0.055707
     7  H    0.009019
     8  H    0.101142
     9  C   -0.298798
    10  H    0.073080
    11  H   -0.022121
    12  H    0.030426
    13  H    0.071087
    14  H    0.190690
 Sum of Mulliken charges =   0.00000

 Dipole moment (field-independent basis, Debye):
    X=             -0.0232    Y=             -0.2526    Z=             -0.2666  Tot=              0.3681
 Quadrupole moment (field-independent basis, Debye-Ang):
   XX=            -31.6165   YY=            -30.4575   ZZ=            -28.8559
   XY=              0.8395   XZ=             -0.3232   YZ=             -0.2031

 Normal termination of Gaussian 09 at Wed Aug 26 18:56:25 2020.
