 Gaussian 09, Revision D.01,
 Gaussian 09:  ES64L-G09RevD.01 24-Apr-2013

 --------------------
 #p B2PLYPD3/Def2QZVP
 --------------------

 ----------
 butane_opt
 ----------
 Symbolic Z-matrix:
 Charge =  0 Multiplicity = 1

                         Standard orientation:
 ---------------------------------------------------------------------
 Center     Atomic      Atomic             Coordinates (Angstroms)
 Number     Number       Type             X           Y           Z
 ---------------------------------------------------------------------
      1          6           0        1.886194   -0.190459   -0.091418
      2          6           0        0.561368    0.560787    0.007424
      3          1           0        2.764317    0.723701   -0.045671
      4          1           0        2.461954   -1.426614   -1.038614
      5          1           0        2.018595   -0.510907    0.636907
      6          6           0       -0.614395   -0.338020    0.277530
      7          1           0        0.179390    0.823338   -0.832121
      8          1           0        0.792241    1.445232    0.764606
      9          6           0       -1.949764    0.033637   -0.186823
     10          1           0       -0.457233   -0.981563    1.590847
     11          1           0       -0.372926   -0.805637   -0.214636
     12          1           0       -2.352771    0.903221    0.495700
     13          1           0       -2.740231   -0.992147   -0.327019
     14          1           0       -1.593755    0.425707   -1.070276
 ---------------------------------------------------------------------

 SCF Done:  E(RB2PLYPD3) =  -157.605702706     A.U. after   11 cycles
 E2(B2PLYPD3) =    -0.2539283017D+00 E(B2PLYPD3) =    -0.15785963100810D+03

 The electronic state is 1-A.
 Alpha  occ. eigenvalues --  -10.63601 -10.63136 -10.62127 -10.59886  -0.97999
 Alpha  occ. eigenvalues --   -0.86337  -0.75818  -0.70156  -0.55106  -0.51581
 Alpha  occ. eigenvalues --   -0.48071  -0.47617  -0.44376  -0.40804  -0.38725
 Alpha  occ. eigenvalues --   -0.35466  -0.34536
 Alpha virt. eigenvalues --    0.02134   0.04826   0.06480   0.07085   0.09883
 Alpha virt. eigenvalues --    0.11165   0.12263   0.12821   0.13608   0.14477
 Alpha virt. eigenvalues --    0.15455   0.15603   0.18505   0.19194   0.19785

 Mulliken charges:
               1
     1  C   -0.366503
     2  C   -0.011260
     3  H    0.035734
     4  H    0.003557
     5  H    0.257509
     6  C   -0.562310
     7  H    0.075207
     8  H    0.037034
     9  C   -0.139984
    10  H   -0.034722
    11  H    0.534165
    12  H    0.052267
    13  H    0.056717
    14  H    0.062591
 Sum of Mulliken charges =   0.00000

 Dipole moment (field-independent basis, Debye):
    X=             -0.1759    Y=              0.5351    Z=             -0.1085  Tot=              0.5736
 Quadrupole moment (field-independent basis, Debye-Ang):
   XX=            -30.5709   YY=            -29.3419   ZZ=            -30.0608
   XY=              0.7228   XZ=              1.7749   YZ=              1.0535

 Normal termination of Gaussian 09 at Wed Aug 26 23:36:38 2020.
