 Gaussian 09, Revision D.01,
 Gaussian 09:  ES64L-G09RevD.01 24-Apr-2013

 --------------------
 #p B2PLYPD3/Def2QZVP
 --------------------

 ----------
 butane_opt
 ----------
 Symbolic Z-matrix:
 Charge =  0 Multiplicity = 1

                         Standard orientation:
 ---------------------------------------------------------------------
 Center     Atomic      Atomic             Coordinates (Angstroms)
 Number     Number       Type             X           Y           Z
 ---------------------------------------------------------------------
      1          6           0        1.936292   -0.129478   -0.029189
      2          6           0        0.555427    0.500033    0.048222
      3          1           0        2.722330    0.602757   -0.135968
      4          1           0        1.974827   -0.850970   -0.980684
      5          1           0        2.215922   -0.647874    0.801023
      6          6           0       -0.586969   -0.492512    0.073523
      7          1           0        0.420419    1.205456   -0.868960
      8          1           0        0.517669    1.187848    0.946727
      9          6           0       -1.925548    0.122118   -0.058416
     10          1           0       -0.449586   -1.144041    1.021247
     11          1           0       -0.403113   -1.103090   -0.775767
     12          1           0       -2.193423    0.758246    0.836526
     13          1           0       -2.731979   -0.706591   -0.136615
     14          1           0       -1.948279    0.697294   -0.912369
 ---------------------------------------------------------------------

 SCF Done:  E(RB2PLYPD3) =  -158.107070754     A.U. after   11 cycles
 E2(B2PLYPD3) =    -0.2466958699D+00 E(B2PLYPD3) =    -0.15835376662393D+03

 The electronic state is 1-A.
 Alpha  occ. eigenvalues --  -10.61416 -10.60381 -10.60021 -10.59917  -0.91619
 Alpha  occ. eigenvalues --   -0.83635  -0.72683  -0.65547  -0.54363  -0.49443
 Alpha  occ. eigenvalues --   -0.49055  -0.47603  -0.42982  -0.40758  -0.39509
 Alpha  occ. eigenvalues --   -0.37281  -0.37217
 Alpha virt. eigenvalues --    0.05807   0.06819   0.08052   0.08427   0.10773
 Alpha virt. eigenvalues --    0.11945   0.12939   0.13802   0.14567   0.15317
 Alpha virt. eigenvalues --    0.15831   0.16353   0.19749   0.19996   0.22014

 Mulliken charges:
               1
     1  C   -0.128519
     2  C   -0.033628
     3  H    0.043935
     4  H    0.021508
     5  H    0.050714
     6  C   -0.046607
     7  H    0.014068
     8  H    0.021682
     9  C   -0.146262
    10  H    0.021954
    11  H    0.046323
    12  H    0.038992
    13  H    0.036634
    14  H    0.059206
 Sum of Mulliken charges =   0.00000

 Dipole moment (field-independent basis, Debye):
    X=              0.0841    Y=              0.0365    Z=              0.0299  Tot=              0.0964
 Quadrupole moment (field-independent basis, Debye-Ang):
   XX=            -29.6013   YY=            -29.3258   ZZ=            -28.2004
   XY=              0.2983   XZ=              0.5455   YZ=              0.0199

 Normal termination of Gaussian 09 at Wed Aug 26 22:11:01 2020.
