 Gaussian 09, Revision D.01,
 Gaussian 09:  ES64L-G09RevD.01 24-Apr-2013

 --------------------
 #p B2PLYPD3/Def2QZVP
 --------------------

 ----------
 butane_opt
 ----------
 Symbolic Z-matrix:
 Charge =  0 Multiplicity = 1

                         Standard orientation:
 ---------------------------------------------------------------------
 Center     Atomic      Atomic             Coordinates (Angstroms)
 Number     Number       Type             X           Y           Z
 ---------------------------------------------------------------------
      1          6           0        2.012783   -0.149467   -0.138715
      2          6           0        0.560543    0.636633   -0.009148
      3          1           0        2.553692    0.310742    0.491407
      4          1           0        2.482062   -0.870770   -0.903955
      5          1           0        2.037850   -0.739795    0.831425
      6          6           0       -0.572542   -0.489203    0.068280
      7          1           0        0.103247    1.133445   -0.755812
      8          1           0        0.489147    1.435391    0.878897
      9          6           0       -1.973840    0.053818   -0.044959
     10          1           0       -0.341612   -1.160679    1.026488
     11          1           0       -0.559978   -0.849316   -0.677678
     12          1           0       -2.076690    0.725063    0.852165
     13          1           0       -2.782023   -0.981167   -0.046329
     14          1           0       -2.067351    0.686401   -0.949349
 ---------------------------------------------------------------------

 SCF Done:  E(RB2PLYPD3) =  -157.906328917     A.U. after   11 cycles
 E2(B2PLYPD3) =    -0.2513108892D+00 E(B2PLYPD3) =    -0.15815763980613D+03

 The electronic state is 1-A.
 Alpha  occ. eigenvalues --  -10.62523 -10.62410 -10.60688 -10.58244  -0.91820
 Alpha  occ. eigenvalues --   -0.84029  -0.73995  -0.68127  -0.54803  -0.50837
 Alpha  occ. eigenvalues --   -0.46928  -0.46108  -0.42600  -0.40532  -0.38543
 Alpha  occ. eigenvalues --   -0.38131  -0.33201
 Alpha virt. eigenvalues --    0.05203   0.06089   0.08206   0.08863   0.10894
 Alpha virt. eigenvalues --    0.11296   0.12107   0.13518   0.14656   0.15228
 Alpha virt. eigenvalues --    0.15810   0.17025   0.18115   0.19587   0.20583

 Mulliken charges:
               1
     1  C   -0.207681
     2  C   -0.069137
     3  H    0.087374
     4  H    0.077561
     5  H    0.034054
     6  C   -0.216588
     7  H    0.054738
     8  H    0.020739
     9  C   -0.175827
    10  H    0.033190
    11  H    0.222269
    12  H    0.050724
    13  H    0.037369
    14  H    0.051216
 Sum of Mulliken charges =   0.00000

 Dipole moment (field-independent basis, Debye):
    X=              0.2982    Y=             -0.0968    Z=              0.0767  Tot=              0.3228
 Quadrupole moment (field-independent basis, Debye-Ang):
   XX=            -30.4829   YY=            -29.2370   ZZ=            -27.9372
   XY=             -1.1062   XZ=              1.4986   YZ=              0.7564

 Normal termination of Gaussian 09 at Wed Aug 26 22:02:11 2020.
