 Gaussian 09, Revision D.01,
 Gaussian 09:  ES64L-G09RevD.01 24-Apr-2013

 --------------------
 #p B2PLYPD3/Def2QZVP
 --------------------

 ----------
 butane_opt
 ----------
 Symbolic Z-matrix:
 Charge =  0 Multiplicity = 1

                         Standard orientation:
 ---------------------------------------------------------------------
 Center     Atomic      Atomic             Coordinates (Angstroms)
 Number     Number       Type             X           Y           Z
 ---------------------------------------------------------------------
      1          6           0       -2.044485   -0.178256   -0.086325
      2          6           0       -0.573836    0.646531    0.043608
      3          1           0       -2.725776    0.405976   -0.107932
      4          1           0       -2.107334   -0.551483    0.690848
      5          1           0       -2.130845   -1.012670   -1.016029
      6          6           0        0.604908   -0.512571    0.229290
      7          1           0       -0.384126    1.320183    0.931680
      8          1           0       -0.362361    1.172708   -0.723655
      9          6           0        1.917201    0.086631   -0.209826
     10          1           0        0.564235   -0.903080   -0.486194
     11          1           0        0.855239   -1.389778    1.417473
     12          1           0        1.840166    0.136333   -0.828689
     13          1           0        2.733928   -0.530973   -0.566515
     14          1           0        2.294145    1.098776    0.828527
 ---------------------------------------------------------------------

 SCF Done:  E(RB2PLYPD3) =  -157.353313472     A.U. after   12 cycles
 E2(B2PLYPD3) =    -0.2519890020D+00 E(B2PLYPD3) =    -0.15760530247371D+03

 The electronic state is 1-A.
 Alpha  occ. eigenvalues --  -10.62120 -10.61589 -10.59862 -10.58177  -0.96258
 Alpha  occ. eigenvalues --   -0.86952  -0.78801  -0.71446  -0.54386  -0.52613
 Alpha  occ. eigenvalues --   -0.47499  -0.46934  -0.44911  -0.40808  -0.38056
 Alpha  occ. eigenvalues --   -0.37158  -0.33684
 Alpha virt. eigenvalues --    0.04112   0.06269   0.06908   0.07721   0.09519
 Alpha virt. eigenvalues --    0.11006   0.12447   0.13714   0.14309   0.15071
 Alpha virt. eigenvalues --    0.15881   0.17066   0.18048   0.19229   0.20665

 Mulliken charges:
               1
     1  C   -0.239181
     2  C   -0.081973
     3  H    0.076650
     4  H    0.135205
     5  H    0.031700
     6  C   -0.289081
     7  H    0.041904
     8  H    0.087730
     9  C   -0.755719
    10  H    0.300803
    11  H    0.022493
    12  H    0.589479
    13  H    0.056119
    14  H    0.023870
 Sum of Mulliken charges =   0.00000

 Dipole moment (field-independent basis, Debye):
    X=             -0.4012    Y=             -0.0032    Z=             -0.7575  Tot=              0.8571
 Quadrupole moment (field-independent basis, Debye-Ang):
   XX=            -29.2806   YY=            -29.4066   ZZ=            -27.3268
   XY=             -1.0405   XZ=             -1.4295   YZ=              0.8901

 Normal termination of Gaussian 09 at Wed Aug 26 22:44:44 2020.
