 Gaussian 09, Revision D.01,
 Gaussian 09:  ES64L-G09RevD.01 24-Apr-2013

 --------------------
 #p B2PLYPD3/Def2QZVP
 --------------------

 ----------
 butane_opt
 ----------
 Symbolic Z-matrix:
 Charge =  0 Multiplicity = 1

                         Standard orientation:
 ---------------------------------------------------------------------
 Center     Atomic      Atomic             Coordinates (Angstroms)
 Number     Number       Type             X           Y           Z
 ---------------------------------------------------------------------
      1          6           0        1.952736    0.126475   -0.152462
      2          6           0        0.625960   -0.460298    0.067131
      3          1           0        2.682668   -0.572203   -0.027095
      4          1           0        1.873724    0.523514    0.599857
      5          1           0        1.806620    0.788947   -0.992479
      6          6           0       -0.524417    0.483488    0.178527
      7          1           0        0.699993   -1.279668    1.105927
      8          1           0        0.260744   -0.771714   -0.652549
      9          6           0       -1.930636   -0.124414   -0.107208
     10          1           0       -0.640593    0.818338   -0.452115
     11          1           0       -0.488080    1.358901    1.190148
     12          1           0       -1.791772   -0.833276   -0.897402
     13          1           0       -2.736495    0.600315   -0.550330
     14          1           0       -2.408665   -0.784664    0.760110
 ---------------------------------------------------------------------

 SCF Done:  E(RB2PLYPD3) =  -157.712788944     A.U. after   11 cycles
 E2(B2PLYPD3) =    -0.2490262039D+00 E(B2PLYPD3) =    -0.15796181514775D+03

 The electronic state is 1-A.
 Alpha  occ. eigenvalues --  -10.62433 -10.59730 -10.59361 -10.55867  -0.97204
 Alpha  occ. eigenvalues --   -0.88197  -0.75144  -0.69900  -0.56866  -0.52850
 Alpha  occ. eigenvalues --   -0.49550  -0.48054  -0.42309  -0.41759  -0.40919
 Alpha  occ. eigenvalues --   -0.36914  -0.35229
 Alpha virt. eigenvalues --    0.05620   0.06725   0.08182   0.08322   0.10921
 Alpha virt. eigenvalues --    0.11590   0.12730   0.13722   0.14769   0.15392
 Alpha virt. eigenvalues --    0.15589   0.16615   0.18925   0.19721   0.22143

 Mulliken charges:
               1
     1  C   -0.231425
     2  C   -0.127644
     3  H    0.052191
     4  H    0.165423
     5  H    0.047960
     6  C   -0.556471
     7  H   -0.002375
     8  H    0.163214
     9  C   -0.140586
    10  H    0.495741
    11  H    0.012045
    12  H    0.043596
    13  H    0.043020
    14  H    0.035313
 Sum of Mulliken charges =   0.00000

 Dipole moment (field-independent basis, Debye):
    X=             -0.0483    Y=             -0.0066    Z=             -0.6431  Tot=              0.6450
 Quadrupole moment (field-independent basis, Debye-Ang):
   XX=            -29.1258   YY=            -29.6015   ZZ=            -27.9668
   XY=             -0.6632   XZ=              1.3227   YZ=             -0.5710

 Normal termination of Gaussian 09 at Wed Aug 26 10:19:53 2020.
