 Gaussian 09, Revision D.01,
 Gaussian 09:  ES64L-G09RevD.01 24-Apr-2013

 --------------------
 #p B2PLYPD3/Def2QZVP
 --------------------

 ----------
 butane_opt
 ----------
 Symbolic Z-matrix:
 Charge =  0 Multiplicity = 1

                         Standard orientation:
 ---------------------------------------------------------------------
 Center     Atomic      Atomic             Coordinates (Angstroms)
 Number     Number       Type             X           Y           Z
 ---------------------------------------------------------------------
      1          6           0       -1.841001    0.075549    0.196996
      2          6           0       -0.603711   -0.406936   -0.157386
      3          1           0       -2.822194   -0.894078   -0.071900
      4          1           0       -2.165224    0.408182   -0.595408
      5          1           0       -1.835288    1.014909    1.301675
      6          6           0        0.521731    0.555366   -0.292082
      7          1           0       -0.835215   -0.870850   -0.992980
      8          1           0       -0.556309   -0.999846    0.690579
      9          6           0        1.985547   -0.217542    0.183123
     10          1           0        0.149916    1.036398    0.473742
     11          1           0        0.677331    1.291726   -1.141742
     12          1           0        1.880529   -0.713487    0.979072
     13          1           0        2.735396    0.621367    0.574395
     14          1           0        2.395658   -0.932939   -0.801342
 ---------------------------------------------------------------------

 SCF Done:  E(RB2PLYPD3) =  -157.852788489     A.U. after   11 cycles
 E2(B2PLYPD3) =    -0.2530803142D+00 E(B2PLYPD3) =    -0.15810586880349D+03

 The electronic state is 1-A.
 Alpha  occ. eigenvalues --  -10.63042 -10.62473 -10.60976 -10.57931  -0.96118
 Alpha  occ. eigenvalues --   -0.83202  -0.74274  -0.67373  -0.58779  -0.50787
 Alpha  occ. eigenvalues --   -0.47476  -0.45633  -0.43373  -0.40535  -0.38081
 Alpha  occ. eigenvalues --   -0.35875  -0.33788
 Alpha virt. eigenvalues --    0.03471   0.06025   0.07185   0.08461   0.10135
 Alpha virt. eigenvalues --    0.10883   0.11848   0.12452   0.13515   0.14528
 Alpha virt. eigenvalues --    0.15501   0.17088   0.18735   0.18941   0.20401

 Mulliken charges:
               1
     1  C   -0.204318
     2  C   -0.021842
     3  H    0.002957
     4  H    0.107121
     5  H    0.022125
     6  C   -0.112974
     7  H    0.036958
     8  H    0.069462
     9  C   -0.187968
    10  H    0.071751
    11  H    0.049313
    12  H    0.092737
    13  H    0.032979
    14  H    0.041699
 Sum of Mulliken charges =   0.00000

 Dipole moment (field-independent basis, Debye):
    X=             -0.0363    Y=              0.1095    Z=             -0.3130  Tot=              0.3336
 Quadrupole moment (field-independent basis, Debye-Ang):
   XX=            -31.8844   YY=            -29.6466   ZZ=            -27.8770
   XY=              0.2878   XZ=              1.8907   YZ=              0.3073

 Normal termination of Gaussian 09 at Wed Aug 26 19:09:24 2020.
