 Gaussian 09, Revision D.01,
 Gaussian 09:  ES64L-G09RevD.01 24-Apr-2013

 --------------------
 #p B2PLYPD3/Def2QZVP
 --------------------

 ----------
 butane_opt
 ----------
 Symbolic Z-matrix:
 Charge =  0 Multiplicity = 1

                         Standard orientation:
 ---------------------------------------------------------------------
 Center     Atomic      Atomic             Coordinates (Angstroms)
 Number     Number       Type             X           Y           Z
 ---------------------------------------------------------------------
      1          6           0        2.007532   -0.281495   -0.100131
      2          6           0        0.555783    0.593545    0.153700
      3          1           0        2.891652    0.574778   -0.694575
      4          1           0        1.643196   -0.795698   -0.773622
      5          1           0        2.589090   -0.645809    0.729177
      6          6           0       -0.664509   -0.412385    0.151043
      7          1           0        0.280611    0.956361   -0.552219
      8          1           0        0.338601    1.766284    1.224727
      9          6           0       -1.894691    0.034567   -0.218719
     10          1           0       -0.799134   -1.329489    1.396750
     11          1           0       -0.263966   -0.808397   -0.649827
     12          1           0       -2.139550    0.781693    0.574607
     13          1           0       -2.781717   -0.821796   -0.028170
     14          1           0       -1.783469    0.716679   -1.142205
 ---------------------------------------------------------------------

 SCF Done:  E(RB2PLYPD3) =  -157.767548085     A.U. after   12 cycles
 E2(B2PLYPD3) =    -0.2564715876D+00 E(B2PLYPD3) =    -0.15802401967248D+03

 The electronic state is 1-A.
 Alpha  occ. eigenvalues --  -10.64664 -10.63912 -10.63438 -10.62306  -0.95572
 Alpha  occ. eigenvalues --   -0.84750  -0.75668  -0.66303  -0.54759  -0.52306
 Alpha  occ. eigenvalues --   -0.49207  -0.48392  -0.42727  -0.40217  -0.37353
 Alpha  occ. eigenvalues --   -0.34297  -0.33378
 Alpha virt. eigenvalues --    0.03012   0.05561   0.05754   0.06649   0.09645
 Alpha virt. eigenvalues --    0.10780   0.11515   0.11910   0.14119   0.14494
 Alpha virt. eigenvalues --    0.15519   0.15903   0.17264   0.18603   0.19806

 Mulliken charges:
               1
     1  C   -0.189037
     2  C   -0.283591
     3  H    0.012998
     4  H    0.130204
     5  H    0.090684
     6  C   -0.076230
     7  H    0.265255
     8  H   -0.032509
     9  C   -0.153058
    10  H   -0.026538
    11  H    0.100686
    12  H    0.051872
    13  H    0.070983
    14  H    0.038283
 Sum of Mulliken charges =   0.00000

 Dipole moment (field-independent basis, Debye):
    X=             -0.0178    Y=             -0.3959    Z=             -0.9575  Tot=              1.0362
 Quadrupole moment (field-independent basis, Debye-Ang):
   XX=            -29.1355   YY=            -31.2492   ZZ=            -29.8179
   XY=             -0.7906   XZ=             -0.1353   YZ=             -0.7564

 Normal termination of Gaussian 09 at Wed Aug 26 16:24:13 2020.
