 Gaussian 09, Revision D.01,
 Gaussian 09:  ES64L-G09RevD.01 24-Apr-2013

 --------------------
 #p B2PLYPD3/Def2QZVP
 --------------------

 ----------
 butane_opt
 ----------
 Symbolic Z-matrix:
 Charge =  0 Multiplicity = 1

                         Standard orientation:
 ---------------------------------------------------------------------
 Center     Atomic      Atomic             Coordinates (Angstroms)
 Number     Number       Type             X           Y           Z
 ---------------------------------------------------------------------
      1          6           0        1.991729    0.092028    0.079424
      2          6           0        0.580008   -0.465191   -0.114602
      3          1           0        2.709280   -0.610235    0.127583
      4          1           0        2.046380    0.602861    0.956178
      5          1           0        2.019495    0.697085   -0.852476
      6          6           0       -0.546688    0.535685   -0.014805
      7          1           0        0.461765   -1.154161    0.738568
      8          1           0        0.690731   -1.106195   -1.112237
      9          6           0       -2.013282   -0.138095    0.024787
     10          1           0       -0.383385    1.187592   -0.817411
     11          1           0       -0.427080    1.245948    1.000657
     12          1           0       -2.062574   -0.554227   -0.726204
     13          1           0       -2.804088    0.611570   -0.216859
     14          1           0       -2.321125   -1.066799    1.053376
 ---------------------------------------------------------------------

 SCF Done:  E(RB2PLYPD3) =  -157.982803216     A.U. after   11 cycles
 E2(B2PLYPD3) =    -0.2487492667D+00 E(B2PLYPD3) =    -0.15823155248299D+03

 The electronic state is 1-A.
 Alpha  occ. eigenvalues --  -10.62739 -10.61324 -10.61280 -10.58144  -0.91046
 Alpha  occ. eigenvalues --   -0.84169  -0.74768  -0.65530  -0.54507  -0.50329
 Alpha  occ. eigenvalues --   -0.48701  -0.46960  -0.42211  -0.40321  -0.39508
 Alpha  occ. eigenvalues --   -0.36989  -0.36168
 Alpha virt. eigenvalues --    0.05175   0.06249   0.07756   0.08330   0.10529
 Alpha virt. eigenvalues --    0.11479   0.12715   0.13294   0.14642   0.15074
 Alpha virt. eigenvalues --    0.15450   0.16488   0.18994   0.19834   0.20917

 Mulliken charges:
               1
     1  C   -0.130804
     2  C   -0.060920
     3  H    0.051193
     4  H    0.049237
     5  H    0.039433
     6  C   -0.030968
     7  H    0.026405
     8  H    0.019651
     9  C   -0.256375
    10  H    0.047839
    11  H    0.009679
    12  H    0.161238
    13  H    0.042522
    14  H    0.031870
 Sum of Mulliken charges =   0.00000

 Dipole moment (field-independent basis, Debye):
    X=              0.1089    Y=             -0.0423    Z=             -0.3783  Tot=              0.3959
 Quadrupole moment (field-independent basis, Debye-Ang):
   XX=            -29.6286   YY=            -29.5142   ZZ=            -28.0284
   XY=             -0.7677   XZ=              1.1857   YZ=             -0.4848

 Normal termination of Gaussian 09 at Wed Aug 26 10:30:20 2020.
