 Gaussian 09, Revision D.01,
 Gaussian 09:  ES64L-G09RevD.01 24-Apr-2013

 --------------------
 #p B2PLYPD3/Def2QZVP
 --------------------

 ----------
 butane_opt
 ----------
 Symbolic Z-matrix:
 Charge =  0 Multiplicity = 1

                         Standard orientation:
 ---------------------------------------------------------------------
 Center     Atomic      Atomic             Coordinates (Angstroms)
 Number     Number       Type             X           Y           Z
 ---------------------------------------------------------------------
      1          6           0       -1.933499   -0.129589   -0.045124
      2          6           0       -0.531707    0.549374   -0.027623
      3          1           0       -2.624114    0.544313    0.044588
      4          1           0       -2.198735   -0.659053    0.844564
      5          1           0       -2.152146   -0.930912   -0.997408
      6          6           0        0.550829   -0.423968    0.155449
      7          1           0       -0.325434    1.385513    0.830744
      8          1           0       -0.345357    0.957780   -0.888065
      9          6           0        1.916785    0.059604   -0.075094
     10          1           0        0.514789   -1.108070   -0.612270
     11          1           0        0.400746   -1.196009    1.158926
     12          1           0        1.710813    0.558613   -0.991941
     13          1           0        2.783150   -0.783332   -0.318376
     14          1           0        2.221844    0.898633    0.883594
 ---------------------------------------------------------------------

 SCF Done:  E(RB2PLYPD3) =  -158.007277336     A.U. after   11 cycles
 E2(B2PLYPD3) =    -0.2495591964D+00 E(B2PLYPD3) =    -0.15825683653269D+03

 The electronic state is 1-A.
 Alpha  occ. eigenvalues --  -10.63065 -10.61037 -10.60614 -10.60530  -0.93353
 Alpha  occ. eigenvalues --   -0.83812  -0.73632  -0.65493  -0.54497  -0.49773
 Alpha  occ. eigenvalues --   -0.49279  -0.46236  -0.42787  -0.40096  -0.39556
 Alpha  occ. eigenvalues --   -0.37350  -0.35631
 Alpha virt. eigenvalues --    0.05326   0.06325   0.07856   0.08134   0.10531
 Alpha virt. eigenvalues --    0.11244   0.12693   0.13740   0.14198   0.15178
 Alpha virt. eigenvalues --    0.15442   0.16235   0.19454   0.19866   0.20679

 Mulliken charges:
               1
     1  C   -0.133306
     2  C   -0.063903
     3  H    0.058533
     4  H    0.037177
     5  H    0.027465
     6  C   -0.021684
     7  H    0.014605
     8  H    0.072181
     9  C   -0.168017
    10  H    0.046717
    11  H   -0.003097
    12  H    0.066462
    13  H    0.050099
    14  H    0.016768
 Sum of Mulliken charges =   0.00000

 Dipole moment (field-independent basis, Debye):
    X=             -0.3541    Y=             -0.0204    Z=             -0.4389  Tot=              0.5643
 Quadrupole moment (field-independent basis, Debye-Ang):
   XX=            -29.9602   YY=            -29.5836   ZZ=            -28.6505
   XY=             -0.7623   XZ=             -1.0198   YZ=              0.5961

 Normal termination of Gaussian 09 at Wed Aug 26 12:03:30 2020.
