 Gaussian 09, Revision D.01,
 Gaussian 09:  ES64L-G09RevD.01 24-Apr-2013

 --------------------
 #p B2PLYPD3/Def2QZVP
 --------------------

 ----------
 butane_opt
 ----------
 Symbolic Z-matrix:
 Charge =  0 Multiplicity = 1

                         Standard orientation:
 ---------------------------------------------------------------------
 Center     Atomic      Atomic             Coordinates (Angstroms)
 Number     Number       Type             X           Y           Z
 ---------------------------------------------------------------------
      1          6           0       -1.868991   -0.102209    0.133132
      2          6           0       -0.582481    0.416904   -0.300803
      3          1           0       -2.798630    0.792192    0.433748
      4          1           0       -1.519118   -0.804337    1.182868
      5          1           0       -2.126334   -0.596153   -0.461195
      6          6           0        0.525000   -0.600165   -0.079633
      7          1           0       -0.627053    1.177633    0.454626
      8          1           0       -0.643062    1.064740   -1.276178
      9          6           0        1.982494    0.178313    0.070229
     10          1           0        0.498845   -1.270308   -0.833324
     11          1           0        0.107803   -0.905956    0.665231
     12          1           0        2.198662    0.383258   -0.444459
     13          1           0        2.703919   -0.453640    0.199456
     14          1           0        1.868835    1.255509    1.141677
 ---------------------------------------------------------------------

 SCF Done:  E(RB2PLYPD3) =  -157.361109384     A.U. after   11 cycles
 E2(B2PLYPD3) =    -0.2506823394D+00 E(B2PLYPD3) =    -0.15761179172385D+03

 The electronic state is 1-A.
 Alpha  occ. eigenvalues --  -10.60696 -10.60196 -10.59884 -10.59177  -0.94626
 Alpha  occ. eigenvalues --   -0.89452  -0.79549  -0.68517  -0.56932  -0.52128
 Alpha  occ. eigenvalues --   -0.49943  -0.48568  -0.42870  -0.39965  -0.38020
 Alpha  occ. eigenvalues --   -0.37040  -0.36019
 Alpha virt. eigenvalues --    0.04661   0.05892   0.07946   0.08061   0.10312
 Alpha virt. eigenvalues --    0.11034   0.11839   0.13840   0.14868   0.15310
 Alpha virt. eigenvalues --    0.16035   0.16563   0.18796   0.19579   0.21471

 Mulliken charges:
               1
     1  C   -0.318825
     2  C   -0.006348
     3  H    0.034070
     4  H    0.015142
     5  H    0.203873
     6  C   -0.094189
     7  H    0.042994
     8  H    0.012199
     9  C   -0.664669
    10  H    0.043771
    11  H    0.130658
    12  H    0.519353
    13  H    0.063198
    14  H    0.018774
 Sum of Mulliken charges =   0.00000

 Dipole moment (field-independent basis, Debye):
    X=              0.1403    Y=             -0.3829    Z=             -0.5744  Tot=              0.7044
 Quadrupole moment (field-independent basis, Debye-Ang):
   XX=            -29.1024   YY=            -28.6938   ZZ=            -28.4682
   XY=             -1.1903   XZ=             -0.7236   YZ=              0.6774

 Normal termination of Gaussian 09 at Wed Aug 26 23:16:55 2020.
