 Gaussian 09, Revision D.01,
 Gaussian 09:  ES64L-G09RevD.01 24-Apr-2013

 --------------------
 #p B2PLYPD3/Def2QZVP
 --------------------

 ----------
 butane_opt
 ----------
 Symbolic Z-matrix:
 Charge =  0 Multiplicity = 1

                         Standard orientation:
 ---------------------------------------------------------------------
 Center     Atomic      Atomic             Coordinates (Angstroms)
 Number     Number       Type             X           Y           Z
 ---------------------------------------------------------------------
      1          6           0       -2.026145   -0.128627   -0.038488
      2          6           0       -0.602581    0.538694    0.054191
      3          1           0       -2.738411    0.435908   -0.484141
      4          1           0       -2.464895   -0.551369    0.917586
      5          1           0       -1.989876   -1.092442   -1.032542
      6          6           0        0.643634   -0.488469    0.289741
      7          1           0       -0.264324    1.280178    0.858922
      8          1           0       -0.486853    1.249446   -1.017980
      9          6           0        1.982618    0.104443   -0.170775
     10          1           0        0.402128   -1.061692   -0.451915
     11          1           0        0.682404   -0.955503    1.278125
     12          1           0        1.525355    0.294809   -1.010112
     13          1           0        2.854344   -0.960443   -0.642126
     14          1           0        2.494974    1.204863    0.776168
 ---------------------------------------------------------------------

 SCF Done:  E(RB2PLYPD3) =  -157.879323405     A.U. after   11 cycles
 E2(B2PLYPD3) =    -0.2560748258D+00 E(B2PLYPD3) =    -0.15813539823111D+03

 The electronic state is 1-A.
 Alpha  occ. eigenvalues --  -10.65816 -10.65110 -10.64105 -10.60784  -0.91250
 Alpha  occ. eigenvalues --   -0.82807  -0.71420  -0.65453  -0.54997  -0.49589
 Alpha  occ. eigenvalues --   -0.47652  -0.43388  -0.40787  -0.40105  -0.38665
 Alpha  occ. eigenvalues --   -0.37243  -0.33237
 Alpha virt. eigenvalues --    0.02590   0.04827   0.07371   0.07521   0.09069
 Alpha virt. eigenvalues --    0.10031   0.11473   0.12672   0.13371   0.14242
 Alpha virt. eigenvalues --    0.15448   0.16538   0.18023   0.18344   0.19629

 Mulliken charges:
               1
     1  C   -0.137273
     2  C   -0.069049
     3  H    0.072943
     4  H    0.062338
     5  H    0.001075
     6  C   -0.085719
     7  H    0.040337
     8  H    0.008727
     9  C   -0.206016
    10  H    0.103711
    11  H    0.045659
    12  H    0.109774
    13  H    0.020937
    14  H    0.032555
 Sum of Mulliken charges =   0.00000

 Dipole moment (field-independent basis, Debye):
    X=             -0.8525    Y=             -0.0276    Z=              0.0232  Tot=              0.8533
 Quadrupole moment (field-independent basis, Debye-Ang):
   XX=            -31.6295   YY=            -30.5633   ZZ=            -28.6074
   XY=             -0.5840   XZ=              0.3577   YZ=              0.4806

 Normal termination of Gaussian 09 at Wed Aug 26 11:27:26 2020.
