 Gaussian 09, Revision D.01,
 Gaussian 09:  ES64L-G09RevD.01 24-Apr-2013

 --------------------
 #p B2PLYPD3/Def2QZVP
 --------------------

 ----------
 butane_opt
 ----------
 Symbolic Z-matrix:
 Charge =  0 Multiplicity = 1

                         Standard orientation:
 ---------------------------------------------------------------------
 Center     Atomic      Atomic             Coordinates (Angstroms)
 Number     Number       Type             X           Y           Z
 ---------------------------------------------------------------------
      1          6           0       -1.945814    0.030372   -0.232149
      2          6           0       -0.634858   -0.492011    0.330756
      3          1           0       -2.729021   -0.651123   -0.649124
      4          1           0       -1.779717    0.362437   -0.954725
      5          1           0       -2.373694    1.077019    0.679432
      6          6           0        0.495107    0.635745    0.099799
      7          1           0       -0.440108   -1.063816   -0.379867
      8          1           0       -0.485819   -1.357221    1.491793
      9          6           0        2.062387   -0.102447   -0.158978
     10          1           0        0.570152    1.611685    0.995135
     11          1           0        0.137901    0.948413   -0.777020
     12          1           0        2.303835   -0.749459    0.801019
     13          1           0        2.680726    0.479520   -0.308517
     14          1           0        2.254807   -1.087403   -1.134694
 ---------------------------------------------------------------------

 SCF Done:  E(RB2PLYPD3) =  -157.753112030     A.U. after   11 cycles
 E2(B2PLYPD3) =    -0.2537736889D+00 E(B2PLYPD3) =    -0.15800688571851D+03

 The electronic state is 1-A.
 Alpha  occ. eigenvalues --  -10.65204 -10.63377 -10.63085 -10.61409  -0.92500
 Alpha  occ. eigenvalues --   -0.82899  -0.75885  -0.68182  -0.52069  -0.51185
 Alpha  occ. eigenvalues --   -0.48660  -0.45853  -0.41662  -0.38683  -0.37920
 Alpha  occ. eigenvalues --   -0.37158  -0.35409
 Alpha virt. eigenvalues --    0.04385   0.05221   0.06756   0.07309   0.09711
 Alpha virt. eigenvalues --    0.11064   0.11752   0.12745   0.13538   0.14077
 Alpha virt. eigenvalues --    0.16324   0.16953   0.17635   0.18862   0.19742

 Mulliken charges:
               1
     1  C   -0.347385
     2  C   -0.111553
     3  H    0.052808
     4  H    0.238971
     5  H    0.012752
     6  C   -0.097577
     7  H    0.147184
     8  H    0.010515
     9  C   -0.248718
    10  H    0.030024
    11  H    0.097355
    12  H    0.053561
    13  H    0.157141
    14  H    0.004923
 Sum of Mulliken charges =   0.00000

 Dipole moment (field-independent basis, Debye):
    X=              0.2812    Y=              0.0171    Z=             -0.8457  Tot=              0.8913
 Quadrupole moment (field-independent basis, Debye-Ang):
   XX=            -30.6110   YY=            -29.5161   ZZ=            -28.8997
   XY=              0.9662   XZ=              2.0196   YZ=              0.5231

 Normal termination of Gaussian 09 at Wed Aug 26 12:58:04 2020.
