 Gaussian 09, Revision D.01,
 Gaussian 09:  ES64L-G09RevD.01 24-Apr-2013

 --------------------
 #p B2PLYPD3/Def2QZVP
 --------------------

 ----------
 butane_opt
 ----------
 Symbolic Z-matrix:
 Charge =  0 Multiplicity = 1

                         Standard orientation:
 ---------------------------------------------------------------------
 Center     Atomic      Atomic             Coordinates (Angstroms)
 Number     Number       Type             X           Y           Z
 ---------------------------------------------------------------------
      1          6           0       -1.972736   -0.125439    0.078370
      2          6           0       -0.588033    0.505205   -0.126958
      3          1           0       -2.786394    0.620724   -0.112824
      4          1           0       -1.907428   -0.929872    1.153799
      5          1           0       -2.143203   -0.450150   -0.619095
      6          6           0        0.545885   -0.541005   -0.022862
      7          1           0       -0.485496    1.209659    0.784736
      8          1           0       -0.565561    1.211594   -1.146359
      9          6           0        2.013553    0.126886    0.045411
     10          1           0        0.411839   -1.331249   -0.923365
     11          1           0        0.380316   -1.061880    0.846074
     12          1           0        2.032721    0.321051   -0.604626
     13          1           0        2.801793   -0.560898   -0.337475
     14          1           0        2.269402    1.177145    1.115373
 ---------------------------------------------------------------------

 SCF Done:  E(RB2PLYPD3) =  -157.585748009     A.U. after   11 cycles
 E2(B2PLYPD3) =    -0.2521437909D+00 E(B2PLYPD3) =    -0.15783789179958D+03

 The electronic state is 1-A.
 Alpha  occ. eigenvalues --  -10.62970 -10.62359 -10.60331 -10.59417  -0.92342
 Alpha  occ. eigenvalues --   -0.88027  -0.77752  -0.66402  -0.52993  -0.49855
 Alpha  occ. eigenvalues --   -0.47023  -0.45833  -0.41720  -0.39456  -0.38395
 Alpha  occ. eigenvalues --   -0.37857  -0.36527
 Alpha virt. eigenvalues --    0.04306   0.05467   0.07032   0.07570   0.10009
 Alpha virt. eigenvalues --    0.10614   0.12301   0.12923   0.13799   0.15518
 Alpha virt. eigenvalues --    0.15931   0.16447   0.18425   0.18967   0.21542

 Mulliken charges:
               1
     1  C   -0.359760
     2  C   -0.026861
     3  H    0.041123
     4  H    0.047380
     5  H    0.244040
     6  C   -0.017720
     7  H    0.037464
     8  H    0.009214
     9  C   -0.681148
    10  H    0.007949
    11  H    0.061085
    12  H    0.526021
    13  H    0.056105
    14  H    0.055106
 Sum of Mulliken charges =   0.00000

 Dipole moment (field-independent basis, Debye):
    X=             -0.1785    Y=             -0.0823    Z=             -0.6527  Tot=              0.6817
 Quadrupole moment (field-independent basis, Debye-Ang):
   XX=            -30.0445   YY=            -29.5343   ZZ=            -27.7662
   XY=             -0.0337   XZ=             -0.0697   YZ=              0.3009

 Normal termination of Gaussian 09 at Wed Aug 26 23:48:16 2020.
