 Gaussian 09, Revision D.01,
 Gaussian 09:  ES64L-G09RevD.01 24-Apr-2013

 --------------------
 #p B2PLYPD3/Def2QZVP
 --------------------

 ----------
 butane_opt
 ----------
 Symbolic Z-matrix:
 Charge =  0 Multiplicity = 1

                         Standard orientation:
 ---------------------------------------------------------------------
 Center     Atomic      Atomic             Coordinates (Angstroms)
 Number     Number       Type             X           Y           Z
 ---------------------------------------------------------------------
      1          6           0        1.834877   -0.022745    0.167036
      2          6           0        0.600988   -0.405989   -0.269941
      3          1           0        2.634840   -0.692352   -0.354466
      4          1           0        1.963768    0.790891    1.625747
      5          1           0        1.876562    0.437190   -0.470748
      6          6           0       -0.421103    0.549744    0.057133
      7          1           0        0.262450   -0.993688    0.276290
      8          1           0        0.549445   -0.990842   -1.424130
      9          6           0       -1.934536   -0.121745    0.122954
     10          1           0       -0.349395    1.858355   -1.014714
     11          1           0       -0.205703    0.778454    0.920941
     12          1           0       -1.968023   -0.278611   -0.489354
     13          1           0       -2.699360    0.630742   -0.667068
     14          1           0       -2.545936   -1.535726    1.134410
 ---------------------------------------------------------------------

 SCF Done:  E(RB2PLYPD3) =  -157.069044763     A.U. after   13 cycles
 E2(B2PLYPD3) =    -0.2658116949D+00 E(B2PLYPD3) =    -0.15733485645815D+03

 The electronic state is 1-A.
 Alpha  occ. eigenvalues --  -10.65702 -10.64477 -10.61190 -10.60303  -1.00279
 Alpha  occ. eigenvalues --   -0.90999  -0.81877  -0.69765  -0.55368  -0.52424
 Alpha  occ. eigenvalues --   -0.47094  -0.43242  -0.41516  -0.37914  -0.37803
 Alpha  occ. eigenvalues --   -0.36461  -0.32257
 Alpha virt. eigenvalues --   -0.03844   0.00695   0.01771   0.06118   0.07924
 Alpha virt. eigenvalues --    0.10340   0.11159   0.12275   0.13158   0.14625
 Alpha virt. eigenvalues --    0.15059   0.15918   0.17439   0.18369   0.20096

 Mulliken charges:
               1
     1  C   -0.411583
     2  C   -0.137190
     3  H    0.050640
     4  H    0.039429
     5  H    0.316777
     6  C   -0.093040
     7  H    0.167743
     8  H    0.019924
     9  C   -0.853590
    10  H   -0.047445
    11  H    0.148224
    12  H    0.710838
    13  H    0.038217
    14  H    0.051057
 Sum of Mulliken charges =   0.00000

 Dipole moment (field-independent basis, Debye):
    X=              0.4609    Y=             -1.0081    Z=             -0.7020  Tot=              1.3121
 Quadrupole moment (field-independent basis, Debye-Ang):
   XX=            -32.3241   YY=            -31.0063   ZZ=            -27.9893
   XY=              1.6915   XZ=              0.3739   YZ=              0.2250

 Normal termination of Gaussian 09 at Wed Aug 26 13:27:45 2020.
