 Gaussian 09, Revision D.01,
 Gaussian 09:  ES64L-G09RevD.01 24-Apr-2013

 --------------------
 #p B2PLYPD3/Def2QZVP
 --------------------

 ----------
 butane_opt
 ----------
 Symbolic Z-matrix:
 Charge =  0 Multiplicity = 1

                         Standard orientation:
 ---------------------------------------------------------------------
 Center     Atomic      Atomic             Coordinates (Angstroms)
 Number     Number       Type             X           Y           Z
 ---------------------------------------------------------------------
      1          6           0       -1.926205    0.044908   -0.169124
      2          6           0       -0.596323   -0.386898    0.189095
      3          1           0       -2.879945   -0.840167    0.060810
      4          1           0       -2.017253    0.733872   -1.206063
      5          1           0       -1.892422    0.687156    0.564676
      6          6           0        0.546294    0.568376    0.176792
      7          1           0       -0.304584   -0.871947   -0.511403
      8          1           0       -0.592562   -1.073378    1.153337
      9          6           0        1.975433   -0.198540   -0.190295
     10          1           0        0.758711    1.566358    1.075756
     11          1           0        0.372541    0.876895   -0.392701
     12          1           0        2.725924   -0.798042    0.795983
     13          1           0        2.514671    0.281008   -0.852861
     14          1           0        1.319726   -0.728834   -0.726341
 ---------------------------------------------------------------------

 SCF Done:  E(RB2PLYPD3) =  -157.603408725     A.U. after   11 cycles
 E2(B2PLYPD3) =    -0.2522829948D+00 E(B2PLYPD3) =    -0.15785569171981D+03

 The electronic state is 1-A.
 Alpha  occ. eigenvalues --  -10.62192 -10.61403 -10.60432 -10.59457  -0.97769
 Alpha  occ. eigenvalues --   -0.85848  -0.75844  -0.70487  -0.55772  -0.52088
 Alpha  occ. eigenvalues --   -0.48502  -0.47020  -0.43015  -0.40825  -0.38631
 Alpha  occ. eigenvalues --   -0.37543  -0.34364
 Alpha virt. eigenvalues --    0.04724   0.05960   0.07883   0.08037   0.10778
 Alpha virt. eigenvalues --    0.10967   0.12344   0.13009   0.14195   0.15077
 Alpha virt. eigenvalues --    0.15966   0.17032   0.17151   0.19494   0.20968

 Mulliken charges:
               1
     1  C   -0.198519
     2  C   -0.072483
     3  H    0.049588
     4  H    0.030006
     5  H    0.097727
     6  C   -0.709811
     7  H    0.131186
     8  H    0.023316
     9  C   -0.171837
    10  H    0.022293
    11  H    0.608689
    12  H    0.049773
    13  H    0.068164
    14  H    0.071909
 Sum of Mulliken charges =   0.00000

 Dipole moment (field-independent basis, Debye):
    X=             -0.0919    Y=             -0.0588    Z=             -0.5059  Tot=              0.5175
 Quadrupole moment (field-independent basis, Debye-Ang):
   XX=            -29.8570   YY=            -29.8168   ZZ=            -28.3300
   XY=              0.7268   XZ=             -0.3994   YZ=             -1.1322

 Normal termination of Gaussian 09 at Wed Aug 26 18:51:30 2020.
