 Gaussian 09, Revision D.01,
 Gaussian 09:  ES64L-G09RevD.01 24-Apr-2013

 --------------------
 #p B2PLYPD3/Def2QZVP
 --------------------

 ----------
 butane_opt
 ----------
 Symbolic Z-matrix:
 Charge =  0 Multiplicity = 1

                         Standard orientation:
 ---------------------------------------------------------------------
 Center     Atomic      Atomic             Coordinates (Angstroms)
 Number     Number       Type             X           Y           Z
 ---------------------------------------------------------------------
      1          6           0       -1.935914   -0.172540    0.098126
      2          6           0       -0.528968    0.595717   -0.232646
      3          1           0       -2.646137    0.378797    0.861695
      4          1           0       -1.836145   -0.582026    0.882659
      5          1           0       -2.534871   -0.989787   -0.801570
      6          6           0        0.602147   -0.437107   -0.108498
      7          1           0       -0.206990    1.211445    0.593638
      8          1           0       -0.590419    1.480968   -1.136990
      9          6           0        1.834218    0.043011    0.064399
     10          1           0        0.524774   -1.018336   -0.974979
     11          1           0        0.533435   -1.309359    0.805162
     12          1           0        2.301645    0.465468   -0.692075
     13          1           0        2.686135   -0.886240    0.139980
     14          1           0        1.939673    1.074577    1.394194
 ---------------------------------------------------------------------

 SCF Done:  E(RB2PLYPD3) =  -157.827721376     A.U. after   12 cycles
 E2(B2PLYPD3) =    -0.2562317217D+00 E(B2PLYPD3) =    -0.15808395309725D+03

 The electronic state is 1-A.
 Alpha  occ. eigenvalues --  -10.64443 -10.64137 -10.62012 -10.61895  -0.94183
 Alpha  occ. eigenvalues --   -0.84825  -0.74373  -0.66254  -0.56087  -0.50251
 Alpha  occ. eigenvalues --   -0.48525  -0.46656  -0.40238  -0.38918  -0.37461
 Alpha  occ. eigenvalues --   -0.36128  -0.33110
 Alpha virt. eigenvalues --    0.02392   0.05253   0.06165   0.06782   0.09400
 Alpha virt. eigenvalues --    0.10376   0.11066   0.12571   0.13542   0.14673
 Alpha virt. eigenvalues --    0.16415   0.16613   0.18083   0.18369   0.19809

 Mulliken charges:
               1
     1  C   -0.256110
     2  C   -0.066381
     3  H    0.025401
     4  H    0.152796
     5  H    0.046597
     6  C    0.003980
     7  H    0.049959
     8  H    0.040348
     9  C   -0.150003
    10  H    0.050740
    11  H    0.029466
    12  H    0.079096
    13  H    0.032896
    14  H   -0.038784
 Sum of Mulliken charges =   0.00000

 Dipole moment (field-independent basis, Debye):
    X=              0.0377    Y=             -0.6369    Z=             -0.4143  Tot=              0.7607
 Quadrupole moment (field-independent basis, Debye-Ang):
   XX=            -31.7157   YY=            -29.8351   ZZ=            -28.9050
   XY=             -0.2694   XZ=             -2.8188   YZ=             -0.1210

 Normal termination of Gaussian 09 at Wed Aug 26 23:40:58 2020.
