 Gaussian 09, Revision D.01,
 Gaussian 09:  ES64L-G09RevD.01 24-Apr-2013

 --------------------
 #p B2PLYPD3/Def2QZVP
 --------------------

 ----------
 butane_opt
 ----------
 Symbolic Z-matrix:
 Charge =  0 Multiplicity = 1

                         Standard orientation:
 ---------------------------------------------------------------------
 Center     Atomic      Atomic             Coordinates (Angstroms)
 Number     Number       Type             X           Y           Z
 ---------------------------------------------------------------------
      1          6           0       -2.008559   -0.211456   -0.148111
      2          6           0       -0.561723    0.537578    0.037365
      3          1           0       -2.921659    0.562642   -0.227249
      4          1           0       -2.178451   -0.637825    0.679250
      5          1           0       -2.236061   -0.921420   -0.810766
      6          6           0        0.688331   -0.428050    0.311872
      7          1           0       -0.556167    1.582270    0.929152
      8          1           0       -0.209870    0.948466   -0.675447
      9          6           0        1.903013    0.068067   -0.178416
     10          1           0        0.417446   -0.795291   -0.178743
     11          1           0        0.683645   -0.984124    1.386290
     12          1           0        1.651378    0.430073   -1.075601
     13          1           0        2.747903   -0.821071   -0.826004
     14          1           0        2.475467    0.839444    0.662860
 ---------------------------------------------------------------------

 SCF Done:  E(RB2PLYPD3) =  -157.631403671     A.U. after   11 cycles
 E2(B2PLYPD3) =    -0.2507663448D+00 E(B2PLYPD3) =    -0.15788217001557D+03

 The electronic state is 1-A.
 Alpha  occ. eigenvalues --  -10.63118 -10.63081 -10.60134 -10.57687  -0.96848
 Alpha  occ. eigenvalues --   -0.84472  -0.75479  -0.71042  -0.56552  -0.51555
 Alpha  occ. eigenvalues --   -0.47118  -0.46633  -0.42742  -0.41991  -0.41304
 Alpha  occ. eigenvalues --   -0.38167  -0.32962
 Alpha virt. eigenvalues --    0.04367   0.06121   0.08023   0.08301   0.10222
 Alpha virt. eigenvalues --    0.11421   0.12476   0.12865   0.14523   0.15016
 Alpha virt. eigenvalues --    0.15502   0.16928   0.18651   0.18824   0.20381

 Mulliken charges:
               1
     1  C   -0.155349
     2  C   -0.122215
     3  H    0.032913
     4  H    0.081145
     5  H    0.040104
     6  C   -0.704483
     7  H   -0.004558
     8  H    0.130515
     9  C   -0.135066
    10  H    0.649775
    11  H    0.051315
    12  H    0.066490
    13  H    0.015311
    14  H    0.054103
 Sum of Mulliken charges =   0.00000

 Dipole moment (field-independent basis, Debye):
    X=             -0.5407    Y=             -0.3315    Z=             -0.4898  Tot=              0.8013
 Quadrupole moment (field-independent basis, Debye-Ang):
   XX=            -30.0422   YY=            -29.5389   ZZ=            -28.1379
   XY=              1.3521   XZ=              0.0287   YZ=              0.2971

 Normal termination of Gaussian 09 at Wed Aug 26 21:38:53 2020.
