 Gaussian 09, Revision D.01,
 Gaussian 09:  ES64L-G09RevD.01 24-Apr-2013

 --------------------
 #p B2PLYPD3/Def2QZVP
 --------------------

 ----------
 butane_opt
 ----------
 Symbolic Z-matrix:
 Charge =  0 Multiplicity = 1

                         Standard orientation:
 ---------------------------------------------------------------------
 Center     Atomic      Atomic             Coordinates (Angstroms)
 Number     Number       Type             X           Y           Z
 ---------------------------------------------------------------------
      1          6           0        1.920600    0.122811   -0.089316
      2          6           0        0.561369   -0.493385    0.148298
      3          1           0        2.686670   -0.572378   -0.436728
      4          1           0        2.207277    0.919430    0.868278
      5          1           0        1.921538    0.594142   -0.898262
      6          6           0       -0.585837    0.464326    0.018357
      7          1           0        0.573550   -1.291592    1.087569
      8          1           0        0.413580   -1.128363   -0.649863
      9          6           0       -1.919000   -0.112635   -0.068346
     10          1           0       -0.339614    0.976960   -0.799352
     11          1           0       -0.393137    1.346847    0.993283
     12          1           0       -2.095514   -0.692388   -0.895935
     13          1           0       -2.790846    0.690575   -0.083554
     14          1           0       -2.046294   -0.729932    0.760608
 ---------------------------------------------------------------------

 SCF Done:  E(RB2PLYPD3) =  -158.025460748     A.U. after   11 cycles
 E2(B2PLYPD3) =    -0.2478769395D+00 E(B2PLYPD3) =    -0.15827333768796D+03

 The electronic state is 1-A.
 Alpha  occ. eigenvalues --  -10.61331 -10.61065 -10.59991 -10.59505  -0.92968
 Alpha  occ. eigenvalues --   -0.84920  -0.74160  -0.66718  -0.54156  -0.51420
 Alpha  occ. eigenvalues --   -0.49552  -0.46636  -0.42856  -0.41701  -0.39292
 Alpha  occ. eigenvalues --   -0.37923  -0.35133
 Alpha virt. eigenvalues --    0.05480   0.06690   0.07753   0.08329   0.10907
 Alpha virt. eigenvalues --    0.11687   0.12763   0.13181   0.14816   0.15165
 Alpha virt. eigenvalues --    0.15887   0.16453   0.19601   0.19965   0.21068

 Mulliken charges:
               1
     1  C   -0.165872
     2  C   -0.019685
     3  H    0.038912
     4  H    0.030532
     5  H    0.069051
     6  C   -0.052055
     7  H    0.012303
     8  H    0.036371
     9  C   -0.138434
    10  H    0.065307
    11  H   -0.013415
    12  H    0.042752
    13  H    0.036070
    14  H    0.058163
 Sum of Mulliken charges =   0.00000

 Dipole moment (field-independent basis, Debye):
    X=             -0.0948    Y=             -0.3045    Z=             -0.8185  Tot=              0.8785
 Quadrupole moment (field-independent basis, Debye-Ang):
   XX=            -29.5647   YY=            -29.4670   ZZ=            -28.3062
   XY=              0.0969   XZ=             -0.6014   YZ=              0.0422

 Normal termination of Gaussian 09 at Wed Aug 26 15:16:03 2020.
