 Gaussian 09, Revision D.01,
 Gaussian 09:  ES64L-G09RevD.01 24-Apr-2013

 --------------------
 #p B2PLYPD3/Def2QZVP
 --------------------

 ----------
 butane_opt
 ----------
 Symbolic Z-matrix:
 Charge =  0 Multiplicity = 1

                         Standard orientation:
 ---------------------------------------------------------------------
 Center     Atomic      Atomic             Coordinates (Angstroms)
 Number     Number       Type             X           Y           Z
 ---------------------------------------------------------------------
      1          6           0        1.932427   -0.141935    0.058066
      2          6           0        0.466975    0.514944   -0.108313
      3          1           0        2.609964    0.711822    0.183502
      4          1           0        2.067117   -0.335599   -0.539331
      5          1           0        2.096157   -1.086991    1.067314
      6          6           0       -0.520887   -0.533196   -0.250827
      7          1           0        0.285677    1.239812   -0.952259
      8          1           0        0.452889    1.130341    0.890301
      9          6           0       -1.833754    0.130723    0.162836
     10          1           0       -0.393936   -0.979005    0.436390
     11          1           0       -0.616250   -1.083187   -1.222361
     12          1           0       -1.653089    0.506431    1.036918
     13          1           0       -2.680189   -0.761783    0.554800
     14          1           0       -2.436913    0.834942   -0.625849
 ---------------------------------------------------------------------

 SCF Done:  E(RB2PLYPD3) =  -157.599949576     A.U. after   11 cycles
 E2(B2PLYPD3) =    -0.2497175838D+00 E(B2PLYPD3) =    -0.15784966716020D+03

 The electronic state is 1-A.
 Alpha  occ. eigenvalues --  -10.61754 -10.61291 -10.59293 -10.57436  -0.94781
 Alpha  occ. eigenvalues --   -0.86911  -0.74460  -0.68522  -0.57589  -0.52028
 Alpha  occ. eigenvalues --   -0.47312  -0.46046  -0.43872  -0.40979  -0.40016
 Alpha  occ. eigenvalues --   -0.38037  -0.34070
 Alpha virt. eigenvalues --    0.05377   0.06086   0.07920   0.08172   0.10707
 Alpha virt. eigenvalues --    0.10901   0.12400   0.13738   0.14348   0.15270
 Alpha virt. eigenvalues --    0.16228   0.16487   0.18675   0.19977   0.21777

 Mulliken charges:
               1
     1  C   -0.681825
     2  C   -0.012709
     3  H    0.072684
     4  H    0.512107
     5  H    0.038699
     6  C   -0.254995
     7  H    0.041982
     8  H    0.026409
     9  C   -0.159610
    10  H    0.240925
    11  H    0.053430
    12  H    0.084178
    13  H   -0.004580
    14  H    0.043304
 Sum of Mulliken charges =   0.00000

 Dipole moment (field-independent basis, Debye):
    X=              0.3512    Y=              0.0549    Z=             -0.1333  Tot=              0.3796
 Quadrupole moment (field-independent basis, Debye-Ang):
   XX=            -31.0994   YY=            -28.9206   ZZ=            -27.4311
   XY=             -0.0192   XZ=              0.0876   YZ=             -0.3336

 Normal termination of Gaussian 09 at Wed Aug 26 13:56:22 2020.
