 Gaussian 09, Revision D.01,
 Gaussian 09:  ES64L-G09RevD.01 24-Apr-2013

 --------------------
 #p B2PLYPD3/Def2QZVP
 --------------------

 ----------
 butane_opt
 ----------
 Symbolic Z-matrix:
 Charge =  0 Multiplicity = 1

                         Standard orientation:
 ---------------------------------------------------------------------
 Center     Atomic      Atomic             Coordinates (Angstroms)
 Number     Number       Type             X           Y           Z
 ---------------------------------------------------------------------
      1          6           0        1.917788   -0.116162   -0.134369
      2          6           0        0.546848    0.512666    0.134983
      3          1           0        2.800905    0.664275   -0.385642
      4          1           0        1.757353   -0.549309   -0.965281
      5          1           0        2.308038   -0.918172    0.870380
      6          6           0       -0.585708   -0.548553    0.088206
      7          1           0        0.417512    0.947529   -0.516763
      8          1           0        0.443799    1.384512    1.243999
      9          6           0       -1.912470    0.115007   -0.085718
     10          1           0       -0.394839   -1.261708    0.915598
     11          1           0       -0.437435   -1.039540   -0.695348
     12          1           0       -2.113460    0.677449    0.724468
     13          1           0       -2.610007   -0.569806   -0.101534
     14          1           0       -1.970611    0.887028   -1.108482
 ---------------------------------------------------------------------

 SCF Done:  E(RB2PLYPD3) =  -157.881038725     A.U. after   11 cycles
 E2(B2PLYPD3) =    -0.2480855399D+00 E(B2PLYPD3) =    -0.15812912426514D+03

 The electronic state is 1-A.
 Alpha  occ. eigenvalues --  -10.62231 -10.60156 -10.59514 -10.59032  -0.93723
 Alpha  occ. eigenvalues --   -0.84998  -0.73718  -0.69886  -0.55129  -0.50937
 Alpha  occ. eigenvalues --   -0.48433  -0.47309  -0.43355  -0.40421  -0.39319
 Alpha  occ. eigenvalues --   -0.37437  -0.36513
 Alpha virt. eigenvalues --    0.05082   0.06419   0.07657   0.08521   0.10929
 Alpha virt. eigenvalues --    0.11195   0.12674   0.13556   0.14399   0.15314
 Alpha virt. eigenvalues --    0.15779   0.16387   0.18793   0.19670   0.21386

 Mulliken charges:
               1
     1  C   -0.172114
     2  C   -0.300625
     3  H    0.037376
     4  H    0.093914
     5  H    0.024474
     6  C   -0.059188
     7  H    0.284739
     8  H   -0.008495
     9  C   -0.133487
    10  H    0.032171
    11  H    0.077213
    12  H    0.056750
    13  H    0.053269
    14  H    0.014003
 Sum of Mulliken charges =   0.00000

 Dipole moment (field-independent basis, Debye):
    X=             -0.3196    Y=             -0.3046    Z=             -0.5810  Tot=              0.7297
 Quadrupole moment (field-independent basis, Debye-Ang):
   XX=            -29.9230   YY=            -29.2391   ZZ=            -28.2037
   XY=              0.5677   XZ=             -0.9301   YZ=             -0.5759

 Normal termination of Gaussian 09 at Wed Aug 26 15:44:44 2020.
