 Gaussian 09, Revision D.01,
 Gaussian 09:  ES64L-G09RevD.01 24-Apr-2013

 --------------------
 #p B2PLYPD3/Def2QZVP
 --------------------

 ----------
 butane_opt
 ----------
 Symbolic Z-matrix:
 Charge =  0 Multiplicity = 1

                         Standard orientation:
 ---------------------------------------------------------------------
 Center     Atomic      Atomic             Coordinates (Angstroms)
 Number     Number       Type             X           Y           Z
 ---------------------------------------------------------------------
      1          6           0        1.996993   -0.137833   -0.155392
      2          6           0        0.595994    0.557940    0.300237
      3          1           0        2.749481    0.555240   -0.754719
      4          1           0        1.997815   -0.438630   -0.917283
      5          1           0        2.492338   -1.104259    0.816164
      6          6           0       -0.562956   -0.526653    0.051578
      7          1           0        0.508239    1.002319   -0.570889
      8          1           0        0.467798    1.441655    1.391630
      9          6           0       -1.935002    0.082463   -0.182685
     10          1           0       -0.945980   -1.461837    1.065498
     11          1           0       -0.518992   -0.920143   -0.701846
     12          1           0       -2.260485    0.754945    0.685298
     13          1           0       -2.763110   -0.693644   -0.061147
     14          1           0       -2.297273    1.008850   -1.035132
 ---------------------------------------------------------------------

 SCF Done:  E(RB2PLYPD3) =  -157.735426807     A.U. after   11 cycles
 E2(B2PLYPD3) =    -0.2558700293D+00 E(B2PLYPD3) =    -0.15799129683614D+03

 The electronic state is 1-A.
 Alpha  occ. eigenvalues --  -10.65328 -10.62979 -10.62925 -10.62663  -0.92125
 Alpha  occ. eigenvalues --   -0.85423  -0.74637  -0.68686  -0.52148  -0.50069
 Alpha  occ. eigenvalues --   -0.47225  -0.44587  -0.41420  -0.39975  -0.37013
 Alpha  occ. eigenvalues --   -0.36188  -0.34937
 Alpha virt. eigenvalues --    0.04040   0.05101   0.06359   0.07169   0.09020
 Alpha virt. eigenvalues --    0.11070   0.11636   0.12376   0.12974   0.14554
 Alpha virt. eigenvalues --    0.16267   0.16892   0.17220   0.19087   0.19938

 Mulliken charges:
               1
     1  C   -0.324394
     2  C   -0.114727
     3  H    0.022793
     4  H    0.233988
     5  H    0.032577
     6  C   -0.199669
     7  H    0.125058
     8  H    0.055519
     9  C   -0.154664
    10  H    0.005419
    11  H    0.221707
    12  H    0.023293
    13  H    0.051375
    14  H    0.021724
 Sum of Mulliken charges =   0.00000

 Dipole moment (field-independent basis, Debye):
    X=             -0.2008    Y=              0.2093    Z=             -0.7493  Tot=              0.8035
 Quadrupole moment (field-independent basis, Debye-Ang):
   XX=            -31.4907   YY=            -29.7851   ZZ=            -28.5242
   XY=              0.1842   XZ=             -2.3219   YZ=              0.0065

 Normal termination of Gaussian 09 at Wed Aug 26 09:43:16 2020.
