 Gaussian 09, Revision D.01,
 Gaussian 09:  ES64L-G09RevD.01 24-Apr-2013

 --------------------
 #p B2PLYPD3/Def2QZVP
 --------------------

 ----------
 butane_opt
 ----------
 Symbolic Z-matrix:
 Charge =  0 Multiplicity = 1

                         Standard orientation:
 ---------------------------------------------------------------------
 Center     Atomic      Atomic             Coordinates (Angstroms)
 Number     Number       Type             X           Y           Z
 ---------------------------------------------------------------------
      1          6           0       -1.844409   -0.108605    0.155474
      2          6           0       -0.622117    0.444318   -0.284114
      3          1           0       -2.713464    1.038307    0.351430
      4          1           0       -1.617950   -0.615641    1.071924
      5          1           0       -2.270621   -0.733348   -0.564032
      6          6           0        0.475280   -0.614956   -0.017721
      7          1           0       -0.385451    1.219576    0.380480
      8          1           0       -0.405473    1.113969   -1.311013
      9          6           0        1.904168    0.152505    0.035327
     10          1           0        0.634715   -1.418251   -0.854910
     11          1           0        0.249244   -1.173286    0.890186
     12          1           0        2.172272    0.372366   -0.647403
     13          1           0        2.632581   -0.494311    0.126651
     14          1           0        2.226618    1.451045    1.222888
 ---------------------------------------------------------------------

 SCF Done:  E(RB2PLYPD3) =  -157.779825121     A.U. after   12 cycles
 E2(B2PLYPD3) =    -0.2532106019D+00 E(B2PLYPD3) =    -0.15803303572317D+03

 The electronic state is 1-A.
 Alpha  occ. eigenvalues --  -10.63812 -10.62363 -10.61344 -10.61261  -0.93348
 Alpha  occ. eigenvalues --   -0.87196  -0.75101  -0.67657  -0.54605  -0.50818
 Alpha  occ. eigenvalues --   -0.49290  -0.46517  -0.44180  -0.42735  -0.37023
 Alpha  occ. eigenvalues --   -0.34729  -0.34149
 Alpha virt. eigenvalues --    0.01390   0.04925   0.06646   0.07098   0.09853
 Alpha virt. eigenvalues --    0.10821   0.11374   0.13233   0.14313   0.15136
 Alpha virt. eigenvalues --    0.15588   0.15733   0.18994   0.19340   0.20249

 Mulliken charges:
               1
     1  C   -0.176736
     2  C   -0.030879
     3  H   -0.005255
     4  H    0.079606
     5  H    0.071686
     6  C   -0.020175
     7  H    0.070753
     8  H    0.016995
     9  C   -0.356006
    10  H    0.016780
    11  H    0.050895
    12  H    0.257223
    13  H    0.057595
    14  H   -0.032483
 Sum of Mulliken charges =   0.00000

 Dipole moment (field-independent basis, Debye):
    X=              0.2778    Y=             -0.9826    Z=             -0.6351  Tot=              1.2025
 Quadrupole moment (field-independent basis, Debye-Ang):
   XX=            -32.0077   YY=            -29.1450   ZZ=            -29.3088
   XY=             -0.7632   XZ=             -1.5574   YZ=             -0.3033

 Normal termination of Gaussian 09 at Wed Aug 26 12:40:55 2020.
