 Gaussian 09, Revision D.01,
 Gaussian 09:  ES64L-G09RevD.01 24-Apr-2013

 --------------------
 #p B2PLYPD3/Def2QZVP
 --------------------

 ----------
 butane_opt
 ----------
 Symbolic Z-matrix:
 Charge =  0 Multiplicity = 1

                         Standard orientation:
 ---------------------------------------------------------------------
 Center     Atomic      Atomic             Coordinates (Angstroms)
 Number     Number       Type             X           Y           Z
 ---------------------------------------------------------------------
      1          6           0       -1.919784   -0.186422    0.071202
      2          6           0       -0.554244    0.545347   -0.158146
      3          1           0       -2.597222    0.333385    0.556492
      4          1           0       -1.987797   -0.600811    0.861275
      5          1           0       -2.243118   -0.729245   -0.788958
      6          6           0        0.608645   -0.413141   -0.083449
      7          1           0       -0.265516    1.047096    0.626745
      8          1           0       -0.670784    1.260092   -1.034363
      9          6           0        1.851628    0.094250    0.046708
     10          1           0        0.410490   -1.024133   -0.920125
     11          1           0        0.459971   -1.005853    0.910296
     12          1           0        2.163417    0.413090   -0.593784
     13          1           0        2.899509   -0.862483    0.032473
     14          1           0        1.913582    0.928656    1.092061
 ---------------------------------------------------------------------

 SCF Done:  E(RB2PLYPD3) =  -157.818137879     A.U. after   11 cycles
 E2(B2PLYPD3) =    -0.2491421561D+00 E(B2PLYPD3) =    -0.15806728003507D+03

 The electronic state is 1-A.
 Alpha  occ. eigenvalues --  -10.60846 -10.59815 -10.59569 -10.56384  -0.94950
 Alpha  occ. eigenvalues --   -0.87668  -0.77822  -0.68194  -0.58823  -0.52930
 Alpha  occ. eigenvalues --   -0.50278  -0.47499  -0.42509  -0.40480  -0.39480
 Alpha  occ. eigenvalues --   -0.36986  -0.33689
 Alpha virt. eigenvalues --    0.04358   0.06586   0.07699   0.08419   0.10040
 Alpha virt. eigenvalues --    0.11591   0.12828   0.13284   0.14539   0.15528
 Alpha virt. eigenvalues --    0.16240   0.16966   0.19005   0.19873   0.21801

 Mulliken charges:
               1
     1  C   -0.177283
     2  C   -0.081834
     3  H    0.035851
     4  H    0.075674
     5  H    0.056724
     6  C    0.012047
     7  H    0.056203
     8  H    0.033805
     9  C   -0.365238
    10  H    0.031051
    11  H    0.043561
    12  H    0.250010
    13  H    0.001969
    14  H    0.027461
 Sum of Mulliken charges =   0.00000

 Dipole moment (field-independent basis, Debye):
    X=             -0.5382    Y=              0.1845    Z=             -0.0616  Tot=              0.5722
 Quadrupole moment (field-independent basis, Debye-Ang):
   XX=            -30.0377   YY=            -29.8531   ZZ=            -27.1962
   XY=              0.8092   XZ=             -1.7746   YZ=              0.4064

 Normal termination of Gaussian 09 at Wed Aug 26 16:17:24 2020.
