 Gaussian 09, Revision D.01,
 Gaussian 09:  ES64L-G09RevD.01 24-Apr-2013

 --------------------
 #p B2PLYPD3/Def2QZVP
 --------------------

 ----------
 butane_opt
 ----------
 Symbolic Z-matrix:
 Charge =  0 Multiplicity = 1

                         Standard orientation:
 ---------------------------------------------------------------------
 Center     Atomic      Atomic             Coordinates (Angstroms)
 Number     Number       Type             X           Y           Z
 ---------------------------------------------------------------------
      1          6           0       -1.950207   -0.155508   -0.015820
      2          6           0       -0.556884    0.543205    0.003450
      3          1           0       -2.734410    0.624941   -0.351374
      4          1           0       -2.248751   -1.074611    1.157423
      5          1           0       -2.121299   -0.548206   -0.810949
      6          6           0        0.577201   -0.406050    0.009657
      7          1           0       -0.579511    1.278499    0.984892
      8          1           0       -0.026910    1.053711   -0.852983
      9          6           0        1.939916    0.045839   -0.034725
     10          1           0        0.419065   -1.120691   -1.004682
     11          1           0        0.509475   -1.136565    0.880493
     12          1           0        1.807708    0.679782   -0.757913
     13          1           0        2.801569   -0.840346   -0.088440
     14          1           0        2.112912    0.918571    1.068160
 ---------------------------------------------------------------------

 SCF Done:  E(RB2PLYPD3) =  -157.887519872     A.U. after   11 cycles
 E2(B2PLYPD3) =    -0.2546762443D+00 E(B2PLYPD3) =    -0.15814219611674D+03

 The electronic state is 1-A.
 Alpha  occ. eigenvalues --  -10.63426 -10.63276 -10.63062 -10.62058  -0.93586
 Alpha  occ. eigenvalues --   -0.84679  -0.74185  -0.64232  -0.55718  -0.49425
 Alpha  occ. eigenvalues --   -0.48080  -0.46564  -0.40555  -0.39629  -0.38904
 Alpha  occ. eigenvalues --   -0.35776  -0.34300
 Alpha virt. eigenvalues --    0.03717   0.05081   0.06777   0.07528   0.10022
 Alpha virt. eigenvalues --    0.10294   0.11115   0.12818   0.13354   0.15020
 Alpha virt. eigenvalues --    0.15483   0.16162   0.18560   0.20023   0.20632

 Mulliken charges:
               1
     1  C   -0.192703
     2  C   -0.052369
     3  H    0.034984
     4  H    0.047772
     5  H    0.104315
     6  C   -0.002780
     7  H    0.027066
     8  H    0.041019
     9  C   -0.180281
    10  H    0.009703
    11  H    0.009531
    12  H    0.078174
    13  H    0.077992
    14  H   -0.002420
 Sum of Mulliken charges =   0.00000

 Dipole moment (field-independent basis, Debye):
    X=             -0.1257    Y=             -0.2335    Z=             -0.6769  Tot=              0.7269
 Quadrupole moment (field-independent basis, Debye-Ang):
   XX=            -30.3867   YY=            -30.3611   ZZ=            -29.0679
   XY=             -0.8123   XZ=              0.2560   YZ=             -0.4726

 Normal termination of Gaussian 09 at Wed Aug 26 23:51:27 2020.
