 Gaussian 09, Revision D.01,
 Gaussian 09:  ES64L-G09RevD.01 24-Apr-2013

 --------------------
 #p B2PLYPD3/Def2QZVP
 --------------------

 ----------
 butane_opt
 ----------
 Symbolic Z-matrix:
 Charge =  0 Multiplicity = 1

                         Standard orientation:
 ---------------------------------------------------------------------
 Center     Atomic      Atomic             Coordinates (Angstroms)
 Number     Number       Type             X           Y           Z
 ---------------------------------------------------------------------
      1          6           0        1.936482    0.155576    0.004276
      2          6           0        0.480650   -0.552186   -0.036377
      3          1           0        2.669745   -0.549358   -0.409566
      4          1           0        2.164155    1.332549    1.281924
      5          1           0        2.131769    0.324864   -0.426640
      6          6           0       -0.584949    0.411592   -0.099334
      7          1           0        0.308871   -1.357342    0.881449
      8          1           0        0.370805   -1.163506   -0.820968
      9          6           0       -1.858304   -0.068791    0.065777
     10          1           0       -0.208035    1.121154   -1.078254
     11          1           0       -0.360727    1.058939    0.758483
     12          1           0       -1.886961   -0.567257   -0.590881
     13          1           0       -2.984896    1.067686   -0.288461
     14          1           0       -2.047997   -0.944875    1.086863
 ---------------------------------------------------------------------

 SCF Done:  E(RB2PLYPD3) =  -156.815565390     A.U. after   12 cycles
 E2(B2PLYPD3) =    -0.2594721993D+00 E(B2PLYPD3) =    -0.15707503758967D+03

 The electronic state is 1-A.
 Alpha  occ. eigenvalues --  -10.66587 -10.63297 -10.62940 -10.61264  -0.97089
 Alpha  occ. eigenvalues --   -0.93207  -0.80011  -0.67844  -0.54780  -0.52787
 Alpha  occ. eigenvalues --   -0.49345  -0.45063  -0.40870  -0.40341  -0.36674
 Alpha  occ. eigenvalues --   -0.35791  -0.34264
 Alpha virt. eigenvalues --    0.00199   0.02250   0.05305   0.06098   0.09275
 Alpha virt. eigenvalues --    0.10204   0.10594   0.12757   0.13968   0.14973
 Alpha virt. eigenvalues --    0.15212   0.16399   0.18018   0.19363   0.20700

 Mulliken charges:
               1
     1  C   -0.902832
     2  C   -0.000726
     3  H    0.036513
     4  H    0.031975
     5  H    0.771719
     6  C   -0.000213
     7  H    0.020348
     8  H    0.039953
     9  C   -0.326402
    10  H    0.017480
    11  H    0.036227
    12  H    0.232130
    13  H    0.000259
    14  H    0.043570
 Sum of Mulliken charges =   0.00000

 Dipole moment (field-independent basis, Debye):
    X=              0.4858    Y=             -0.6472    Z=             -0.9644  Tot=              1.2589
 Quadrupole moment (field-independent basis, Debye-Ang):
   XX=            -32.5496   YY=            -29.1993   ZZ=            -28.5892
   XY=              1.0448   XZ=             -1.8181   YZ=              0.4866

 Normal termination of Gaussian 09 at Wed Aug 26 15:12:53 2020.
