 Gaussian 09, Revision D.01,
 Gaussian 09:  ES64L-G09RevD.01 24-Apr-2013

 --------------------
 #p B2PLYPD3/Def2QZVP
 --------------------

 ----------
 butane_opt
 ----------
 Symbolic Z-matrix:
 Charge =  0 Multiplicity = 1

                         Standard orientation:
 ---------------------------------------------------------------------
 Center     Atomic      Atomic             Coordinates (Angstroms)
 Number     Number       Type             X           Y           Z
 ---------------------------------------------------------------------
      1          6           0        1.982588   -0.138480   -0.080186
      2          6           0        0.526028    0.523621    0.080130
      3          1           0        2.904149    0.725395   -0.213917
      4          1           0        2.078481   -0.631317   -0.919428
      5          1           0        2.171535   -0.607018    0.627743
      6          6           0       -0.566839   -0.588148    0.181472
      7          1           0        0.525323    0.997514   -0.641286
      8          1           0        0.417760    1.246206    0.847009
      9          6           0       -1.951395    0.109075   -0.159038
     10          1           0       -0.574225   -1.416151    1.164430
     11          1           0       -0.283494   -0.882107   -0.528607
     12          1           0       -2.361765    1.214619    0.970140
     13          1           0       -2.733655   -0.589490   -0.638222
     14          1           0       -2.086404    0.505941   -0.802126
 ---------------------------------------------------------------------

 SCF Done:  E(RB2PLYPD3) =  -157.645537481     A.U. after   11 cycles
 E2(B2PLYPD3) =    -0.2499035347D+00 E(B2PLYPD3) =    -0.15789544101580D+03

 The electronic state is 1-A.
 Alpha  occ. eigenvalues --  -10.62298 -10.61241 -10.58500 -10.58398  -0.93744
 Alpha  occ. eigenvalues --   -0.85775  -0.78752  -0.72691  -0.56681  -0.52563
 Alpha  occ. eigenvalues --   -0.47624  -0.46951  -0.43287  -0.41545  -0.40388
 Alpha  occ. eigenvalues --   -0.35584  -0.34900
 Alpha virt. eigenvalues --    0.02776   0.06006   0.08030   0.08475   0.09996
 Alpha virt. eigenvalues --    0.11212   0.12508   0.12843   0.14437   0.15771
 Alpha virt. eigenvalues --    0.16114   0.16845   0.18859   0.19245   0.20683

 Mulliken charges:
               1
     1  C   -0.200068
     2  C   -0.138983
     3  H    0.006161
     4  H    0.049162
     5  H    0.120782
     6  C   -0.294609
     7  H    0.137085
     8  H    0.037410
     9  C   -0.380181
    10  H    0.056156
    11  H    0.298998
    12  H   -0.009831
    13  H    0.031583
    14  H    0.286336
 Sum of Mulliken charges =   0.00000

 Dipole moment (field-independent basis, Debye):
    X=              0.4570    Y=             -0.3729    Z=             -0.9945  Tot=              1.1562
 Quadrupole moment (field-independent basis, Debye-Ang):
   XX=            -31.6151   YY=            -28.6913   ZZ=            -27.5339
   XY=             -0.0032   XZ=              1.7244   YZ=             -0.3094

 Normal termination of Gaussian 09 at Wed Aug 26 12:38:31 2020.
