 Gaussian 09, Revision D.01,
 Gaussian 09:  ES64L-G09RevD.01 24-Apr-2013

 --------------------
 #p B2PLYPD3/Def2QZVP
 --------------------

 ----------
 butane_opt
 ----------
 Symbolic Z-matrix:
 Charge =  0 Multiplicity = 1

                         Standard orientation:
 ---------------------------------------------------------------------
 Center     Atomic      Atomic             Coordinates (Angstroms)
 Number     Number       Type             X           Y           Z
 ---------------------------------------------------------------------
      1          6           0        1.855751   -0.214414   -0.131134
      2          6           0        0.478444    0.591334    0.005745
      3          1           0        2.750666    0.483053   -0.112741
      4          1           0        2.219191   -1.388851   -0.889116
      5          1           0        2.259584   -0.325336    0.610789
      6          6           0       -0.487890   -0.383512    0.405564
      7          1           0        0.191678    1.051140   -1.088875
      8          1           0        0.463393    1.681885    0.816172
      9          6           0       -1.887973    0.043098   -0.149932
     10          1           0       -0.664213   -0.825497    1.638049
     11          1           0       -0.357445   -1.015271   -0.198631
     12          1           0       -2.462330    0.775749    0.532717
     13          1           0       -2.815383   -1.139199   -0.813788
     14          1           0       -1.335125    0.483286   -1.276030
 ---------------------------------------------------------------------

 SCF Done:  E(RB2PLYPD3) =  -157.720806334     A.U. after   12 cycles
 E2(B2PLYPD3) =    -0.2609729268D+00 E(B2PLYPD3) =    -0.15798177926052D+03

 The electronic state is 1-A.
 Alpha  occ. eigenvalues --  -10.67505 -10.66456 -10.61856 -10.61189  -0.94451
 Alpha  occ. eigenvalues --   -0.84540  -0.72448  -0.66003  -0.54727  -0.50014
 Alpha  occ. eigenvalues --   -0.47093  -0.43806  -0.40297  -0.38918  -0.37558
 Alpha  occ. eigenvalues --   -0.36203  -0.33005
 Alpha virt. eigenvalues --    0.02583   0.04253   0.05218   0.06012   0.08156
 Alpha virt. eigenvalues --    0.10583   0.11260   0.13319   0.13712   0.14292
 Alpha virt. eigenvalues --    0.15216   0.16019   0.17733   0.18473   0.20071

 Mulliken charges:
               1
     1  C   -0.260596
     2  C   -0.013741
     3  H    0.021133
     4  H    0.044056
     5  H    0.167230
     6  C   -0.191700
     7  H    0.040861
     8  H    0.013554
     9  C   -0.179250
    10  H    0.039788
    11  H    0.208241
    12  H    0.084308
    13  H   -0.009433
    14  H    0.035549
 Sum of Mulliken charges =   0.00000

 Dipole moment (field-independent basis, Debye):
    X=              0.8797    Y=              0.2440    Z=              0.5893  Tot=              1.0866
 Quadrupole moment (field-independent basis, Debye-Ang):
   XX=            -31.8451   YY=            -30.1545   ZZ=            -29.6222
   XY=             -1.2308   XZ=             -0.2115   YZ=              1.0825

 Normal termination of Gaussian 09 at Wed Aug 26 16:03:51 2020.
