 Gaussian 09, Revision D.01,
 Gaussian 09:  ES64L-G09RevD.01 24-Apr-2013

 --------------------
 #p B2PLYPD3/Def2QZVP
 --------------------

 ----------
 butane_opt
 ----------
 Symbolic Z-matrix:
 Charge =  0 Multiplicity = 1

                         Standard orientation:
 ---------------------------------------------------------------------
 Center     Atomic      Atomic             Coordinates (Angstroms)
 Number     Number       Type             X           Y           Z
 ---------------------------------------------------------------------
      1          6           0       -1.962456    0.218703   -0.075422
      2          6           0       -0.513756   -0.583365    0.044048
      3          1           0       -2.664834   -0.491030   -0.088594
      4          1           0       -1.985709    1.197477   -0.921593
      5          1           0       -2.163227    0.369885    0.530034
      6          6           0        0.617623    0.365885    0.238680
      7          1           0       -0.478636   -1.149727   -0.842955
      8          1           0       -0.558908   -1.158910    0.836439
      9          6           0        1.900625   -0.112065   -0.122465
     10          1           0        0.724368    1.175306    1.379308
     11          1           0        0.259458    0.987858   -0.396833
     12          1           0        2.231720   -0.791101    0.652043
     13          1           0        2.781064    1.006758   -0.671914
     14          1           0        1.602488   -0.481467   -0.984986
 ---------------------------------------------------------------------

 SCF Done:  E(RB2PLYPD3) =  -157.603712043     A.U. after   11 cycles
 E2(B2PLYPD3) =    -0.2507917421D+00 E(B2PLYPD3) =    -0.15785450378528D+03

 The electronic state is 1-A.
 Alpha  occ. eigenvalues --  -10.61969 -10.60669 -10.60397 -10.57916  -0.94963
 Alpha  occ. eigenvalues --   -0.88947  -0.77718  -0.67608  -0.56862  -0.51651
 Alpha  occ. eigenvalues --   -0.49360  -0.46890  -0.44486  -0.43611  -0.37903
 Alpha  occ. eigenvalues --   -0.35384  -0.34532
 Alpha virt. eigenvalues --    0.03942   0.06189   0.06994   0.08115   0.09656
 Alpha virt. eigenvalues --    0.11485   0.11711   0.13475   0.14593   0.15277
 Alpha virt. eigenvalues --    0.15495   0.16918   0.18701   0.19330   0.20889

 Mulliken charges:
               1
     1  C   -0.605030
     2  C   -0.018494
     3  H    0.042967
     4  H    0.059387
     5  H    0.446019
     6  C   -0.058302
     7  H    0.048354
     8  H    0.046874
     9  C   -0.169738
    10  H   -0.021011
    11  H    0.081916
    12  H    0.077799
    13  H   -0.002120
    14  H    0.071378
 Sum of Mulliken charges =   0.00000

 Dipole moment (field-independent basis, Debye):
    X=             -0.8171    Y=             -0.6475    Z=             -0.1135  Tot=              1.0487
 Quadrupole moment (field-independent basis, Debye-Ang):
   XX=            -30.9896   YY=            -28.8544   ZZ=            -28.4202
   XY=             -0.3102   XZ=             -0.4247   YZ=             -1.1701

 Normal termination of Gaussian 09 at Wed Aug 26 11:46:08 2020.
