 Gaussian 09, Revision D.01,
 Gaussian 09:  ES64L-G09RevD.01 24-Apr-2013

 --------------------
 #p B2PLYPD3/Def2QZVP
 --------------------

 ----------
 butane_opt
 ----------
 Symbolic Z-matrix:
 Charge =  0 Multiplicity = 1

                         Standard orientation:
 ---------------------------------------------------------------------
 Center     Atomic      Atomic             Coordinates (Angstroms)
 Number     Number       Type             X           Y           Z
 ---------------------------------------------------------------------
      1          6           0       -1.993032   -0.160446   -0.189104
      2          6           0       -0.511632    0.617730    0.162105
      3          1           0       -2.781181    0.307307   -0.900949
      4          1           0       -2.525440   -0.845191    1.063143
      5          1           0       -1.665996   -0.657616   -0.781232
      6          6           0        0.521354   -0.482035    0.263324
      7          1           0       -0.338567    1.818548    1.252022
      8          1           0       -0.309550    0.925679   -0.643344
      9          6           0        1.929768    0.048937   -0.210754
     10          1           0        0.331797   -1.114387   -0.541904
     11          1           0        0.821377   -1.107302    1.240406
     12          1           0        2.088849    0.576602   -1.129458
     13          1           0        2.635878   -0.662475   -0.207741
     14          1           0        2.064089    0.613724    0.495636
 ---------------------------------------------------------------------

 SCF Done:  E(RB2PLYPD3) =  -157.782414119     A.U. after   12 cycles
 E2(B2PLYPD3) =    -0.2534931129D+00 E(B2PLYPD3) =    -0.15803590723219D+03

 The electronic state is 1-A.
 Alpha  occ. eigenvalues --  -10.64951 -10.63475 -10.62259 -10.56655  -0.93023
 Alpha  occ. eigenvalues --   -0.84833  -0.76268  -0.68060  -0.54582  -0.50069
 Alpha  occ. eigenvalues --   -0.49291  -0.46783  -0.42561  -0.40886  -0.38689
 Alpha  occ. eigenvalues --   -0.36233  -0.34575
 Alpha virt. eigenvalues --    0.03084   0.04753   0.06553   0.08352   0.09520
 Alpha virt. eigenvalues --    0.10809   0.12181   0.13008   0.14657   0.14871
 Alpha virt. eigenvalues --    0.16285   0.16748   0.17535   0.18561   0.19884

 Mulliken charges:
               1
     1  C   -0.337182
     2  C   -0.201289
     3  H    0.051573
     4  H    0.032845
     5  H    0.240702
     6  C   -0.067978
     7  H   -0.009516
     8  H    0.204635
     9  C   -0.168215
    10  H    0.057609
    11  H    0.039715
    12  H    0.020806
    13  H    0.038301
    14  H    0.097996
 Sum of Mulliken charges =   0.00000

 Dipole moment (field-independent basis, Debye):
    X=              0.5825    Y=             -0.4727    Z=             -0.9526  Tot=              1.2125
 Quadrupole moment (field-independent basis, Debye-Ang):
   XX=            -30.3076   YY=            -30.3636   ZZ=            -27.7195
   XY=             -0.1062   XZ=              1.4068   YZ=             -0.5374

 Normal termination of Gaussian 09 at Wed Aug 26 21:43:21 2020.
