 Gaussian 09, Revision D.01,
 Gaussian 09:  ES64L-G09RevD.01 24-Apr-2013

 --------------------
 #p B2PLYPD3/Def2QZVP
 --------------------

 ----------
 butane_opt
 ----------
 Symbolic Z-matrix:
 Charge =  0 Multiplicity = 1

                         Standard orientation:
 ---------------------------------------------------------------------
 Center     Atomic      Atomic             Coordinates (Angstroms)
 Number     Number       Type             X           Y           Z
 ---------------------------------------------------------------------
      1          6           0        1.889724    0.058117   -0.114609
      2          6           0        0.611901   -0.446077    0.063185
      3          1           0        2.719460   -0.831932    0.065046
      4          1           0        1.888603    0.575049    0.592041
      5          1           0        1.983517    0.602853   -1.110609
      6          6           0       -0.566618    0.607820    0.181246
      7          1           0        0.709864   -1.048720    0.958039
      8          1           0        0.302986   -0.909914   -0.727786
      9          6           0       -1.906184   -0.205819   -0.120750
     10          1           0       -0.387373    1.152138   -0.477256
     11          1           0       -0.312970    1.495530    1.142733
     12          1           0       -2.039096   -0.362547   -0.789435
     13          1           0       -2.547815    0.298656   -0.747158
     14          1           0       -2.490112   -1.055362    1.039956
 ---------------------------------------------------------------------

 SCF Done:  E(RB2PLYPD3) =  -157.546517803     A.U. after   12 cycles
 E2(B2PLYPD3) =    -0.2520055369D+00 E(B2PLYPD3) =    -0.15779852334026D+03

 The electronic state is 1-A.
 Alpha  occ. eigenvalues --  -10.61926 -10.61157 -10.57850 -10.57507  -0.97337
 Alpha  occ. eigenvalues --   -0.92853  -0.79725  -0.68560  -0.56572  -0.53114
 Alpha  occ. eigenvalues --   -0.49103  -0.44871  -0.42612  -0.39120  -0.38090
 Alpha  occ. eigenvalues --   -0.37227  -0.33018
 Alpha virt. eigenvalues --    0.03554   0.05871   0.06830   0.08166   0.09808
 Alpha virt. eigenvalues --    0.11376   0.12362   0.13081   0.14821   0.15427
 Alpha virt. eigenvalues --    0.16558   0.17322   0.18329   0.19347   0.20460

 Mulliken charges:
               1
     1  C   -0.232953
     2  C   -0.017058
     3  H    0.035292
     4  H    0.130717
     5  H    0.031023
     6  C   -0.155118
     7  H    0.026167
     8  H    0.061721
     9  C   -0.630257
    10  H    0.140543
    11  H    0.006852
    12  H    0.505599
    13  H    0.046853
    14  H    0.050621
 Sum of Mulliken charges =   0.00000

 Dipole moment (field-independent basis, Debye):
    X=             -0.1878    Y=              0.1043    Z=             -0.8856  Tot=              0.9113
 Quadrupole moment (field-independent basis, Debye-Ang):
   XX=            -30.2857   YY=            -29.6888   ZZ=            -26.8449
   XY=              0.2646   XZ=              2.6667   YZ=             -1.1465

 Normal termination of Gaussian 09 at Wed Aug 26 12:27:55 2020.
