 Gaussian 09, Revision D.01,
 Gaussian 09:  ES64L-G09RevD.01 24-Apr-2013

 --------------------
 #p B2PLYPD3/Def2QZVP
 --------------------

 ----------
 butane_opt
 ----------
 Symbolic Z-matrix:
 Charge =  0 Multiplicity = 1

                         Standard orientation:
 ---------------------------------------------------------------------
 Center     Atomic      Atomic             Coordinates (Angstroms)
 Number     Number       Type             X           Y           Z
 ---------------------------------------------------------------------
      1          6           0       -1.958483    0.139802    0.137029
      2          6           0       -0.579826   -0.648174   -0.185148
      3          1           0       -2.673959   -0.367600   -0.175639
      4          1           0       -2.312030    0.504565   -0.524467
      5          1           0       -2.505431    1.212156    1.257051
      6          6           0        0.637374    0.475472   -0.101035
      7          1           0       -0.393335   -1.321924   -1.089680
      8          1           0       -0.397257   -0.999044    0.441788
      9          6           0        1.931769   -0.080570    0.242039
     10          1           0        0.372586    0.808952    0.488200
     11          1           0        0.801778    1.413586   -1.321435
     12          1           0        2.159758   -0.976379    1.185981
     13          1           0        2.781291    0.844761   -0.374517
     14          1           0        1.981592   -0.438255   -0.444583
 ---------------------------------------------------------------------

 SCF Done:  E(RB2PLYPD3) =  -157.233714109     A.U. after   12 cycles
 E2(B2PLYPD3) =    -0.2568389988D+00 E(B2PLYPD3) =    -0.15749055310827D+03

 The electronic state is 1-A.
 Alpha  occ. eigenvalues --  -10.60945 -10.60686 -10.60632 -10.60536  -0.95765
 Alpha  occ. eigenvalues --   -0.90037  -0.82110  -0.74303  -0.53855  -0.49509
 Alpha  occ. eigenvalues --   -0.48251  -0.46024  -0.42110  -0.40940  -0.37998
 Alpha  occ. eigenvalues --   -0.37494  -0.32075
 Alpha virt. eigenvalues --    0.01229   0.03116   0.05024   0.07369   0.10480
 Alpha virt. eigenvalues --    0.10744   0.12001   0.12393   0.14351   0.15207
 Alpha virt. eigenvalues --    0.15827   0.16080   0.17662   0.18870   0.20049

 Mulliken charges:
               1
     1  C   -0.306848
     2  C   -0.473343
     3  H    0.078108
     4  H    0.185438
     5  H    0.032991
     6  C   -0.448933
     7  H    0.063084
     8  H    0.430200
     9  C   -0.465066
    10  H    0.452641
    11  H   -0.011169
    12  H    0.061407
    13  H    0.023464
    14  H    0.378025
 Sum of Mulliken charges =   0.00000

 Dipole moment (field-independent basis, Debye):
    X=             -0.5761    Y=             -0.8279    Z=             -0.5845  Tot=              1.1657
 Quadrupole moment (field-independent basis, Debye-Ang):
   XX=            -29.5441   YY=            -29.0812   ZZ=            -28.3961
   XY=             -1.6827   XZ=              0.7046   YZ=              0.1716

 Normal termination of Gaussian 09 at Wed Aug 26 11:20:48 2020.
