 Gaussian 09, Revision D.01,
 Gaussian 09:  ES64L-G09RevD.01 24-Apr-2013

 --------------------
 #p B2PLYPD3/Def2QZVP
 --------------------

 ----------
 butane_opt
 ----------
 Symbolic Z-matrix:
 Charge =  0 Multiplicity = 1

                         Standard orientation:
 ---------------------------------------------------------------------
 Center     Atomic      Atomic             Coordinates (Angstroms)
 Number     Number       Type             X           Y           Z
 ---------------------------------------------------------------------
      1          6           0        1.904010    0.036994   -0.131800
      2          6           0        0.581136   -0.357255    0.270907
      3          1           0        2.753827   -0.936048   -0.512285
      4          1           0        2.310067    0.821094    0.441942
      5          1           0        1.400571    0.404852   -0.985875
      6          6           0       -0.581558    0.513073    0.008872
      7          1           0        0.476441   -0.872819    1.373807
      8          1           0        0.477072   -0.786904   -0.313726
      9          6           0       -1.912940   -0.170243   -0.067051
     10          1           0       -0.492516    1.030247   -0.922857
     11          1           0       -0.297143    1.481191    0.706443
     12          1           0       -2.201229   -1.255300   -0.968696
     13          1           0       -2.536373    0.414669    0.017720
     14          1           0       -1.834600   -0.436400    0.677959
 ---------------------------------------------------------------------

 SCF Done:  E(RB2PLYPD3) =  -157.625562560     A.U. after   11 cycles
 E2(B2PLYPD3) =    -0.2509548818D+00 E(B2PLYPD3) =    -0.15787651744163D+03

 The electronic state is 1-A.
 Alpha  occ. eigenvalues --  -10.61645 -10.61089 -10.57512 -10.56994  -0.98174
 Alpha  occ. eigenvalues --   -0.90045  -0.75068  -0.68659  -0.58216  -0.53871
 Alpha  occ. eigenvalues --   -0.49932  -0.46450  -0.43480  -0.41371  -0.40615
 Alpha  occ. eigenvalues --   -0.35955  -0.34281
 Alpha virt. eigenvalues --    0.04918   0.05495   0.07823   0.08147   0.10602
 Alpha virt. eigenvalues --    0.11365   0.12403   0.13985   0.14430   0.15443
 Alpha virt. eigenvalues --    0.15696   0.16319   0.18643   0.19932   0.20886

 Mulliken charges:
               1
     1  C   -0.151845
     2  C   -0.556336
     3  H    0.038341
     4  H    0.056427
     5  H    0.055398
     6  C   -0.005863
     7  H    0.020790
     8  H    0.520367
     9  C   -0.402018
    10  H    0.018231
    11  H    0.003232
    12  H    0.035205
    13  H    0.104833
    14  H    0.263237
 Sum of Mulliken charges =   0.00000

 Dipole moment (field-independent basis, Debye):
    X=             -0.3773    Y=              0.1079    Z=             -0.0536  Tot=              0.3961
 Quadrupole moment (field-independent basis, Debye-Ang):
   XX=            -29.3747   YY=            -28.9476   ZZ=            -28.6876
   XY=             -0.2501   XZ=              0.0777   YZ=              0.9386

 Normal termination of Gaussian 09 at Wed Aug 26 20:47:51 2020.
