 Gaussian 09, Revision D.01,
 Gaussian 09:  ES64L-G09RevD.01 24-Apr-2013

 --------------------
 #p B2PLYPD3/Def2QZVP
 --------------------

 ----------
 butane_opt
 ----------
 Symbolic Z-matrix:
 Charge =  0 Multiplicity = 1

                         Standard orientation:
 ---------------------------------------------------------------------
 Center     Atomic      Atomic             Coordinates (Angstroms)
 Number     Number       Type             X           Y           Z
 ---------------------------------------------------------------------
      1          6           0        2.026910   -0.175914   -0.085933
      2          6           0        0.503557    0.605955    0.075938
      3          1           0        2.832753    0.608184   -0.032132
      4          1           0        2.015397   -0.902396   -0.958444
      5          1           0        2.543367   -0.616025    0.689888
      6          6           0       -0.652388   -0.518493    0.222648
      7          1           0        0.327600    1.426845   -1.084502
      8          1           0        0.696893    1.123440    0.777238
      9          6           0       -1.942504    0.112208   -0.122169
     10          1           0       -0.674523   -1.346302    1.133857
     11          1           0       -0.573585   -1.134713   -0.572297
     12          1           0       -2.473817    1.150367    1.016670
     13          1           0       -2.614276   -0.565321   -0.797301
     14          1           0       -1.693260    0.113387   -0.715883
 ---------------------------------------------------------------------

 SCF Done:  E(RB2PLYPD3) =  -157.470533223     A.U. after   12 cycles
 E2(B2PLYPD3) =    -0.2563537267D+00 E(B2PLYPD3) =    -0.15772688694961D+03

 The electronic state is 1-A.
 Alpha  occ. eigenvalues --  -10.64547 -10.62947 -10.61237 -10.60946  -0.97590
 Alpha  occ. eigenvalues --   -0.84821  -0.75257  -0.69464  -0.53305  -0.50705
 Alpha  occ. eigenvalues --   -0.48148  -0.44664  -0.42637  -0.39394  -0.37720
 Alpha  occ. eigenvalues --   -0.35641  -0.33870
 Alpha virt. eigenvalues --    0.02417   0.04938   0.06535   0.06609   0.10006
 Alpha virt. eigenvalues --    0.10238   0.11650   0.13043   0.14064   0.14891
 Alpha virt. eigenvalues --    0.16344   0.17139   0.18498   0.19292   0.19616

 Mulliken charges:
               1
     1  C   -0.151613
     2  C   -0.134233
     3  H    0.026477
     4  H    0.049827
     5  H    0.046317
     6  C   -0.015340
     7  H    0.013634
     8  H    0.127081
     9  C   -0.824956
    10  H    0.032752
    11  H    0.055698
    12  H    0.048711
    13  H    0.042000
    14  H    0.683645
 Sum of Mulliken charges =   0.00000

 Dipole moment (field-independent basis, Debye):
    X=              0.5223    Y=             -0.1953    Z=             -0.1105  Tot=              0.5684
 Quadrupole moment (field-independent basis, Debye-Ang):
   XX=            -30.9228   YY=            -29.3954   ZZ=            -27.9453
   XY=              0.4759   XZ=              1.8813   YZ=              1.6158

 Normal termination of Gaussian 09 at Wed Aug 26 15:04:55 2020.
