 Gaussian 09, Revision D.01,
 Gaussian 09:  ES64L-G09RevD.01 24-Apr-2013

 --------------------
 #p B2PLYPD3/Def2QZVP
 --------------------

 ----------
 butane_opt
 ----------
 Symbolic Z-matrix:
 Charge =  0 Multiplicity = 1

                         Standard orientation:
 ---------------------------------------------------------------------
 Center     Atomic      Atomic             Coordinates (Angstroms)
 Number     Number       Type             X           Y           Z
 ---------------------------------------------------------------------
      1          6           0        2.045234   -0.166647   -0.011582
      2          6           0        0.517869    0.602816   -0.036450
      3          1           0        2.837642    0.681799   -0.069145
      4          1           0        2.012840   -0.784397   -0.866291
      5          1           0        2.428397   -0.872210    0.963793
      6          6           0       -0.623564   -0.485760   -0.005726
      7          1           0        0.379806    1.225659   -0.825328
      8          1           0        0.322927    1.160516    0.662179
      9          6           0       -1.970915    0.005122    0.012667
     10          1           0       -0.343597   -1.232247    1.030322
     11          1           0       -0.655713   -0.832953   -0.619000
     12          1           0       -2.223476    1.208663    1.057189
     13          1           0       -2.688068   -0.636458   -0.415859
     14          1           0       -1.882500    0.348444   -0.671309
 ---------------------------------------------------------------------

 SCF Done:  E(RB2PLYPD3) =  -157.582885879     A.U. after   12 cycles
 E2(B2PLYPD3) =    -0.2506534221D+00 E(B2PLYPD3) =    -0.15783353930125D+03

 The electronic state is 1-A.
 Alpha  occ. eigenvalues --  -10.63472 -10.59979 -10.59553 -10.58946  -0.97698
 Alpha  occ. eigenvalues --   -0.84710  -0.75103  -0.72578  -0.55673  -0.50948
 Alpha  occ. eigenvalues --   -0.49095  -0.47439  -0.43530  -0.41139  -0.37584
 Alpha  occ. eigenvalues --   -0.36602  -0.35650
 Alpha virt. eigenvalues --    0.03276   0.05934   0.07817   0.08302   0.10112
 Alpha virt. eigenvalues --    0.10977   0.11951   0.13338   0.14235   0.15157
 Alpha virt. eigenvalues --    0.15857   0.16563   0.18399   0.18981   0.20932

 Mulliken charges:
               1
     1  C   -0.183853
     2  C   -0.044745
     3  H    0.045445
     4  H    0.065924
     5  H    0.042641
     6  C   -0.507854
     7  H    0.027801
     8  H    0.092991
     9  C   -0.437646
    10  H    0.022710
    11  H    0.457374
    12  H    0.001582
    13  H    0.062168
    14  H    0.355462
 Sum of Mulliken charges =   0.00000

 Dipole moment (field-independent basis, Debye):
    X=              0.1168    Y=              0.0800    Z=             -1.1244  Tot=              1.1333
 Quadrupole moment (field-independent basis, Debye-Ang):
   XX=            -30.3690   YY=            -28.7797   ZZ=            -28.1833
   XY=              0.6963   XZ=              2.3465   YZ=              0.7292

 Normal termination of Gaussian 09 at Wed Aug 26 21:57:21 2020.
