 Gaussian 09, Revision D.01,
 Gaussian 09:  ES64L-G09RevD.01 24-Apr-2013

 --------------------
 #p B2PLYPD3/Def2QZVP
 --------------------

 ----------
 butane_opt
 ----------
 Symbolic Z-matrix:
 Charge =  0 Multiplicity = 1

                         Standard orientation:
 ---------------------------------------------------------------------
 Center     Atomic      Atomic             Coordinates (Angstroms)
 Number     Number       Type             X           Y           Z
 ---------------------------------------------------------------------
      1          6           0       -2.015451   -0.165272   -0.020767
      2          6           0       -0.571649    0.549606   -0.026898
      3          1           0       -2.706669    0.542005    0.186305
      4          1           0       -2.054497   -0.353120    0.708860
      5          1           0       -2.329199   -0.996424   -0.914852
      6          6           0        0.589425   -0.431924    0.072844
      7          1           0       -0.485895    1.183794    0.699661
      8          1           0       -0.099150    1.089863   -0.924581
      9          6           0        1.972405    0.018516   -0.083192
     10          1           0        0.449955   -0.843330   -0.496526
     11          1           0        0.517574   -1.310660    1.110767
     12          1           0        1.901041    0.516130   -0.811060
     13          1           0        2.750447   -0.716967   -0.168325
     14          1           0        2.208008    1.063157    0.957830
 ---------------------------------------------------------------------

 SCF Done:  E(RB2PLYPD3) =  -157.595440496     A.U. after   11 cycles
 E2(B2PLYPD3) =    -0.2488373955D+00 E(B2PLYPD3) =    -0.15784427789113D+03

 The electronic state is 1-A.
 Alpha  occ. eigenvalues --  -10.61083 -10.61000 -10.58549 -10.58504  -0.95506
 Alpha  occ. eigenvalues --   -0.88561  -0.77870  -0.71292  -0.55017  -0.52320
 Alpha  occ. eigenvalues --   -0.49658  -0.48700  -0.44358  -0.41690  -0.40479
 Alpha  occ. eigenvalues --   -0.35839  -0.34926
 Alpha virt. eigenvalues --    0.04617   0.06298   0.07782   0.08908   0.10752
 Alpha virt. eigenvalues --    0.10830   0.12721   0.13414   0.14531   0.15395
 Alpha virt. eigenvalues --    0.15933   0.16307   0.18915   0.19419   0.20817

 Mulliken charges:
               1
     1  C   -0.438493
     2  C   -0.015988
     3  H    0.043492
     4  H    0.322546
     5  H    0.066506
     6  C   -0.479368
     7  H    0.071632
     8  H    0.012956
     9  C   -0.195434
    10  H    0.446256
    11  H   -0.018796
    12  H    0.126391
    13  H    0.076256
    14  H   -0.017956
 Sum of Mulliken charges =   0.00000

 Dipole moment (field-independent basis, Debye):
    X=             -0.4441    Y=             -0.1479    Z=             -0.5628  Tot=              0.7320
 Quadrupole moment (field-independent basis, Debye-Ang):
   XX=            -28.5764   YY=            -29.3016   ZZ=            -28.3874
   XY=             -0.8969   XZ=             -2.3648   YZ=              1.2749

 Normal termination of Gaussian 09 at Wed Aug 26 15:32:36 2020.
