 Gaussian 09, Revision D.01,
 Gaussian 09:  ES64L-G09RevD.01 24-Apr-2013

 --------------------
 #p B2PLYPD3/Def2QZVP
 --------------------

 ----------
 butane_opt
 ----------
 Symbolic Z-matrix:
 Charge =  0 Multiplicity = 1

                         Standard orientation:
 ---------------------------------------------------------------------
 Center     Atomic      Atomic             Coordinates (Angstroms)
 Number     Number       Type             X           Y           Z
 ---------------------------------------------------------------------
      1          6           0        1.980574   -0.104356   -0.217792
      2          6           0        0.582872    0.539594    0.231484
      3          1           0        2.662743    0.614621   -0.519610
      4          1           0        2.007542   -0.420168   -1.000160
      5          1           0        2.383193   -1.066761    0.852920
      6          6           0       -0.523151   -0.615992    0.138690
      7          1           0        0.314175    0.911702   -0.405222
      8          1           0        0.757942    1.556149    1.354977
      9          6           0       -2.016944    0.164728   -0.154135
     10          1           0       -0.487144   -1.338242    0.833063
     11          1           0       -0.458402   -0.992916   -0.601172
     12          1           0       -2.339715    0.568758    0.687508
     13          1           0       -2.863882   -0.637799   -0.032162
     14          1           0       -2.116565    0.900817   -1.159622
 ---------------------------------------------------------------------

 SCF Done:  E(RB2PLYPD3) =  -157.677225694     A.U. after   11 cycles
 E2(B2PLYPD3) =    -0.2513993130D+00 E(B2PLYPD3) =    -0.15792862500724D+03

 The electronic state is 1-A.
 Alpha  occ. eigenvalues --  -10.62210 -10.62159 -10.60874 -10.59166  -0.92503
 Alpha  occ. eigenvalues --   -0.84117  -0.76376  -0.72804  -0.54980  -0.49692
 Alpha  occ. eigenvalues --   -0.47680  -0.45779  -0.43213  -0.40473  -0.37444
 Alpha  occ. eigenvalues --   -0.37345  -0.35354
 Alpha virt. eigenvalues --    0.03849   0.05950   0.06527   0.08653   0.09659
 Alpha virt. eigenvalues --    0.11089   0.12464   0.13479   0.13744   0.15209
 Alpha virt. eigenvalues --    0.15967   0.16515   0.18194   0.19573   0.20505

 Mulliken charges:
               1
     1  C   -0.232266
     2  C   -0.361725
     3  H    0.044754
     4  H    0.140556
     5  H    0.022057
     6  C   -0.212812
     7  H    0.348244
     8  H    0.015206
     9  C   -0.170337
    10  H    0.049575
    11  H    0.215776
    12  H    0.067252
    13  H    0.021426
    14  H    0.052291
 Sum of Mulliken charges =   0.00000

 Dipole moment (field-independent basis, Debye):
    X=             -0.2330    Y=             -0.0621    Z=             -0.7896  Tot=              0.8256
 Quadrupole moment (field-independent basis, Debye-Ang):
   XX=            -30.4385   YY=            -28.8673   ZZ=            -27.8735
   XY=              0.5288   XZ=             -1.9105   YZ=             -1.0666

 Normal termination of Gaussian 09 at Wed Aug 26 14:07:43 2020.
