 Gaussian 09, Revision D.01,
 Gaussian 09:  ES64L-G09RevD.01 24-Apr-2013

 --------------------
 #p B2PLYPD3/Def2QZVP
 --------------------

 ----------
 butane_opt
 ----------
 Symbolic Z-matrix:
 Charge =  0 Multiplicity = 1

                         Standard orientation:
 ---------------------------------------------------------------------
 Center     Atomic      Atomic             Coordinates (Angstroms)
 Number     Number       Type             X           Y           Z
 ---------------------------------------------------------------------
      1          6           0        1.849155   -0.093425   -0.079901
      2          6           0        0.612115    0.484734    0.034218
      3          1           0        2.717638    0.810841   -0.174706
      4          1           0        1.658678   -0.643627   -0.904683
      5          1           0        2.111513   -0.659566    0.743420
      6          6           0       -0.479661   -0.614215    0.202560
      7          1           0        0.354315    0.986229   -0.731278
      8          1           0        0.496841    1.094440    0.932473
      9          6           0       -1.916906    0.121981   -0.062079
     10          1           0       -0.454833   -1.145291    1.027932
     11          1           0       -0.307185   -1.107194   -0.654335
     12          1           0       -2.676775    1.131847    0.965816
     13          1           0       -2.742596   -0.532102   -0.786816
     14          1           0       -1.545813    0.669978   -0.986613
 ---------------------------------------------------------------------

 SCF Done:  E(RB2PLYPD3) =  -157.920690635     A.U. after   11 cycles
 E2(B2PLYPD3) =    -0.2525730500D+00 E(B2PLYPD3) =    -0.15817326368473D+03

 The electronic state is 1-A.
 Alpha  occ. eigenvalues --  -10.66944 -10.60416 -10.59160 -10.57882  -0.95237
 Alpha  occ. eigenvalues --   -0.83387  -0.70187  -0.69061  -0.58738  -0.50839
 Alpha  occ. eigenvalues --   -0.48805  -0.47641  -0.41687  -0.39765  -0.38951
 Alpha  occ. eigenvalues --   -0.36732  -0.34646
 Alpha virt. eigenvalues --    0.02537   0.05627   0.07800   0.08532   0.09812
 Alpha virt. eigenvalues --    0.10508   0.11781   0.12628   0.14308   0.15689
 Alpha virt. eigenvalues --    0.16336   0.16482   0.18756   0.18843   0.20966

 Mulliken charges:
               1
     1  C   -0.148011
     2  C   -0.053542
     3  H    0.021637
     4  H    0.049779
     5  H    0.056615
     6  C   -0.076643
     7  H    0.077396
     8  H    0.026228
     9  C   -0.207261
    10  H    0.057673
    11  H    0.075836
    12  H    0.032040
    13  H    0.040287
    14  H    0.047966
 Sum of Mulliken charges =   0.00000

 Dipole moment (field-independent basis, Debye):
    X=              0.5297    Y=             -0.2895    Z=             -0.3386  Tot=              0.6921
 Quadrupole moment (field-independent basis, Debye-Ang):
   XX=            -32.5823   YY=            -29.6236   ZZ=            -27.8005
   XY=              0.1341   XZ=              1.0780   YZ=              0.0548

 Normal termination of Gaussian 09 at Wed Aug 26 19:13:54 2020.
