 Gaussian 09, Revision D.01,
 Gaussian 09:  ES64L-G09RevD.01 24-Apr-2013

 --------------------
 #p B2PLYPD3/Def2QZVP
 --------------------

 ----------
 butane_opt
 ----------
 Symbolic Z-matrix:
 Charge =  0 Multiplicity = 1

                         Standard orientation:
 ---------------------------------------------------------------------
 Center     Atomic      Atomic             Coordinates (Angstroms)
 Number     Number       Type             X           Y           Z
 ---------------------------------------------------------------------
      1          6           0        1.990878   -0.196065    0.083590
      2          6           0        0.610581    0.570905   -0.018779
      3          1           0        2.570456    0.418316   -0.352068
      4          1           0        2.051194   -0.422735   -0.514479
      5          1           0        2.393379   -1.119836    1.187727
      6          6           0       -0.628006   -0.406650   -0.119587
      7          1           0        0.477387    1.506542   -0.962445
      8          1           0        0.267985    1.078604    0.649071
      9          6           0       -1.940695    0.075064    0.035563
     10          1           0       -0.722709   -0.972278    0.620146
     11          1           0       -0.347579   -1.234685   -1.222230
     12          1           0       -2.049991    1.034379    1.210895
     13          1           0       -2.892830   -1.032534    0.033651
     14          1           0       -1.943839    0.484702   -0.534989
 ---------------------------------------------------------------------

 SCF Done:  E(RB2PLYPD3) =  -157.178785182     A.U. after   12 cycles
 E2(B2PLYPD3) =    -0.2559366022D+00 E(B2PLYPD3) =    -0.15743472178467D+03

 The electronic state is 1-A.
 Alpha  occ. eigenvalues --  -10.62716 -10.62662 -10.60933 -10.59520  -0.96419
 Alpha  occ. eigenvalues --   -0.93327  -0.79677  -0.70422  -0.53925  -0.49908
 Alpha  occ. eigenvalues --   -0.47362  -0.45640  -0.42126  -0.41084  -0.39390
 Alpha  occ. eigenvalues --   -0.36850  -0.32883
 Alpha virt. eigenvalues --    0.03142   0.04196   0.04459   0.06667   0.09838
 Alpha virt. eigenvalues --    0.10489   0.10986   0.12979   0.13859   0.15003
 Alpha virt. eigenvalues --    0.15928   0.16525   0.18048   0.18878   0.20434

 Mulliken charges:
               1
     1  C   -0.700097
     2  C   -0.077381
     3  H    0.047225
     4  H    0.572426
     5  H    0.078417
     6  C   -0.024079
     7  H   -0.014478
     8  H    0.112920
     9  C   -0.606702
    10  H    0.093141
    11  H   -0.019990
    12  H    0.007347
    13  H    0.053796
    14  H    0.477456
 Sum of Mulliken charges =   0.00000

 Dipole moment (field-independent basis, Debye):
    X=              0.4521    Y=             -0.0603    Z=             -0.1757  Tot=              0.4887
 Quadrupole moment (field-independent basis, Debye-Ang):
   XX=            -29.9051   YY=            -29.0584   ZZ=            -28.7316
   XY=             -0.1859   XZ=             -0.7406   YZ=             -1.0124

 Normal termination of Gaussian 09 at Wed Aug 26 12:52:44 2020.
