 Gaussian 09, Revision D.01,
 Gaussian 09:  ES64L-G09RevD.01 24-Apr-2013

 --------------------
 #p B2PLYPD3/Def2QZVP
 --------------------

 ----------
 butane_opt
 ----------
 Symbolic Z-matrix:
 Charge =  0 Multiplicity = 1

                         Standard orientation:
 ---------------------------------------------------------------------
 Center     Atomic      Atomic             Coordinates (Angstroms)
 Number     Number       Type             X           Y           Z
 ---------------------------------------------------------------------
      1          6           0        1.977104    0.112866   -0.073473
      2          6           0        0.580556   -0.544679    0.141434
      3          1           0        2.733571   -0.657663   -0.715356
      4          1           0        2.585403    0.862695    0.988444
      5          1           0        1.653914    0.308956   -0.732073
      6          6           0       -0.498889    0.592756    0.043366
      7          1           0        0.481997   -1.183957    1.002381
      8          1           0        0.367266   -0.980668   -0.616980
      9          6           0       -2.014932   -0.130193   -0.029757
     10          1           0       -0.668863    1.363379   -0.954648
     11          1           0       -0.379624    1.144199    0.809199
     12          1           0       -1.932837   -0.738592   -0.963058
     13          1           0       -2.653218    0.382711   -0.038910
     14          1           0       -2.450641   -0.685564    0.731580
 ---------------------------------------------------------------------

 SCF Done:  E(RB2PLYPD3) =  -157.705399354     A.U. after   11 cycles
 E2(B2PLYPD3) =    -0.2502959332D+00 E(B2PLYPD3) =    -0.15795569528726D+03

 The electronic state is 1-A.
 Alpha  occ. eigenvalues --  -10.62243 -10.60907 -10.59584 -10.57209  -0.93745
 Alpha  occ. eigenvalues --   -0.85796  -0.77102  -0.69621  -0.55971  -0.50694
 Alpha  occ. eigenvalues --   -0.48356  -0.45990  -0.43316  -0.41016  -0.39778
 Alpha  occ. eigenvalues --   -0.36233  -0.35421
 Alpha virt. eigenvalues --    0.04909   0.06093   0.07864   0.08227   0.10391
 Alpha virt. eigenvalues --    0.10865   0.12581   0.13937   0.15002   0.15383
 Alpha virt. eigenvalues --    0.16051   0.17078   0.18766   0.18919   0.20909

 Mulliken charges:
               1
     1  C   -0.557632
     2  C   -0.117699
     3  H    0.024044
     4  H    0.072090
     5  H    0.416414
     6  C   -0.087458
     7  H    0.054582
     8  H    0.130687
     9  C   -0.266100
    10  H    0.021617
    11  H    0.071988
    12  H    0.043088
    13  H    0.169042
    14  H    0.025338
 Sum of Mulliken charges =   0.00000

 Dipole moment (field-independent basis, Debye):
    X=             -0.5999    Y=              0.0555    Z=              0.0043  Tot=              0.6025
 Quadrupole moment (field-independent basis, Debye-Ang):
   XX=            -29.6647   YY=            -29.2491   ZZ=            -27.3764
   XY=             -0.2030   XZ=              0.0220   YZ=              0.7669

 Normal termination of Gaussian 09 at Wed Aug 26 14:54:45 2020.
