 Gaussian 09, Revision D.01,
 Gaussian 09:  ES64L-G09RevD.01 24-Apr-2013

 --------------------
 #p B2PLYPD3/Def2QZVP
 --------------------

 ----------
 butane_opt
 ----------
 Symbolic Z-matrix:
 Charge =  0 Multiplicity = 1

                         Standard orientation:
 ---------------------------------------------------------------------
 Center     Atomic      Atomic             Coordinates (Angstroms)
 Number     Number       Type             X           Y           Z
 ---------------------------------------------------------------------
      1          6           0       -1.877747   -0.100511    0.116741
      2          6           0       -0.561846    0.474752   -0.134240
      3          1           0       -2.770155    0.840752    0.021958
      4          1           0       -2.144137   -0.735032    1.013863
      5          1           0       -1.914331   -0.647387   -0.741959
      6          6           0        0.534303   -0.541253   -0.026511
      7          1           0       -0.452293    0.900557    0.607900
      8          1           0       -0.441975    1.360834   -1.249114
      9          6           0        1.924524    0.137573    0.076656
     10          1           0        0.406857   -1.329588   -0.937283
     11          1           0        0.277296   -1.133114    0.817781
     12          1           0        2.000166    0.236763   -0.545429
     13          1           0        2.565571   -0.438718   -0.382072
     14          1           0        2.357594    1.121575    1.198480
 ---------------------------------------------------------------------

 SCF Done:  E(RB2PLYPD3) =  -157.450749696     A.U. after   12 cycles
 E2(B2PLYPD3) =    -0.2536001821D+00 E(B2PLYPD3) =    -0.15770434987810D+03

 The electronic state is 1-A.
 Alpha  occ. eigenvalues --  -10.62236 -10.60995 -10.59948 -10.59449  -0.98153
 Alpha  occ. eigenvalues --   -0.91600  -0.76549  -0.67847  -0.54805  -0.50248
 Alpha  occ. eigenvalues --   -0.48028  -0.46609  -0.40573  -0.39206  -0.38798
 Alpha  occ. eigenvalues --   -0.36578  -0.35167
 Alpha virt. eigenvalues --    0.03643   0.05091   0.06583   0.07171   0.10145
 Alpha virt. eigenvalues --    0.11250   0.12066   0.12665   0.14620   0.15264
 Alpha virt. eigenvalues --    0.16770   0.16970   0.18413   0.19079   0.20507

 Mulliken charges:
               1
     1  C   -0.167478
     2  C   -0.184298
     3  H    0.022399
     4  H    0.054164
     5  H    0.065561
     6  C    0.001378
     7  H    0.191179
     8  H    0.003758
     9  C   -0.779413
    10  H   -0.004481
    11  H    0.049903
    12  H    0.642297
    13  H    0.034256
    14  H    0.070775
 Sum of Mulliken charges =   0.00000

 Dipole moment (field-independent basis, Debye):
    X=              0.3476    Y=             -0.1853    Z=             -0.0543  Tot=              0.3977
 Quadrupole moment (field-independent basis, Debye-Ang):
   XX=            -30.0430   YY=            -29.6008   ZZ=            -27.5631
   XY=              0.8091   XZ=             -1.7843   YZ=              0.8771

 Normal termination of Gaussian 09 at Wed Aug 26 14:32:41 2020.
