 Gaussian 09, Revision D.01,
 Gaussian 09:  ES64L-G09RevD.01 24-Apr-2013

 --------------------
 #p B2PLYPD3/Def2QZVP
 --------------------

 ----------
 butane_opt
 ----------
 Symbolic Z-matrix:
 Charge =  0 Multiplicity = 1

                         Standard orientation:
 ---------------------------------------------------------------------
 Center     Atomic      Atomic             Coordinates (Angstroms)
 Number     Number       Type             X           Y           Z
 ---------------------------------------------------------------------
      1          6           0       -1.870155    0.154484   -0.146436
      2          6           0       -0.569775   -0.519051    0.209879
      3          1           0       -2.720526   -0.691850   -0.376176
      4          1           0       -2.031984    0.920455   -1.138712
      5          1           0       -2.213697    0.652862    0.581815
      6          6           0        0.513257    0.415193    0.232300
      7          1           0       -0.358914   -0.711555   -0.524900
      8          1           0       -0.533970   -1.217941    1.069262
      9          6           0        1.916624   -0.109774   -0.164070
     10          1           0        0.725885    1.322613    1.311054
     11          1           0        0.399135    0.852258   -0.511888
     12          1           0        2.452532   -0.660690    0.519353
     13          1           0        2.792760    0.774252   -0.625482
     14          1           0        1.549071   -0.885522   -1.094368
 ---------------------------------------------------------------------

 SCF Done:  E(RB2PLYPD3) =  -157.803576936     A.U. after   11 cycles
 E2(B2PLYPD3) =    -0.2508454100D+00 E(B2PLYPD3) =    -0.15805442234633D+03

 The electronic state is 1-A.
 Alpha  occ. eigenvalues --  -10.63833 -10.61547 -10.60981 -10.57890  -0.98037
 Alpha  occ. eigenvalues --   -0.83518  -0.74597  -0.68278  -0.58435  -0.49410
 Alpha  occ. eigenvalues --   -0.49349  -0.46993  -0.42032  -0.41080  -0.39735
 Alpha  occ. eigenvalues --   -0.37900  -0.34200
 Alpha virt. eigenvalues --    0.05396   0.06053   0.07180   0.08174   0.10341
 Alpha virt. eigenvalues --    0.11345   0.11869   0.13221   0.14495   0.14878
 Alpha virt. eigenvalues --    0.15026   0.16702   0.18620   0.20058   0.21444

 Mulliken charges:
               1
     1  C   -0.134355
     2  C   -0.419939
     3  H    0.020408
     4  H    0.024150
     5  H    0.084697
     6  C   -0.190519
     7  H    0.394111
     8  H    0.072816
     9  C   -0.151047
    10  H   -0.022885
    11  H    0.201388
    12  H    0.068583
    13  H    0.038198
    14  H    0.014394
 Sum of Mulliken charges =   0.00000

 Dipole moment (field-independent basis, Debye):
    X=             -0.1806    Y=             -0.3205    Z=             -0.1522  Tot=              0.3982
 Quadrupole moment (field-independent basis, Debye-Ang):
   XX=            -29.4709   YY=            -29.8367   ZZ=            -28.8989
   XY=             -0.1161   XZ=              0.3604   YZ=             -1.1502

 Normal termination of Gaussian 09 at Wed Aug 26 15:25:00 2020.
