 Gaussian 09, Revision D.01,
 Gaussian 09:  ES64L-G09RevD.01 24-Apr-2013

 --------------------
 #p B2PLYPD3/Def2QZVP
 --------------------

 ----------
 butane_opt
 ----------
 Symbolic Z-matrix:
 Charge =  0 Multiplicity = 1

                         Standard orientation:
 ---------------------------------------------------------------------
 Center     Atomic      Atomic             Coordinates (Angstroms)
 Number     Number       Type             X           Y           Z
 ---------------------------------------------------------------------
      1          6           0        1.976448    0.119928   -0.170809
      2          6           0        0.606389   -0.542653    0.119019
      3          1           0        2.801817   -0.786566    0.097814
      4          1           0        2.096717    0.634955    0.575782
      5          1           0        1.955125    0.985084   -1.069347
      6          6           0       -0.542740    0.499540    0.299125
      7          1           0        0.639646   -1.033879    0.774873
      8          1           0       -0.017476   -1.041557   -0.659609
      9          6           0       -1.982158   -0.102329   -0.163877
     10          1           0       -0.224641    1.172783   -0.400840
     11          1           0       -0.796848    1.140252    1.299447
     12          1           0       -1.484243   -0.650595   -1.068664
     13          1           0       -2.627763    0.622196   -0.899223
     14          1           0       -2.689967   -0.889583    0.849014
 ---------------------------------------------------------------------

 SCF Done:  E(RB2PLYPD3) =  -157.850606971     A.U. after   11 cycles
 E2(B2PLYPD3) =    -0.2543981575D+00 E(B2PLYPD3) =    -0.15810500512827D+03

 The electronic state is 1-A.
 Alpha  occ. eigenvalues --  -10.65924 -10.62031 -10.61993 -10.58517  -0.92404
 Alpha  occ. eigenvalues --   -0.82190  -0.73505  -0.67514  -0.55874  -0.48715
 Alpha  occ. eigenvalues --   -0.47034  -0.45679  -0.42980  -0.38407  -0.38228
 Alpha  occ. eigenvalues --   -0.36758  -0.35786
 Alpha virt. eigenvalues --    0.04119   0.05278   0.08317   0.08490   0.10194
 Alpha virt. eigenvalues --    0.10656   0.11593   0.12482   0.14324   0.14907
 Alpha virt. eigenvalues --    0.15734   0.16247   0.18228   0.18966   0.20070

 Mulliken charges:
               1
     1  C   -0.198524
     2  C   -0.172847
     3  H    0.030631
     4  H    0.131088
     5  H    0.036389
     6  C   -0.061923
     7  H    0.177379
     8  H    0.037287
     9  C   -0.200113
    10  H    0.066582
    11  H    0.020691
    12  H    0.030380
    13  H    0.052216
    14  H    0.050765
 Sum of Mulliken charges =   0.00000

 Dipole moment (field-independent basis, Debye):
    X=              0.3391    Y=              0.1998    Z=              0.1643  Tot=              0.4265
 Quadrupole moment (field-independent basis, Debye-Ang):
   XX=            -31.1582   YY=            -29.4838   ZZ=            -28.6825
   XY=              0.0319   XZ=              1.1180   YZ=             -1.5872

 Normal termination of Gaussian 09 at Wed Aug 26 23:02:04 2020.
