 Gaussian 09, Revision D.01,
 Gaussian 09:  ES64L-G09RevD.01 24-Apr-2013

 --------------------
 #p B2PLYPD3/Def2QZVP
 --------------------

 ----------
 butane_opt
 ----------
 Symbolic Z-matrix:
 Charge =  0 Multiplicity = 1

                         Standard orientation:
 ---------------------------------------------------------------------
 Center     Atomic      Atomic             Coordinates (Angstroms)
 Number     Number       Type             X           Y           Z
 ---------------------------------------------------------------------
      1          6           0       -2.075899   -0.147021   -0.121137
      2          6           0       -0.583807    0.584353    0.166377
      3          1           0       -2.751227    0.471580   -0.636521
      4          1           0       -2.573839   -0.941110    0.929716
      5          1           0       -1.769249   -0.745065   -0.764323
      6          6           0        0.658984   -0.486542    0.144924
      7          1           0       -0.494108    1.193639    0.918767
      8          1           0       -0.134187    1.178988   -0.770295
      9          6           0        1.955923    0.094255   -0.095553
     10          1           0        0.547284   -1.281426   -0.734095
     11          1           0        0.656297   -0.934913    0.798788
     12          1           0        2.034608    0.793581   -1.037432
     13          1           0        2.897901   -0.912340   -0.095417
     14          1           0        1.855314    0.906787    0.823143
 ---------------------------------------------------------------------

 SCF Done:  E(RB2PLYPD3) =  -157.846090155     A.U. after   11 cycles
 E2(B2PLYPD3) =    -0.2518143432D+00 E(B2PLYPD3) =    -0.15809790449854D+03

 The electronic state is 1-A.
 Alpha  occ. eigenvalues --  -10.64737 -10.62562 -10.62243 -10.58543  -0.92033
 Alpha  occ. eigenvalues --   -0.83136  -0.72830  -0.69536  -0.54443  -0.49410
 Alpha  occ. eigenvalues --   -0.48287  -0.44917  -0.43927  -0.41522  -0.38130
 Alpha  occ. eigenvalues --   -0.35954  -0.35236
 Alpha virt. eigenvalues --    0.04425   0.05414   0.07921   0.08894   0.10231
 Alpha virt. eigenvalues --    0.10614   0.12127   0.12434   0.14048   0.15463
 Alpha virt. eigenvalues --    0.15483   0.15826   0.18696   0.19746   0.20220

 Mulliken charges:
               1
     1  C   -0.210075
     2  C   -0.083655
     3  H    0.064596
     4  H    0.026065
     5  H    0.115503
     6  C   -0.193060
     7  H    0.073014
     8  H    0.017975
     9  C   -0.153964
    10  H   -0.004045
    11  H    0.222898
    12  H    0.051775
    13  H    0.043621
    14  H    0.029352
 Sum of Mulliken charges =   0.00000

 Dipole moment (field-independent basis, Debye):
    X=             -0.1142    Y=             -0.1073    Z=             -0.1561  Tot=              0.2211
 Quadrupole moment (field-independent basis, Debye-Ang):
   XX=            -31.3186   YY=            -29.0847   ZZ=            -28.5613
   XY=             -0.7232   XZ=              0.0750   YZ=             -0.3659

 Normal termination of Gaussian 09 at Wed Aug 26 09:42:50 2020.
