 Gaussian 09, Revision D.01,
 Gaussian 09:  ES64L-G09RevD.01 24-Apr-2013

 --------------------
 #p B2PLYPD3/Def2QZVP
 --------------------

 ----------
 butane_opt
 ----------
 Symbolic Z-matrix:
 Charge =  0 Multiplicity = 1

                         Standard orientation:
 ---------------------------------------------------------------------
 Center     Atomic      Atomic             Coordinates (Angstroms)
 Number     Number       Type             X           Y           Z
 ---------------------------------------------------------------------
      1          6           0       -1.924313   -0.000244    0.172629
      2          6           0       -0.554357    0.344088   -0.267149
      3          1           0       -2.714407    0.863102   -0.319621
      4          1           0       -1.888488   -0.773481    1.440183
      5          1           0       -1.861964   -0.453322   -0.392718
      6          6           0        0.542584   -0.538808    0.056267
      7          1           0       -0.185950    0.996614    0.443283
      8          1           0       -0.595712    1.034050   -1.412879
      9          6           0        1.900561    0.109305    0.053473
     10          1           0        0.338477   -1.617422   -0.881695
     11          1           0        0.214703   -0.827522    0.951585
     12          1           0        1.718538    0.145217   -0.645188
     13          1           0        2.598040   -0.697909   -0.411393
     14          1           0        2.589910    1.844630    1.137130
 ---------------------------------------------------------------------

 SCF Done:  E(RB2PLYPD3) =  -157.278698289     A.U. after   13 cycles
 E2(B2PLYPD3) =    -0.2674452179D+00 E(B2PLYPD3) =    -0.15754614350718D+03

 The electronic state is 1-A.
 Alpha  occ. eigenvalues --  -10.64997 -10.63107 -10.62357 -10.61438  -0.99257
 Alpha  occ. eigenvalues --   -0.92370  -0.79520  -0.65555  -0.54611  -0.49642
 Alpha  occ. eigenvalues --   -0.48332  -0.45882  -0.40560  -0.39919  -0.37411
 Alpha  occ. eigenvalues --   -0.35193  -0.32212
 Alpha virt. eigenvalues --   -0.07674   0.03459   0.04619   0.06364   0.09155
 Alpha virt. eigenvalues --    0.10251   0.11569   0.12179   0.13147   0.15005
 Alpha virt. eigenvalues --    0.15599   0.16316   0.17139   0.18250   0.20136

 Mulliken charges:
               1
     1  C   -0.599998
     2  C   -0.038074
     3  H    0.072042
     4  H    0.038206
     5  H    0.471080
     6  C   -0.060355
     7  H    0.066671
     8  H    0.002701
     9  C   -0.616956
    10  H   -0.021173
    11  H    0.083819
    12  H    0.497952
    13  H    0.068892
    14  H    0.035193
 Sum of Mulliken charges =   0.00000

 Dipole moment (field-independent basis, Debye):
    X=             -0.3015    Y=             -0.0210    Z=             -0.6434  Tot=              0.7109
 Quadrupole moment (field-independent basis, Debye-Ang):
   XX=            -32.3648   YY=            -30.1624   ZZ=            -28.7526
   XY=             -0.0012   XZ=              0.0089   YZ=              0.3491

 Normal termination of Gaussian 09 at Wed Aug 26 15:22:30 2020.
