 Gaussian 09, Revision D.01,
 Gaussian 09:  ES64L-G09RevD.01 24-Apr-2013

 --------------------
 #p B2PLYPD3/Def2QZVP
 --------------------

 ----------
 butane_opt
 ----------
 Symbolic Z-matrix:
 Charge =  0 Multiplicity = 1

                         Standard orientation:
 ---------------------------------------------------------------------
 Center     Atomic      Atomic             Coordinates (Angstroms)
 Number     Number       Type             X           Y           Z
 ---------------------------------------------------------------------
      1          6           0       -1.947494    0.087361    0.121308
      2          6           0       -0.610588   -0.505701   -0.113499
      3          1           0       -2.799439   -0.671897    0.181669
      4          1           0       -2.338859    0.505712   -0.553474
      5          1           0       -1.920879    1.231960    1.196319
      6          6           0        0.571297    0.543272   -0.325370
      7          1           0       -0.618100   -1.025967   -0.887195
      8          1           0       -0.789147   -1.180414    0.759884
      9          6           0        2.091109   -0.095083    0.144964
     10          1           0        0.306640    0.966523    0.404005
     11          1           0        0.499041    1.099781   -1.261947
     12          1           0        1.728751   -0.567890    1.058945
     13          1           0        2.757350    0.510288    0.894281
     14          1           0        2.548697   -1.047187   -0.756903
 ---------------------------------------------------------------------

 SCF Done:  E(RB2PLYPD3) =  -157.825857131     A.U. after   11 cycles
 E2(B2PLYPD3) =    -0.2533655321D+00 E(B2PLYPD3) =    -0.15807922266350D+03

 The electronic state is 1-A.
 Alpha  occ. eigenvalues --  -10.64631 -10.62272 -10.60765 -10.59715  -0.92465
 Alpha  occ. eigenvalues --   -0.83210  -0.73885  -0.69795  -0.57078  -0.50527
 Alpha  occ. eigenvalues --   -0.47723  -0.45770  -0.40878  -0.39036  -0.37989
 Alpha  occ. eigenvalues --   -0.36327  -0.35114
 Alpha virt. eigenvalues --    0.03851   0.04936   0.07702   0.08354   0.09924
 Alpha virt. eigenvalues --    0.10555   0.11668   0.12800   0.13604   0.14244
 Alpha virt. eigenvalues --    0.15586   0.17139   0.18175   0.18571   0.20737

 Mulliken charges:
               1
     1  C   -0.181291
     2  C   -0.057275
     3  H    0.042922
     4  H    0.094362
     5  H   -0.021065
     6  C   -0.183462
     7  H    0.063708
     8  H    0.038406
     9  C   -0.202002
    10  H    0.179470
    11  H    0.062134
    12  H    0.060291
    13  H    0.060882
    14  H    0.042921
 Sum of Mulliken charges =   0.00000

 Dipole moment (field-independent basis, Debye):
    X=             -0.5023    Y=             -0.3329    Z=             -0.3568  Tot=              0.7004
 Quadrupole moment (field-independent basis, Debye-Ang):
   XX=            -30.7651   YY=            -29.7868   ZZ=            -28.0991
   XY=              0.9980   XZ=              2.3593   YZ=              0.3429

 Normal termination of Gaussian 09 at Wed Aug 26 21:41:57 2020.
