 Gaussian 09, Revision D.01,
 Gaussian 09:  ES64L-G09RevD.01 24-Apr-2013

 --------------------
 #p B2PLYPD3/Def2QZVP
 --------------------

 ----------
 butane_opt
 ----------
 Symbolic Z-matrix:
 Charge =  0 Multiplicity = 1

                         Standard orientation:
 ---------------------------------------------------------------------
 Center     Atomic      Atomic             Coordinates (Angstroms)
 Number     Number       Type             X           Y           Z
 ---------------------------------------------------------------------
      1          6           0        1.921092    0.026928   -0.117955
      2          6           0        0.639459   -0.476507    0.160938
      3          1           0        2.723348   -0.858062   -0.734508
      4          1           0        2.433869    1.220004    0.989763
      5          1           0        1.794946    0.338729   -0.851834
      6          6           0       -0.468952    0.670597    0.053240
      7          1           0        0.591022   -1.479940    1.483135
      8          1           0        0.346104   -0.999282   -0.541430
      9          6           0       -2.038779   -0.154846   -0.113752
     10          1           0       -0.114333    1.238517   -0.928908
     11          1           0       -0.486241    1.210795    0.848411
     12          1           0       -2.293756   -0.985844   -0.885776
     13          1           0       -2.851519    0.618749    0.017342
     14          1           0       -2.460361   -0.700701    0.708978
 ---------------------------------------------------------------------

 SCF Done:  E(RB2PLYPD3) =  -157.709471454     A.U. after   12 cycles
 E2(B2PLYPD3) =    -0.2576857919D+00 E(B2PLYPD3) =    -0.15796715724564D+03

 The electronic state is 1-A.
 Alpha  occ. eigenvalues --  -10.64687 -10.64292 -10.64099 -10.62802  -0.95045
 Alpha  occ. eigenvalues --   -0.82938  -0.75150  -0.69108  -0.55537  -0.50462
 Alpha  occ. eigenvalues --   -0.46952  -0.45449  -0.43000  -0.40421  -0.37675
 Alpha  occ. eigenvalues --   -0.35013  -0.33113
 Alpha virt. eigenvalues --    0.00052   0.04608   0.05802   0.06572   0.08847
 Alpha virt. eigenvalues --    0.10061   0.11198   0.13153   0.13686   0.14120
 Alpha virt. eigenvalues --    0.15299   0.16422   0.17367   0.18563   0.19328

 Mulliken charges:
               1
     1  C   -0.373709
     2  C   -0.089433
     3  H    0.032264
     4  H    0.011590
     5  H    0.291941
     6  C   -0.080898
     7  H   -0.040659
     8  H    0.139522
     9  C   -0.148346
    10  H    0.046722
    11  H    0.095352
    12  H    0.038535
    13  H    0.032338
    14  H    0.044782
 Sum of Mulliken charges =   0.00000

 Dipole moment (field-independent basis, Debye):
    X=             -0.6116    Y=              0.3673    Z=             -1.0116  Tot=              1.2378
 Quadrupole moment (field-independent basis, Debye-Ang):
   XX=            -31.4879   YY=            -29.9108   ZZ=            -29.4655
   XY=              0.6697   XZ=             -2.5620   YZ=              1.8788

 Normal termination of Gaussian 09 at Wed Aug 26 14:11:31 2020.
