 Gaussian 09, Revision D.01,
 Gaussian 09:  ES64L-G09RevD.01 24-Apr-2013

 --------------------
 #p B2PLYPD3/Def2QZVP
 --------------------

 ----------
 butane_opt
 ----------
 Symbolic Z-matrix:
 Charge =  0 Multiplicity = 1

                         Standard orientation:
 ---------------------------------------------------------------------
 Center     Atomic      Atomic             Coordinates (Angstroms)
 Number     Number       Type             X           Y           Z
 ---------------------------------------------------------------------
      1          6           0        1.986856   -0.229316    0.164087
      2          6           0        0.508124    0.587574   -0.175414
      3          1           0        2.729653    0.711331    0.845749
      4          1           0        2.712861   -0.794837   -0.825391
      5          1           0        1.693658   -0.815344    0.798060
      6          6           0       -0.530445   -0.442544   -0.262492
      7          1           0        0.303429    1.466742   -1.129798
      8          1           0        0.258023    0.982878    0.577533
      9          6           0       -1.909810    0.048337    0.143320
     10          1           0       -0.675164   -1.153431    0.509519
     11          1           0       -0.596025   -0.672735   -1.088195
     12          1           0       -1.821794    0.802117    1.308271
     13          1           0       -2.801714   -0.899826    0.322685
     14          1           0       -2.131280    0.588794   -0.535434
 ---------------------------------------------------------------------

 SCF Done:  E(RB2PLYPD3) =  -157.774389760     A.U. after   11 cycles
 E2(B2PLYPD3) =    -0.2530327188D+00 E(B2PLYPD3) =    -0.15802742247843D+03

 The electronic state is 1-A.
 Alpha  occ. eigenvalues --  -10.64951 -10.62800 -10.61737 -10.57039  -0.94518
 Alpha  occ. eigenvalues --   -0.82718  -0.73922  -0.69586  -0.59292  -0.48911
 Alpha  occ. eigenvalues --   -0.46533  -0.45513  -0.42848  -0.40610  -0.39273
 Alpha  occ. eigenvalues --   -0.36630  -0.33994
 Alpha virt. eigenvalues --    0.04632   0.05263   0.07300   0.08528   0.09598
 Alpha virt. eigenvalues --    0.10541   0.11331   0.12758   0.14606   0.14931
 Alpha virt. eigenvalues --    0.15859   0.16061   0.17763   0.18925   0.20362

 Mulliken charges:
               1
     1  C   -0.248055
     2  C   -0.132587
     3  H    0.017676
     4  H    0.053461
     5  H    0.151269
     6  C   -0.131192
     7  H    0.014733
     8  H    0.159293
     9  C   -0.212322
    10  H    0.048455
    11  H    0.120240
    12  H    0.005805
    13  H    0.037974
    14  H    0.115248
 Sum of Mulliken charges =   0.00000

 Dipole moment (field-independent basis, Debye):
    X=             -0.4261    Y=             -0.2945    Z=             -0.1278  Tot=              0.5335
 Quadrupole moment (field-independent basis, Debye-Ang):
   XX=            -31.5876   YY=            -29.4792   ZZ=            -28.3714
   XY=              0.0210   XZ=              0.5174   YZ=             -0.1704

 Normal termination of Gaussian 09 at Wed Aug 26 15:56:03 2020.
