 Gaussian 09, Revision D.01,
 Gaussian 09:  ES64L-G09RevD.01 24-Apr-2013

 --------------------
 #p B2PLYPD3/Def2QZVP
 --------------------

 ----------
 butane_opt
 ----------
 Symbolic Z-matrix:
 Charge =  0 Multiplicity = 1

                         Standard orientation:
 ---------------------------------------------------------------------
 Center     Atomic      Atomic             Coordinates (Angstroms)
 Number     Number       Type             X           Y           Z
 ---------------------------------------------------------------------
      1          6           0        1.907768    0.064011    0.056598
      2          6           0        0.590859   -0.482587   -0.074279
      3          1           0        2.748691   -0.657373   -0.032281
      4          1           0        2.244602    0.850136    1.005633
      5          1           0        2.144265    0.526769   -0.715290
      6          6           0       -0.530597    0.590291   -0.036858
      7          1           0        0.379473   -1.143473    0.785721
      8          1           0        0.519875   -1.149815   -0.974103
      9          6           0       -1.997148   -0.142974    0.056636
     10          1           0       -0.404928    1.169494   -0.878131
     11          1           0       -0.383454    1.178964    0.742824
     12          1           0       -1.979071   -0.583285   -0.665038
     13          1           0       -2.698812    0.513504   -0.277025
     14          1           0       -2.395937   -0.877365    0.995113
 ---------------------------------------------------------------------

 SCF Done:  E(RB2PLYPD3) =  -157.969310396     A.U. after   11 cycles
 E2(B2PLYPD3) =    -0.2467757472D+00 E(B2PLYPD3) =    -0.15821608614293D+03

 The electronic state is 1-A.
 Alpha  occ. eigenvalues --  -10.60348 -10.59537 -10.59185 -10.58148  -0.91980
 Alpha  occ. eigenvalues --   -0.85182  -0.75846  -0.68056  -0.54294  -0.49539
 Alpha  occ. eigenvalues --   -0.48653  -0.47579  -0.43061  -0.42575  -0.39325
 Alpha  occ. eigenvalues --   -0.37722  -0.36328
 Alpha virt. eigenvalues --    0.05864   0.06506   0.08340   0.08762   0.10588
 Alpha virt. eigenvalues --    0.12290   0.12742   0.13335   0.15188   0.15640
 Alpha virt. eigenvalues --    0.16275   0.16695   0.19197   0.19994   0.21852

 Mulliken charges:
               1
     1  C   -0.149151
     2  C   -0.017417
     3  H    0.028290
     4  H    0.015869
     5  H    0.059580
     6  C   -0.049810
     7  H    0.031856
     8  H    0.022373
     9  C   -0.282150
    10  H    0.037366
    11  H    0.055341
    12  H    0.162685
    13  H    0.036008
    14  H    0.049162
 Sum of Mulliken charges =   0.00000

 Dipole moment (field-independent basis, Debye):
    X=              0.0331    Y=              0.0265    Z=             -0.5944  Tot=              0.5960
 Quadrupole moment (field-independent basis, Debye-Ang):
   XX=            -28.9198   YY=            -28.7209   ZZ=            -27.9004
   XY=              0.3252   XZ=             -0.1872   YZ=             -0.1001

 Normal termination of Gaussian 09 at Wed Aug 26 12:11:58 2020.
