 Gaussian 09, Revision D.01,
 Gaussian 09:  ES64L-G09RevD.01 24-Apr-2013

 --------------------
 #p B2PLYPD3/Def2QZVP
 --------------------

 ----------
 butane_opt
 ----------
 Symbolic Z-matrix:
 Charge =  0 Multiplicity = 1

                         Standard orientation:
 ---------------------------------------------------------------------
 Center     Atomic      Atomic             Coordinates (Angstroms)
 Number     Number       Type             X           Y           Z
 ---------------------------------------------------------------------
      1          6           0        1.983031   -0.163640   -0.152389
      2          6           0        0.511272    0.500401    0.150724
      3          1           0        2.928249    0.559684   -0.574441
      4          1           0        1.909735   -0.567342   -0.879439
      5          1           0        2.538503   -0.792061    0.785537
      6          6           0       -0.603636   -0.461481    0.142595
      7          1           0        0.533682    0.767842   -0.388991
      8          1           0        0.345000    1.631245    1.294329
      9          6           0       -1.943206    0.092043   -0.143744
     10          1           0       -0.628675   -1.038899    1.034859
     11          1           0       -0.545828   -0.991664   -0.433241
     12          1           0       -2.057089    0.316236    0.503906
     13          1           0       -2.679158   -0.590208   -0.124013
     14          1           0       -2.029181    0.901227   -1.201620
 ---------------------------------------------------------------------

 SCF Done:  E(RB2PLYPD3) =  -157.087055499     A.U. after   12 cycles
 E2(B2PLYPD3) =    -0.2500661899D+00 E(B2PLYPD3) =    -0.15733712168896D+03

 The electronic state is 1-A.
 Alpha  occ. eigenvalues --  -10.62336 -10.61900 -10.56836 -10.56644  -0.97837
 Alpha  occ. eigenvalues --   -0.89967  -0.78895  -0.75256  -0.58356  -0.51546
 Alpha  occ. eigenvalues --   -0.50010  -0.48015  -0.44740  -0.40029  -0.39273
 Alpha  occ. eigenvalues --   -0.38349  -0.35136
 Alpha virt. eigenvalues --    0.03999   0.06129   0.06712   0.08479   0.10658
 Alpha virt. eigenvalues --    0.11036   0.12249   0.13062   0.13950   0.15581
 Alpha virt. eigenvalues --    0.16423   0.16779   0.18316   0.19269   0.21430

 Mulliken charges:
               1
     1  C   -0.271202
     2  C   -0.780141
     3  H    0.020874
     4  H    0.199527
     5  H    0.049754
     6  C   -0.170084
     7  H    0.719293
     8  H   -0.015782
     9  C   -0.566818
    10  H    0.031180
    11  H    0.268426
    12  H    0.428456
    13  H    0.043287
    14  H    0.043230
 Sum of Mulliken charges =   0.00000

 Dipole moment (field-independent basis, Debye):
    X=             -0.3025    Y=             -0.7919    Z=             -0.5935  Tot=              1.0348
 Quadrupole moment (field-independent basis, Debye-Ang):
   XX=            -28.4600   YY=            -29.4395   ZZ=            -27.4890
   XY=              0.2013   XZ=             -1.5038   YZ=             -0.7618

 Normal termination of Gaussian 09 at Wed Aug 26 11:18:27 2020.
