 Gaussian 09, Revision D.01,
 Gaussian 09:  ES64L-G09RevD.01 24-Apr-2013

 --------------------
 #p B2PLYPD3/Def2QZVP
 --------------------

 ----------
 butane_opt
 ----------
 Symbolic Z-matrix:
 Charge =  0 Multiplicity = 1

                         Standard orientation:
 ---------------------------------------------------------------------
 Center     Atomic      Atomic             Coordinates (Angstroms)
 Number     Number       Type             X           Y           Z
 ---------------------------------------------------------------------
      1          6           0       -1.972870   -0.137930   -0.128818
      2          6           0       -0.497205    0.558409   -0.049289
      3          1           0       -2.615995    0.564015    0.245146
      4          1           0       -2.054897   -0.510112    0.712791
      5          1           0       -2.103262   -1.489511   -1.044094
      6          6           0        0.572760   -0.382763    0.335816
      7          1           0       -0.309643    1.711401    0.864420
      8          1           0       -0.194940    0.965383   -0.953504
      9          6           0        1.897617    0.052585   -0.159676
     10          1           0        0.238975   -0.910877   -0.255236
     11          1           0        0.484874   -1.025063    1.579830
     12          1           0        1.433754    0.418904   -1.247963
     13          1           0        2.787379   -1.105238   -0.415759
     14          1           0        2.331941    0.839286    0.526175
 ---------------------------------------------------------------------

 SCF Done:  E(RB2PLYPD3) =  -157.729423088     A.U. after   11 cycles
 E2(B2PLYPD3) =    -0.2592747608D+00 E(B2PLYPD3) =    -0.15798869784894D+03

 The electronic state is 1-A.
 Alpha  occ. eigenvalues --  -10.65915 -10.65454 -10.63445 -10.60736  -0.95454
 Alpha  occ. eigenvalues --   -0.84670  -0.73903  -0.66961  -0.53816  -0.49453
 Alpha  occ. eigenvalues --   -0.47557  -0.43590  -0.42799  -0.40333  -0.37388
 Alpha  occ. eigenvalues --   -0.36166  -0.33490
 Alpha virt. eigenvalues --    0.00337   0.03705   0.05843   0.06613   0.09190
 Alpha virt. eigenvalues --    0.10445   0.10965   0.12932   0.13532   0.14725
 Alpha virt. eigenvalues --    0.15079   0.15444   0.17096   0.19131   0.19735

 Mulliken charges:
               1
     1  C   -0.231847
     2  C   -0.061226
     3  H    0.069456
     4  H    0.128990
     5  H    0.045928
     6  C   -0.183859
     7  H   -0.038049
     8  H    0.065770
     9  C   -0.169974
    10  H    0.219533
    11  H    0.006292
    12  H    0.044296
    13  H    0.022414
    14  H    0.082275
 Sum of Mulliken charges =   0.00000

 Dipole moment (field-independent basis, Debye):
    X=             -0.3889    Y=             -0.2898    Z=              0.0721  Tot=              0.4904
 Quadrupole moment (field-independent basis, Debye-Ang):
   XX=            -31.6945   YY=            -30.2950   ZZ=            -29.7725
   XY=              0.9301   XZ=             -0.8474   YZ=              0.6966

 Normal termination of Gaussian 09 at Wed Aug 26 15:20:09 2020.
