 Gaussian 09, Revision D.01,
 Gaussian 09:  ES64L-G09RevD.01 24-Apr-2013

 --------------------
 #p B2PLYPD3/Def2QZVP
 --------------------

 ----------
 butane_opt
 ----------
 Symbolic Z-matrix:
 Charge =  0 Multiplicity = 1

                         Standard orientation:
 ---------------------------------------------------------------------
 Center     Atomic      Atomic             Coordinates (Angstroms)
 Number     Number       Type             X           Y           Z
 ---------------------------------------------------------------------
      1          6           0       -1.985326   -0.157011   -0.089524
      2          6           0       -0.503964    0.547672    0.060501
      3          1           0       -2.612228    0.491359   -0.202965
      4          1           0       -2.319481   -0.353367    0.583469
      5          1           0       -1.985310   -1.284875   -1.060854
      6          6           0        0.634466   -0.451832    0.267630
      7          1           0       -0.422092    1.486725    1.020293
      8          1           0       -0.457443    0.998448   -0.625942
      9          6           0        1.846366    0.094920   -0.260733
     10          1           0        0.336436   -0.738473   -0.229567
     11          1           0        0.820617   -1.265701    1.464161
     12          1           0        1.627831    0.351228   -0.949056
     13          1           0        2.609976   -0.686739   -0.371806
     14          1           0        2.452444    0.798901    0.505028
 ---------------------------------------------------------------------

 SCF Done:  E(RB2PLYPD3) =  -157.253796743     A.U. after   12 cycles
 E2(B2PLYPD3) =    -0.2501083306D+00 E(B2PLYPD3) =    -0.15750390507386D+03

 The electronic state is 1-A.
 Alpha  occ. eigenvalues --  -10.61843 -10.59237 -10.59198 -10.57183  -0.98826
 Alpha  occ. eigenvalues --   -0.88675  -0.80503  -0.73629  -0.57196  -0.52655
 Alpha  occ. eigenvalues --   -0.50645  -0.46349  -0.44490  -0.42962  -0.38041
 Alpha  occ. eigenvalues --   -0.37559  -0.34297
 Alpha virt. eigenvalues --    0.04777   0.05014   0.07510   0.07864   0.10534
 Alpha virt. eigenvalues --    0.11434   0.12463   0.13472   0.14403   0.15006
 Alpha virt. eigenvalues --    0.16409   0.16536   0.18734   0.19462   0.21567

 Mulliken charges:
               1
     1  C   -0.349969
     2  C   -0.204824
     3  H    0.068855
     4  H    0.234811
     5  H    0.016550
     6  C   -0.741742
     7  H   -0.003907
     8  H    0.224425
     9  C   -0.328567
    10  H    0.691327
    11  H    0.026406
    12  H    0.282098
    13  H    0.039453
    14  H    0.045084
 Sum of Mulliken charges =   0.00000

 Dipole moment (field-independent basis, Debye):
    X=             -0.1983    Y=              0.1065    Z=             -0.4211  Tot=              0.4775
 Quadrupole moment (field-independent basis, Debye-Ang):
   XX=            -27.8081   YY=            -29.2986   ZZ=            -28.2518
   XY=             -0.8521   XZ=             -0.4799   YZ=             -0.0899

 Normal termination of Gaussian 09 at Wed Aug 26 12:34:48 2020.
