 Gaussian 09, Revision D.01,
 Gaussian 09:  ES64L-G09RevD.01 24-Apr-2013

 --------------------
 #p B2PLYPD3/Def2QZVP
 --------------------

 ----------
 butane_opt
 ----------
 Symbolic Z-matrix:
 Charge =  0 Multiplicity = 1

                         Standard orientation:
 ---------------------------------------------------------------------
 Center     Atomic      Atomic             Coordinates (Angstroms)
 Number     Number       Type             X           Y           Z
 ---------------------------------------------------------------------
      1          6           0        1.913051    0.134094   -0.140869
      2          6           0        0.623133   -0.502633    0.177082
      3          1           0        2.753926   -0.731932   -0.181121
      4          1           0        2.505630    0.772934    0.766856
      5          1           0        1.811976    0.645808   -1.048015
      6          6           0       -0.559872    0.587532    0.027686
      7          1           0        0.750124   -1.373816    1.222719
      8          1           0        0.682915   -1.152022   -0.596364
      9          6           0       -2.052149   -0.198143   -0.055168
     10          1           0       -0.194039    1.040768   -0.834717
     11          1           0       -0.650042    1.563416    0.936638
     12          1           0       -2.340060   -0.922451   -1.045245
     13          1           0       -2.741573    0.440149    0.194806
     14          1           0       -2.123833   -0.407956    0.532054
 ---------------------------------------------------------------------

 SCF Done:  E(RB2PLYPD3) =  -157.576014077     A.U. after   11 cycles
 E2(B2PLYPD3) =    -0.2519599198D+00 E(B2PLYPD3) =    -0.15782797399675D+03

 The electronic state is 1-A.
 Alpha  occ. eigenvalues --  -10.64974 -10.62847 -10.62147 -10.57916  -0.92372
 Alpha  occ. eigenvalues --   -0.88725  -0.74684  -0.65842  -0.52196  -0.50679
 Alpha  occ. eigenvalues --   -0.47885  -0.47218  -0.43962  -0.40439  -0.38515
 Alpha  occ. eigenvalues --   -0.35740  -0.35556
 Alpha virt. eigenvalues --    0.05211   0.06445   0.07082   0.07773   0.10158
 Alpha virt. eigenvalues --    0.11048   0.12527   0.13071   0.15056   0.15476
 Alpha virt. eigenvalues --    0.15928   0.16081   0.18025   0.18537   0.21712

 Mulliken charges:
               1
     1  C   -0.146144
     2  C   -0.059062
     3  H    0.024569
     4  H    0.023217
     5  H    0.068773
     6  C   -0.063097
     7  H   -0.002108
     8  H    0.085057
     9  C   -0.656701
    10  H    0.070619
    11  H    0.015367
    12  H    0.072655
    13  H    0.036548
    14  H    0.530306
 Sum of Mulliken charges =   0.00000

 Dipole moment (field-independent basis, Debye):
    X=             -0.2849    Y=             -0.0969    Z=             -0.3447  Tot=              0.4576
 Quadrupole moment (field-independent basis, Debye-Ang):
   XX=            -29.1338   YY=            -29.2972   ZZ=            -28.3665
   XY=             -0.4285   XZ=             -0.9462   YZ=              0.4977

 Normal termination of Gaussian 09 at Wed Aug 26 12:10:00 2020.
