 Gaussian 09, Revision D.01,
 Gaussian 09:  ES64L-G09RevD.01 24-Apr-2013

 --------------------
 #p B2PLYPD3/Def2QZVP
 --------------------

 ----------
 butane_opt
 ----------
 Symbolic Z-matrix:
 Charge =  0 Multiplicity = 1

                         Standard orientation:
 ---------------------------------------------------------------------
 Center     Atomic      Atomic             Coordinates (Angstroms)
 Number     Number       Type             X           Y           Z
 ---------------------------------------------------------------------
      1          6           0        1.961043    0.069662    0.089002
      2          6           0        0.617648   -0.489701   -0.139280
      3          1           0        2.843366   -0.694726   -0.307243
      4          1           0        2.051535    0.757848    1.237436
      5          1           0        2.147162    0.521222   -0.588703
      6          6           0       -0.539908    0.608816    0.036447
      7          1           0        0.786409   -1.028224    0.602280
      8          1           0        0.313855   -1.229086   -1.193173
      9          6           0       -2.053852   -0.158359    0.048023
     10          1           0       -0.245450    1.556345   -0.778493
     11          1           0       -0.234048    0.881665    0.735464
     12          1           0       -2.170510   -0.332307   -0.647739
     13          1           0       -2.844052    0.681138   -0.467648
     14          1           0       -2.557861   -1.296378    1.202667
 ---------------------------------------------------------------------

 SCF Done:  E(RB2PLYPD3) =  -157.462643678     A.U. after   12 cycles
 E2(B2PLYPD3) =    -0.2572155296D+00 E(B2PLYPD3) =    -0.15771985920718D+03

 The electronic state is 1-A.
 Alpha  occ. eigenvalues --  -10.64139 -10.62051 -10.60961 -10.60731  -0.93271
 Alpha  occ. eigenvalues --   -0.86940  -0.79345  -0.70247  -0.54107  -0.48854
 Alpha  occ. eigenvalues --   -0.45598  -0.45243  -0.42433  -0.38464  -0.38265
 Alpha  occ. eigenvalues --   -0.36527  -0.34118
 Alpha virt. eigenvalues --    0.00198   0.04823   0.05866   0.07554   0.09781
 Alpha virt. eigenvalues --    0.10118   0.11901   0.12506   0.14013   0.14882
 Alpha virt. eigenvalues --    0.15889   0.16806   0.17927   0.18492   0.20356

 Mulliken charges:
               1
     1  C   -0.293446
     2  C   -0.074841
     3  H    0.032623
     4  H    0.048662
     5  H    0.176646
     6  C   -0.285164
     7  H    0.114341
     8  H    0.000795
     9  C   -0.568386
    10  H    0.027793
    11  H    0.270936
    12  H    0.466566
    13  H    0.018007
    14  H    0.065468
 Sum of Mulliken charges =   0.00000

 Dipole moment (field-independent basis, Debye):
    X=              0.3839    Y=              0.0736    Z=             -0.3417  Tot=              0.5192
 Quadrupole moment (field-independent basis, Debye-Ang):
   XX=            -30.5309   YY=            -29.6685   ZZ=            -27.9783
   XY=              1.4622   XZ=              0.7910   YZ=             -0.7313

 Normal termination of Gaussian 09 at Wed Aug 26 10:56:08 2020.
