 Gaussian 09, Revision D.01,
 Gaussian 09:  ES64L-G09RevD.01 24-Apr-2013

 --------------------
 #p B2PLYPD3/Def2QZVP
 --------------------

 ----------
 butane_opt
 ----------
 Symbolic Z-matrix:
 Charge =  0 Multiplicity = 1

                         Standard orientation:
 ---------------------------------------------------------------------
 Center     Atomic      Atomic             Coordinates (Angstroms)
 Number     Number       Type             X           Y           Z
 ---------------------------------------------------------------------
      1          6           0        1.927113    0.105722    0.019418
      2          6           0        0.629497   -0.518680   -0.023656
      3          1           0        2.668807   -0.666565   -0.211476
      4          1           0        2.164184    0.921893    1.077816
      5          1           0        2.033868    0.435283   -0.631852
      6          6           0       -0.535180    0.596435   -0.045749
      7          1           0        0.577925   -1.175875    0.780254
      8          1           0        0.466498   -1.111325   -0.880354
      9          6           0       -2.012192   -0.158756    0.037450
     10          1           0       -0.489595    1.335032   -1.059889
     11          1           0       -0.340263    1.090251    0.716481
     12          1           0       -2.251485   -0.650806   -0.779793
     13          1           0       -2.736015    0.528785    0.165567
     14          1           0       -2.149351   -0.854997    0.898464
 ---------------------------------------------------------------------

 SCF Done:  E(RB2PLYPD3) =  -157.856170924     A.U. after   11 cycles
 E2(B2PLYPD3) =    -0.2466410219D+00 E(B2PLYPD3) =    -0.15810281194596D+03

 The electronic state is 1-A.
 Alpha  occ. eigenvalues --  -10.61474 -10.59087 -10.58490 -10.57730  -0.92690
 Alpha  occ. eigenvalues --   -0.84470  -0.75909  -0.69369  -0.54811  -0.49166
 Alpha  occ. eigenvalues --   -0.48399  -0.47750  -0.43517  -0.42646  -0.39476
 Alpha  occ. eigenvalues --   -0.38535  -0.35223
 Alpha virt. eigenvalues --    0.05630   0.06719   0.08173   0.08495   0.10836
 Alpha virt. eigenvalues --    0.11950   0.12877   0.13976   0.15079   0.15200
 Alpha virt. eigenvalues --    0.15828   0.16655   0.19019   0.20117   0.21827

 Mulliken charges:
               1
     1  C   -0.461838
     2  C    0.013200
     3  H    0.042097
     4  H    0.033232
     5  H    0.322497
     6  C   -0.126015
     7  H    0.047621
     8  H    0.027463
     9  C   -0.132760
    10  H    0.010284
    11  H    0.094194
    12  H    0.054078
    13  H    0.044396
    14  H    0.031552
 Sum of Mulliken charges =   0.00000

 Dipole moment (field-independent basis, Debye):
    X=             -0.0927    Y=             -0.1389    Z=             -0.2604  Tot=              0.3094
 Quadrupole moment (field-independent basis, Debye-Ang):
   XX=            -29.2601   YY=            -28.5235   ZZ=            -27.6556
   XY=             -0.1170   XZ=             -0.6775   YZ=              0.3621

 Normal termination of Gaussian 09 at Wed Aug 26 22:47:25 2020.
