 Gaussian 09, Revision D.01,
 Gaussian 09:  ES64L-G09RevD.01 24-Apr-2013

 --------------------
 #p B2PLYPD3/Def2QZVP
 --------------------

 ----------
 butane_opt
 ----------
 Symbolic Z-matrix:
 Charge =  0 Multiplicity = 1

                         Standard orientation:
 ---------------------------------------------------------------------
 Center     Atomic      Atomic             Coordinates (Angstroms)
 Number     Number       Type             X           Y           Z
 ---------------------------------------------------------------------
      1          6           0        2.030607   -0.150162   -0.180273
      2          6           0        0.467676    0.601880    0.211782
      3          1           0        2.732299    0.509341   -0.601567
      4          1           0        1.830015   -0.746368   -1.031308
      5          1           0        2.381700   -0.852365    0.975155
      6          6           0       -0.576257   -0.543699    0.143670
      7          1           0        0.366769    0.889557   -0.462041
      8          1           0        0.544154    1.622736    1.414492
      9          6           0       -1.917656    0.063979   -0.149101
     10          1           0       -0.543583   -1.147390    0.948398
     11          1           0       -0.443869   -0.925045   -0.614330
     12          1           0       -2.359010    0.353346    0.466196
     13          1           0       -2.624197   -0.669736    0.079579
     14          1           0       -1.910500    1.133940   -1.331043
 ---------------------------------------------------------------------

 SCF Done:  E(RB2PLYPD3) =  -157.546713548     A.U. after   12 cycles
 E2(B2PLYPD3) =    -0.2544512950D+00 E(B2PLYPD3) =    -0.15780116484341D+03

 The electronic state is 1-A.
 Alpha  occ. eigenvalues --  -10.63293 -10.62362 -10.60480 -10.58213  -0.94860
 Alpha  occ. eigenvalues --   -0.85769  -0.77067  -0.72360  -0.56818  -0.49711
 Alpha  occ. eigenvalues --   -0.48085  -0.45614  -0.42994  -0.39226  -0.38139
 Alpha  occ. eigenvalues --   -0.36005  -0.33837
 Alpha virt. eigenvalues --    0.02898   0.04349   0.06013   0.07244   0.10235
 Alpha virt. eigenvalues --    0.10643   0.11913   0.12329   0.13881   0.15461
 Alpha virt. eigenvalues --    0.15877   0.16606   0.18050   0.18443   0.20663

 Mulliken charges:
               1
     1  C   -0.194671
     2  C   -0.520805
     3  H    0.064280
     4  H    0.061796
     5  H    0.037515
     6  C   -0.123970
     7  H    0.471557
     8  H    0.015015
     9  C   -0.290938
    10  H    0.042277
    11  H    0.192178
    12  H    0.191237
    13  H    0.030233
    14  H    0.024294
 Sum of Mulliken charges =   0.00000

 Dipole moment (field-independent basis, Debye):
    X=             -0.4913    Y=             -0.3885    Z=             -0.0720  Tot=              0.6305
 Quadrupole moment (field-independent basis, Debye-Ang):
   XX=            -30.1381   YY=            -29.6033   ZZ=            -27.9971
   XY=              0.9091   XZ=             -2.8461   YZ=             -1.1707

 Normal termination of Gaussian 09 at Wed Aug 26 21:01:39 2020.
