 Gaussian 09, Revision D.01,
 Gaussian 09:  ES64L-G09RevD.01 24-Apr-2013

 --------------------
 #p B2PLYPD3/Def2QZVP
 --------------------

 ----------
 butane_opt
 ----------
 Symbolic Z-matrix:
 Charge =  0 Multiplicity = 1

                         Standard orientation:
 ---------------------------------------------------------------------
 Center     Atomic      Atomic             Coordinates (Angstroms)
 Number     Number       Type             X           Y           Z
 ---------------------------------------------------------------------
      1          6           0       -1.865766    0.083865   -0.184234
      2          6           0       -0.563291   -0.439969    0.173203
      3          1           0       -2.869243   -0.845059   -0.292240
      4          1           0       -1.881347    0.900916   -1.086244
      5          1           0       -2.131197    0.790453    0.752859
      6          6           0        0.499212    0.464946    0.307695
      7          1           0       -0.364114   -1.054350   -0.790218
      8          1           0       -0.664952   -1.212998    1.186353
      9          6           0        1.950037   -0.127520   -0.193192
     10          1           0        0.500584    1.026698    1.136723
     11          1           0        0.135376    1.249257   -0.669794
     12          1           0        2.644750   -0.874258    0.523954
     13          1           0        2.720030    0.762170   -0.328755
     14          1           0        1.788959   -0.630760   -1.053475
 ---------------------------------------------------------------------

 SCF Done:  E(RB2PLYPD3) =  -157.978880934     A.U. after   11 cycles
 E2(B2PLYPD3) =    -0.2533689900D+00 E(B2PLYPD3) =    -0.15823224992358D+03

 The electronic state is 1-A.
 Alpha  occ. eigenvalues --  -10.64911 -10.62897 -10.62752 -10.62552  -0.93449
 Alpha  occ. eigenvalues --   -0.81568  -0.72768  -0.64358  -0.54471  -0.49677
 Alpha  occ. eigenvalues --   -0.47947  -0.45666  -0.43775  -0.39908  -0.38340
 Alpha  occ. eigenvalues --   -0.35126  -0.34883
 Alpha virt. eigenvalues --    0.04911   0.06104   0.06595   0.08029   0.09773
 Alpha virt. eigenvalues --    0.10470   0.12184   0.12804   0.14138   0.14455
 Alpha virt. eigenvalues --    0.15493   0.15934   0.18800   0.19638   0.20958

 Mulliken charges:
               1
     1  C   -0.160715
     2  C    0.006567
     3  H    0.041418
     4  H    0.046312
     5  H    0.025320
     6  C   -0.068239
     7  H    0.030426
     8  H    0.014104
     9  C   -0.156866
    10  H    0.078387
    11  H   -0.006054
    12  H    0.025398
    13  H    0.040955
    14  H    0.082986
 Sum of Mulliken charges =   0.00000

 Dipole moment (field-independent basis, Debye):
    X=              0.2084    Y=              0.1126    Z=             -0.0017  Tot=              0.2369
 Quadrupole moment (field-independent basis, Debye-Ang):
   XX=            -30.8172   YY=            -30.2105   ZZ=            -29.0070
   XY=              0.1955   XZ=              0.2322   YZ=              0.3896

 Normal termination of Gaussian 09 at Wed Aug 26 11:55:36 2020.
