 Gaussian 09, Revision D.01,
 Gaussian 09:  ES64L-G09RevD.01 24-Apr-2013

 --------------------
 #p B2PLYPD3/Def2QZVP
 --------------------

 ----------
 butane_opt
 ----------
 Symbolic Z-matrix:
 Charge =  0 Multiplicity = 1

                         Standard orientation:
 ---------------------------------------------------------------------
 Center     Atomic      Atomic             Coordinates (Angstroms)
 Number     Number       Type             X           Y           Z
 ---------------------------------------------------------------------
      1          6           0        1.959492   -0.208071   -0.060018
      2          6           0        0.558205    0.613034    0.099894
      3          1           0        2.752051    0.583725   -0.126575
      4          1           0        2.254739   -1.181250   -1.194003
      5          1           0        2.149553   -0.294237    0.559835
      6          6           0       -0.572130   -0.506172    0.230890
      7          1           0        0.155879    1.233486   -0.709226
      8          1           0        0.599797    1.236727    0.782269
      9          6           0       -1.912411    0.103762   -0.164802
     10          1           0       -0.839712   -1.234486    1.349189
     11          1           0       -0.590097   -1.005213   -0.430348
     12          1           0       -2.289357    0.781075    0.605125
     13          1           0       -2.651474   -0.575850   -0.497836
     14          1           0       -1.740314    0.440707   -0.974213
 ---------------------------------------------------------------------

 SCF Done:  E(RB2PLYPD3) =  -157.531339837     A.U. after   11 cycles
 E2(B2PLYPD3) =    -0.2500425594D+00 E(B2PLYPD3) =    -0.15778138239672D+03

 The electronic state is 1-A.
 Alpha  occ. eigenvalues --  -10.61044 -10.61000 -10.59829 -10.56638  -0.93338
 Alpha  occ. eigenvalues --   -0.88478  -0.77670  -0.71124  -0.54547  -0.50870
 Alpha  occ. eigenvalues --   -0.49576  -0.47877  -0.43167  -0.40796  -0.38855
 Alpha  occ. eigenvalues --   -0.36647  -0.35831
 Alpha virt. eigenvalues --    0.04438   0.06259   0.07475   0.07909   0.10633
 Alpha virt. eigenvalues --    0.11443   0.12579   0.13790   0.14401   0.15204
 Alpha virt. eigenvalues --    0.16923   0.17163   0.18397   0.19457   0.21173

 Mulliken charges:
               1
     1  C   -0.692644
     2  C   -0.008903
     3  H    0.050057
     4  H    0.053266
     5  H    0.519195
     6  C   -0.249762
     7  H    0.030791
     8  H    0.073190
     9  C   -0.193528
    10  H    0.006457
    11  H    0.241845
    12  H    0.051054
    13  H    0.025295
    14  H    0.093687
 Sum of Mulliken charges =   0.00000

 Dipole moment (field-independent basis, Debye):
    X=              0.0507    Y=              0.4627    Z=             -0.2000  Tot=              0.5066
 Quadrupole moment (field-independent basis, Debye-Ang):
   XX=            -29.1162   YY=            -28.6617   ZZ=            -27.7127
   XY=              0.6144   XZ=              1.1843   YZ=              1.4008

 Normal termination of Gaussian 09 at Wed Aug 26 15:00:56 2020.
