 Gaussian 09, Revision D.01,
 Gaussian 09:  ES64L-G09RevD.01 24-Apr-2013

 --------------------
 #p B2PLYPD3/Def2QZVP
 --------------------

 ----------
 butane_opt
 ----------
 Symbolic Z-matrix:
 Charge =  0 Multiplicity = 1

                         Standard orientation:
 ---------------------------------------------------------------------
 Center     Atomic      Atomic             Coordinates (Angstroms)
 Number     Number       Type             X           Y           Z
 ---------------------------------------------------------------------
      1          6           0       -1.817926   -0.100337   -0.047035
      2          6           0       -0.562485    0.480262    0.041917
      3          1           0       -2.786724    0.746942   -0.142449
      4          1           0       -2.038905   -0.546156    0.661936
      5          1           0       -1.796114   -0.832641   -0.973813
      6          6           0        0.472178   -0.567042    0.252799
      7          1           0       -0.610405    1.061903    0.781541
      8          1           0       -0.601190    1.313391   -1.059944
      9          6           0        1.927863    0.123468   -0.145002
     10          1           0        0.071378   -1.252851   -0.597120
     11          1           0        0.453972   -1.122373    1.271574
     12          1           0        1.803997    0.441502   -0.791852
     13          1           0        2.749671   -0.805836   -0.798512
     14          1           0        2.636544    1.378018    1.032568
 ---------------------------------------------------------------------

 SCF Done:  E(RB2PLYPD3) =  -157.616448514     A.U. after   13 cycles
 E2(B2PLYPD3) =    -0.2574161265D+00 E(B2PLYPD3) =    -0.15787386464010D+03

 The electronic state is 1-A.
 Alpha  occ. eigenvalues --  -10.65882 -10.64804 -10.60943 -10.59765  -0.95541
 Alpha  occ. eigenvalues --   -0.86090  -0.75610  -0.68471  -0.57705  -0.51068
 Alpha  occ. eigenvalues --   -0.48028  -0.44211  -0.43142  -0.40494  -0.37029
 Alpha  occ. eigenvalues --   -0.35774  -0.34453
 Alpha virt. eigenvalues --   -0.01489   0.04455   0.06117   0.06817   0.09254
 Alpha virt. eigenvalues --    0.09830   0.11751   0.12504   0.13544   0.15381
 Alpha virt. eigenvalues --    0.15972   0.16354   0.18057   0.18529   0.19606

 Mulliken charges:
               1
     1  C   -0.191072
     2  C   -0.027477
     3  H    0.018283
     4  H    0.114207
     5  H    0.027897
     6  C   -0.036439
     7  H    0.070428
     8  H   -0.003820
     9  C   -0.538661
    10  H    0.048941
    11  H    0.055754
    12  H    0.437201
    13  H    0.021979
    14  H    0.002780
 Sum of Mulliken charges =   0.00000

 Dipole moment (field-independent basis, Debye):
    X=             -0.8990    Y=             -0.3293    Z=              0.0646  Tot=              0.9595
 Quadrupole moment (field-independent basis, Debye-Ang):
   XX=            -33.5978   YY=            -29.8681   ZZ=            -28.2472
   XY=             -0.1861   XZ=             -1.6453   YZ=              0.2834

 Normal termination of Gaussian 09 at Wed Aug 26 10:44:02 2020.
