 Gaussian 09, Revision D.01,
 Gaussian 09:  ES64L-G09RevD.01 24-Apr-2013

 --------------------
 #p B2PLYPD3/Def2QZVP
 --------------------

 ----------
 butane_opt
 ----------
 Symbolic Z-matrix:
 Charge =  0 Multiplicity = 1

                         Standard orientation:
 ---------------------------------------------------------------------
 Center     Atomic      Atomic             Coordinates (Angstroms)
 Number     Number       Type             X           Y           Z
 ---------------------------------------------------------------------
      1          6           0        1.904280   -0.040529   -0.205874
      2          6           0        0.588807    0.494849    0.311368
      3          1           0        2.604977    0.686220   -0.464815
      4          1           0        1.823298   -0.589880   -1.104567
      5          1           0        2.496976   -0.979139    0.621892
      6          6           0       -0.524624   -0.592794    0.078537
      7          1           0        0.327945    1.237607   -0.455819
      8          1           0        0.719931    1.070479    1.355210
      9          6           0       -1.984921    0.092635   -0.094946
     10          1           0       -0.375967   -1.052058    0.799221
     11          1           0       -0.120853   -0.999035   -0.813366
     12          1           0       -2.138529    0.308994    0.639377
     13          1           0       -2.728613   -0.635709    0.030818
     14          1           0       -2.510411    1.227558   -1.142464
 ---------------------------------------------------------------------

 SCF Done:  E(RB2PLYPD3) =  -157.791679653     A.U. after   11 cycles
 E2(B2PLYPD3) =    -0.2515319378D+00 E(B2PLYPD3) =    -0.15804321159129D+03

 The electronic state is 1-A.
 Alpha  occ. eigenvalues --  -10.61924 -10.61726 -10.61157 -10.59681  -0.92590
 Alpha  occ. eigenvalues --   -0.85453  -0.76958  -0.67173  -0.56210  -0.49962
 Alpha  occ. eigenvalues --   -0.48476  -0.44892  -0.43314  -0.40069  -0.38941
 Alpha  occ. eigenvalues --   -0.36773  -0.35531
 Alpha virt. eigenvalues --    0.02671   0.05599   0.07856   0.08223   0.09569
 Alpha virt. eigenvalues --    0.10982   0.12351   0.13237   0.14431   0.15290
 Alpha virt. eigenvalues --    0.15781   0.16461   0.19116   0.19669   0.20117

 Mulliken charges:
               1
     1  C   -0.137750
     2  C   -0.063672
     3  H    0.058570
     4  H    0.045159
     5  H   -0.009314
     6  C   -0.154912
     7  H    0.048100
     8  H    0.031562
     9  C   -0.394186
    10  H    0.162597
    11  H    0.059872
    12  H    0.280580
    13  H    0.042550
    14  H    0.030845
 Sum of Mulliken charges =   0.00000

 Dipole moment (field-independent basis, Debye):
    X=             -0.1842    Y=             -0.0110    Z=              0.2334  Tot=              0.2975
 Quadrupole moment (field-independent basis, Debye-Ang):
   XX=            -30.0816   YY=            -29.4550   ZZ=            -28.1578
   XY=              0.6735   XZ=             -1.9541   YZ=             -0.6290

 Normal termination of Gaussian 09 at Wed Aug 26 18:35:28 2020.
