 Gaussian 09, Revision D.01,
 Gaussian 09:  ES64L-G09RevD.01 24-Apr-2013

 --------------------
 #p B2PLYPD3/Def2QZVP
 --------------------

 ----------
 butane_opt
 ----------
 Symbolic Z-matrix:
 Charge =  0 Multiplicity = 1

                         Standard orientation:
 ---------------------------------------------------------------------
 Center     Atomic      Atomic             Coordinates (Angstroms)
 Number     Number       Type             X           Y           Z
 ---------------------------------------------------------------------
      1          6           0       -1.981941   -0.092377    0.001817
      2          6           0       -0.608870    0.554716   -0.023750
      3          1           0       -2.813417    0.769175   -0.031850
      4          1           0       -2.098007   -0.896680    1.010630
      5          1           0       -2.031528   -0.585806   -0.741794
      6          6           0        0.515234   -0.630682    0.096516
      7          1           0       -0.530415    0.853046    0.494128
      8          1           0       -0.504928    1.355443   -0.984826
      9          6           0        2.013303    0.103551   -0.002717
     10          1           0        0.444813   -1.138135   -0.815247
     11          1           0        0.728194   -1.300162    0.914121
     12          1           0        1.908741    0.237662   -0.571876
     13          1           0        2.649706   -0.397515   -0.959224
     14          1           0        2.620485    1.491727    1.254748
 ---------------------------------------------------------------------

 SCF Done:  E(RB2PLYPD3) =  -156.834623622     A.U. after   13 cycles
 E2(B2PLYPD3) =    -0.2593879963D+00 E(B2PLYPD3) =    -0.15709401161783D+03

 The electronic state is 1-A.
 Alpha  occ. eigenvalues --  -10.63794 -10.63345 -10.61278 -10.60451  -0.95574
 Alpha  occ. eigenvalues --   -0.91169  -0.77613  -0.74188  -0.55005  -0.48886
 Alpha  occ. eigenvalues --   -0.48707  -0.45898  -0.44131  -0.39281  -0.38405
 Alpha  occ. eigenvalues --   -0.35391  -0.32705
 Alpha virt. eigenvalues --   -0.03686   0.04823   0.05816   0.07249   0.09883
 Alpha virt. eigenvalues --    0.10436   0.11571   0.12128   0.14004   0.15433
 Alpha virt. eigenvalues --    0.16128   0.16550   0.18315   0.18438   0.19971

 Mulliken charges:
               1
     1  C   -0.161863
     2  C   -0.727130
     3  H    0.039252
     4  H    0.035733
     5  H    0.117243
     6  C   -0.014357
     7  H    0.636190
     8  H    0.057344
     9  C   -0.980692
    10  H    0.049513
    11  H    0.079663
    12  H    0.821574
    13  H    0.028736
    14  H    0.018795
 Sum of Mulliken charges =   0.00000

 Dipole moment (field-independent basis, Debye):
    X=             -0.9437    Y=              0.1128    Z=             -0.9884  Tot=              1.3712
 Quadrupole moment (field-independent basis, Debye-Ang):
   XX=            -33.7990   YY=            -28.7157   ZZ=            -27.1443
   XY=              0.1529   XZ=             -1.1866   YZ=              0.4334

 Normal termination of Gaussian 09 at Wed Aug 26 23:34:28 2020.
