 Gaussian 09, Revision D.01,
 Gaussian 09:  ES64L-G09RevD.01 24-Apr-2013

 --------------------
 #p B2PLYPD3/Def2QZVP
 --------------------

 ----------
 butane_opt
 ----------
 Symbolic Z-matrix:
 Charge =  0 Multiplicity = 1

                         Standard orientation:
 ---------------------------------------------------------------------
 Center     Atomic      Atomic             Coordinates (Angstroms)
 Number     Number       Type             X           Y           Z
 ---------------------------------------------------------------------
      1          6           0        1.922289   -0.206988   -0.099106
      2          6           0        0.532003    0.505722   -0.019559
      3          1           0        2.736326    0.866812    0.399978
      4          1           0        2.291293   -0.987375   -0.937621
      5          1           0        1.862989   -0.690736    0.679829
      6          6           0       -0.572318   -0.418648    0.161487
      7          1           0        0.344466    1.044329   -0.878142
      8          1           0        0.587743    1.440161    0.948117
      9          6           0       -1.881567    0.094162   -0.118709
     10          1           0       -0.783721   -1.178294    1.340787
     11          1           0       -0.416092   -1.019675   -0.576714
     12          1           0       -2.270279    0.739975    0.704772
     13          1           0       -2.638870   -0.647869   -0.281499
     14          1           0       -1.716301    0.587184   -0.944194
 ---------------------------------------------------------------------

 SCF Done:  E(RB2PLYPD3) =  -157.924054837     A.U. after   11 cycles
 E2(B2PLYPD3) =    -0.2512228811D+00 E(B2PLYPD3) =    -0.15817527771769D+03

 The electronic state is 1-A.
 Alpha  occ. eigenvalues --  -10.63232 -10.62723 -10.61271 -10.58195  -0.94899
 Alpha  occ. eigenvalues --   -0.84873  -0.73805  -0.66449  -0.55072  -0.51814
 Alpha  occ. eigenvalues --   -0.49682  -0.47472  -0.42493  -0.41413  -0.37949
 Alpha  occ. eigenvalues --   -0.36590  -0.34424
 Alpha virt. eigenvalues --    0.04232   0.05726   0.07064   0.07412   0.10310
 Alpha virt. eigenvalues --    0.11063   0.12571   0.13462   0.14118   0.14766
 Alpha virt. eigenvalues --    0.15556   0.15811   0.18654   0.19702   0.20909

 Mulliken charges:
               1
     1  C   -0.242434
     2  C   -0.021769
     3  H    0.014377
     4  H    0.054328
     5  H    0.143946
     6  C   -0.086020
     7  H    0.057188
     8  H   -0.003487
     9  C   -0.126627
    10  H   -0.021111
    11  H    0.097120
    12  H    0.040500
    13  H    0.042843
    14  H    0.051145
 Sum of Mulliken charges =   0.00000

 Dipole moment (field-independent basis, Debye):
    X=             -0.4575    Y=             -0.3033    Z=             -0.5667  Tot=              0.7889
 Quadrupole moment (field-independent basis, Debye-Ang):
   XX=            -31.2133   YY=            -29.4119   ZZ=            -28.7489
   XY=             -0.4010   XZ=              0.0756   YZ=              0.8752

 Normal termination of Gaussian 09 at Wed Aug 26 22:44:15 2020.
