 Gaussian 09, Revision D.01,
 Gaussian 09:  ES64L-G09RevD.01 24-Apr-2013

 --------------------
 #p B2PLYPD3/Def2QZVP
 --------------------

 ----------
 butane_opt
 ----------
 Symbolic Z-matrix:
 Charge =  0 Multiplicity = 1

                         Standard orientation:
 ---------------------------------------------------------------------
 Center     Atomic      Atomic             Coordinates (Angstroms)
 Number     Number       Type             X           Y           Z
 ---------------------------------------------------------------------
      1          6           0       -1.984595   -0.167113   -0.067893
      2          6           0       -0.462252    0.604827    0.049804
      3          1           0       -2.546067    0.455006   -0.429814
      4          1           0       -2.212367   -0.726990    0.919247
      5          1           0       -1.836431   -0.803355   -0.769827
      6          6           0        0.562658   -0.447933    0.229763
      7          1           0       -0.641668    1.307540    0.751197
      8          1           0        0.029834    1.076932   -0.914147
      9          6           0        1.798196    0.046618   -0.155758
     10          1           0        0.549678   -1.334326   -0.536539
     11          1           0        0.718573   -0.926014    1.027817
     12          1           0        1.406905    0.477665   -0.915247
     13          1           0        2.698692   -0.840207   -0.387710
     14          1           0        2.348809    1.095356    0.919526
 ---------------------------------------------------------------------

 SCF Done:  E(RB2PLYPD3) =  -157.874015900     A.U. after   11 cycles
 E2(B2PLYPD3) =    -0.2521271444D+00 E(B2PLYPD3) =    -0.15812614304439D+03

 The electronic state is 1-A.
 Alpha  occ. eigenvalues --  -10.63335 -10.61884 -10.59042 -10.58453  -0.96149
 Alpha  occ. eigenvalues --   -0.84751  -0.73697  -0.69228  -0.57022  -0.51229
 Alpha  occ. eigenvalues --   -0.49506  -0.47251  -0.43474  -0.41570  -0.40746
 Alpha  occ. eigenvalues --   -0.35942  -0.32603
 Alpha virt. eigenvalues --    0.04320   0.06100   0.06798   0.08310   0.10205
 Alpha virt. eigenvalues --    0.10564   0.12581   0.13060   0.13855   0.16002
 Alpha virt. eigenvalues --    0.16187   0.16818   0.18571   0.19353   0.21484

 Mulliken charges:
               1
     1  C   -0.193233
     2  C   -0.090801
     3  H    0.075343
     4  H    0.060012
     5  H    0.064800
     6  C   -0.000333
     7  H    0.065212
     8  H    0.031679
     9  C   -0.167040
    10  H    0.010839
    11  H    0.051945
    12  H    0.095563
    13  H    0.043247
    14  H   -0.047233
 Sum of Mulliken charges =   0.00000

 Dipole moment (field-independent basis, Debye):
    X=             -0.8081    Y=             -0.6667    Z=             -0.2983  Tot=              1.0892
 Quadrupole moment (field-independent basis, Debye-Ang):
   XX=            -31.8566   YY=            -29.0436   ZZ=            -28.4456
   XY=             -2.2524   XZ=             -0.6769   YZ=             -0.0834

 Normal termination of Gaussian 09 at Wed Aug 26 22:40:26 2020.
