 Gaussian 09, Revision D.01,
 Gaussian 09:  ES64L-G09RevD.01 24-Apr-2013

 --------------------
 #p B2PLYPD3/Def2QZVP
 --------------------

 ----------
 butane_opt
 ----------
 Symbolic Z-matrix:
 Charge =  0 Multiplicity = 1

                         Standard orientation:
 ---------------------------------------------------------------------
 Center     Atomic      Atomic             Coordinates (Angstroms)
 Number     Number       Type             X           Y           Z
 ---------------------------------------------------------------------
      1          6           0       -1.908704   -0.138154    0.149008
      2          6           0       -0.622916    0.551594   -0.165213
      3          1           0       -2.698561    0.736120   -0.071320
      4          1           0       -2.061596   -1.016451    1.115953
      5          1           0       -2.249975   -0.502877   -0.447267
      6          6           0        0.557388   -0.632693   -0.125538
      7          1           0       -0.612178    1.037248    0.562077
      8          1           0       -0.752421    1.342959   -1.195957
      9          6           0        2.030887    0.122663    0.096441
     10          1           0        0.207714   -1.016231   -0.815523
     11          1           0        0.603786   -1.129579    0.791248
     12          1           0        2.146803    0.116315   -0.432416
     13          1           0        2.763069   -0.427625   -0.600719
     14          1           0        2.313429    1.439660    1.365733
 ---------------------------------------------------------------------

 SCF Done:  E(RB2PLYPD3) =  -156.806167445     A.U. after   14 cycles
 E2(B2PLYPD3) =    -0.2613835897D+00 E(B2PLYPD3) =    -0.15706755103495D+03

 The electronic state is 1-A.
 Alpha  occ. eigenvalues --  -10.64923 -10.60507 -10.60168 -10.59041  -0.99075
 Alpha  occ. eigenvalues --   -0.91106  -0.80328  -0.72390  -0.56941  -0.49710
 Alpha  occ. eigenvalues --   -0.46240  -0.44494  -0.41112  -0.39121  -0.38278
 Alpha  occ. eigenvalues --   -0.34097  -0.30540
 Alpha virt. eigenvalues --   -0.03057   0.04829   0.05593   0.06789   0.10106
 Alpha virt. eigenvalues --    0.10868   0.12215   0.12911   0.13570   0.15164
 Alpha virt. eigenvalues --    0.15561   0.17272   0.17889   0.19059   0.20925

 Mulliken charges:
               1
     1  C   -0.387578
     2  C   -0.133280
     3  H    0.014265
     4  H    0.051074
     5  H    0.250626
     6  C   -0.241009
     7  H    0.178241
     8  H    0.016217
     9  C   -0.990798
    10  H    0.196366
    11  H    0.077015
    12  H    0.853634
    13  H    0.032872
    14  H    0.082356
 Sum of Mulliken charges =   0.00000

 Dipole moment (field-independent basis, Debye):
    X=             -0.0894    Y=              0.1579    Z=             -0.9853  Tot=              1.0019
 Quadrupole moment (field-independent basis, Debye-Ang):
   XX=            -30.5650   YY=            -28.7812   ZZ=            -27.0820
   XY=              1.5808   XZ=             -0.8337   YZ=              1.1760

 Normal termination of Gaussian 09 at Wed Aug 26 13:41:47 2020.
