 Gaussian 09, Revision D.01,
 Gaussian 09:  ES64L-G09RevD.01 24-Apr-2013

 --------------------
 #p B2PLYPD3/Def2QZVP
 --------------------

 ----------
 butane_opt
 ----------
 Symbolic Z-matrix:
 Charge =  0 Multiplicity = 1

                         Standard orientation:
 ---------------------------------------------------------------------
 Center     Atomic      Atomic             Coordinates (Angstroms)
 Number     Number       Type             X           Y           Z
 ---------------------------------------------------------------------
      1          6           0        1.943576   -0.152133   -0.129923
      2          6           0        0.514689    0.591295    0.206379
      3          1           0        2.571688    0.306836   -0.765961
      4          1           0        1.570678   -0.561769   -0.819432
      5          1           0        2.868803   -1.013716    0.919464
      6          6           0       -0.578138   -0.473888    0.102912
      7          1           0        0.376272    1.062880   -0.479025
      8          1           0        0.554741    1.391112    1.062786
      9          6           0       -1.924926    0.055250   -0.082882
     10          1           0       -0.773919   -1.024321    0.883907
     11          1           0       -0.458539   -1.124647   -0.735560
     12          1           0       -2.107136    0.544340    0.676495
     13          1           0       -2.819780   -0.811070   -0.198073
     14          1           0       -1.514010    1.107207   -1.123516
 ---------------------------------------------------------------------

 SCF Done:  E(RB2PLYPD3) =  -157.758875876     A.U. after   11 cycles
 E2(B2PLYPD3) =    -0.2531323302D+00 E(B2PLYPD3) =    -0.15801200820573D+03

 The electronic state is 1-A.
 Alpha  occ. eigenvalues --  -10.63491 -10.61686 -10.60942 -10.59267  -0.94652
 Alpha  occ. eigenvalues --   -0.86448  -0.75945  -0.69630  -0.55819  -0.51473
 Alpha  occ. eigenvalues --   -0.49708  -0.46584  -0.42039  -0.40282  -0.39415
 Alpha  occ. eigenvalues --   -0.36172  -0.34475
 Alpha virt. eigenvalues --    0.03069   0.03585   0.07610   0.07994   0.09419
 Alpha virt. eigenvalues --    0.10498   0.11692   0.12057   0.14678   0.14862
 Alpha virt. eigenvalues --    0.16534   0.17192   0.17736   0.18914   0.20411

 Mulliken charges:
               1
     1  C   -0.272386
     2  C   -0.215154
     3  H    0.054664
     4  H    0.155915
     5  H    0.018388
     6  C   -0.003653
     7  H    0.211446
     8  H    0.036319
     9  C   -0.171214
    10  H    0.033043
    11  H    0.044029
    12  H    0.103446
    13  H    0.050679
    14  H   -0.045522
 Sum of Mulliken charges =   0.00000

 Dipole moment (field-independent basis, Debye):
    X=             -0.3597    Y=             -0.1943    Z=              0.0068  Tot=              0.4089
 Quadrupole moment (field-independent basis, Debye-Ang):
   XX=            -31.0118   YY=            -29.4873   ZZ=            -28.7867
   XY=              2.2614   XZ=             -2.9271   YZ=              0.4087

 Normal termination of Gaussian 09 at Wed Aug 26 18:54:07 2020.
