 Gaussian 09, Revision D.01,
 Gaussian 09:  ES64L-G09RevD.01 24-Apr-2013

 --------------------
 #p B2PLYPD3/Def2QZVP
 --------------------

 ----------
 butane_opt
 ----------
 Symbolic Z-matrix:
 Charge =  0 Multiplicity = 1

                         Standard orientation:
 ---------------------------------------------------------------------
 Center     Atomic      Atomic             Coordinates (Angstroms)
 Number     Number       Type             X           Y           Z
 ---------------------------------------------------------------------
      1          6           0       -1.864812   -0.104413    0.099531
      2          6           0       -0.548581    0.494984   -0.126041
      3          1           0       -2.793095    0.778681    0.076742
      4          1           0       -1.945417   -0.878591    1.047439
      5          1           0       -2.085185   -0.576385   -0.673238
      6          6           0        0.495532   -0.546454   -0.053114
      7          1           0       -0.432097    1.018606    0.658544
      8          1           0       -0.638183    1.271719   -1.178047
      9          6           0        1.969877    0.146023    0.043023
     10          1           0        0.288937   -1.293287   -0.941989
     11          1           0        0.371434   -1.181904    0.883204
     12          1           0        2.065575    0.292627   -0.504439
     13          1           0        2.678901   -0.563744   -0.275468
     14          1           0        2.177035    1.191443    1.126854
 ---------------------------------------------------------------------

 SCF Done:  E(RB2PLYPD3) =  -157.367342130     A.U. after   12 cycles
 E2(B2PLYPD3) =    -0.2521758148D+00 E(B2PLYPD3) =    -0.15761951794478D+03

 The electronic state is 1-A.
 Alpha  occ. eigenvalues --  -10.62913 -10.61024 -10.60563 -10.60220  -0.94606
 Alpha  occ. eigenvalues --   -0.89794  -0.76209  -0.67214  -0.54134  -0.49776
 Alpha  occ. eigenvalues --   -0.48299  -0.45343  -0.41255  -0.41096  -0.38180
 Alpha  occ. eigenvalues --   -0.37558  -0.36538
 Alpha virt. eigenvalues --    0.04150   0.05594   0.06929   0.07226   0.10211
 Alpha virt. eigenvalues --    0.11023   0.12080   0.13032   0.14274   0.15394
 Alpha virt. eigenvalues --    0.15902   0.16622   0.18484   0.19153   0.21935

 Mulliken charges:
               1
     1  C   -0.171324
     2  C   -0.054002
     3  H    0.016741
     4  H    0.033762
     5  H    0.080535
     6  C   -0.017329
     7  H    0.091040
     8  H    0.006953
     9  C   -0.815184
    10  H    0.021124
    11  H    0.046084
    12  H    0.647853
    13  H    0.051048
    14  H    0.062697
 Sum of Mulliken charges =   0.00000

 Dipole moment (field-independent basis, Debye):
    X=              0.1697    Y=             -0.1110    Z=             -0.3822  Tot=              0.4326
 Quadrupole moment (field-independent basis, Debye-Ang):
   XX=            -30.5249   YY=            -28.9376   ZZ=            -27.9299
   XY=              0.2886   XZ=             -0.4765   YZ=              0.6342

 Normal termination of Gaussian 09 at Wed Aug 26 22:23:55 2020.
