 Gaussian 09, Revision D.01,
 Gaussian 09:  ES64L-G09RevD.01 24-Apr-2013

 --------------------
 #p B2PLYPD3/Def2QZVP
 --------------------

 ----------
 butane_opt
 ----------
 Symbolic Z-matrix:
 Charge =  0 Multiplicity = 1

                         Standard orientation:
 ---------------------------------------------------------------------
 Center     Atomic      Atomic             Coordinates (Angstroms)
 Number     Number       Type             X           Y           Z
 ---------------------------------------------------------------------
      1          6           0        1.994805   -0.156633   -0.052773
      2          6           0        0.532335    0.594318    0.075118
      3          1           0        2.745585    0.553393   -0.268924
      4          1           0        2.180888   -0.893566   -0.951207
      5          1           0        2.362218   -0.549687    0.700932
      6          6           0       -0.666676   -0.479216    0.238853
      7          1           0        0.247279    1.167371   -0.809613
      8          1           0        0.544504    1.107788    0.688011
      9          6           0       -1.869140    0.063027   -0.098580
     10          1           0       -0.514556   -1.111783    1.280004
     11          1           0       -0.552809   -1.121126   -0.526386
     12          1           0       -2.822308    1.027010    0.824032
     13          1           0       -2.694553   -0.690795   -0.924080
     14          1           0       -1.444199    0.382415   -0.988481
 ---------------------------------------------------------------------

 SCF Done:  E(RB2PLYPD3) =  -157.796034405     A.U. after   12 cycles
 E2(B2PLYPD3) =    -0.2534948622D+00 E(B2PLYPD3) =    -0.15804952926670D+03

 The electronic state is 1-A.
 Alpha  occ. eigenvalues --  -10.65637 -10.61735 -10.59654 -10.59614  -0.95105
 Alpha  occ. eigenvalues --   -0.85635  -0.76418  -0.65974  -0.56018  -0.50038
 Alpha  occ. eigenvalues --   -0.48993  -0.47047  -0.42870  -0.42103  -0.41229
 Alpha  occ. eigenvalues --   -0.35618  -0.32135
 Alpha virt. eigenvalues --    0.02606   0.05619   0.06546   0.08148   0.09841
 Alpha virt. eigenvalues --    0.10147   0.12546   0.13292   0.14486   0.14989
 Alpha virt. eigenvalues --    0.15726   0.17380   0.18406   0.18891   0.20622

 Mulliken charges:
               1
     1  C   -0.131468
     2  C   -0.240950
     3  H    0.028389
     4  H    0.019122
     5  H    0.070643
     6  C   -0.059165
     7  H    0.037331
     8  H    0.229513
     9  C   -0.199612
    10  H    0.010196
    11  H    0.107684
    12  H    0.021764
    13  H    0.016059
    14  H    0.090491
 Sum of Mulliken charges =   0.00000

 Dipole moment (field-independent basis, Debye):
    X=              0.9549    Y=              0.0623    Z=             -0.3675  Tot=              1.0251
 Quadrupole moment (field-independent basis, Debye-Ang):
   XX=            -31.3629   YY=            -29.6956   ZZ=            -28.2049
   XY=             -0.0184   XZ=              0.9015   YZ=              0.7765

 Normal termination of Gaussian 09 at Wed Aug 26 09:43:07 2020.
