 Gaussian 09, Revision D.01,
 Gaussian 09:  ES64L-G09RevD.01 24-Apr-2013

 --------------------
 #p B2PLYPD3/Def2QZVP
 --------------------

 ----------
 butane_opt
 ----------
 Symbolic Z-matrix:
 Charge =  0 Multiplicity = 1

                         Standard orientation:
 ---------------------------------------------------------------------
 Center     Atomic      Atomic             Coordinates (Angstroms)
 Number     Number       Type             X           Y           Z
 ---------------------------------------------------------------------
      1          6           0        1.896614    0.072806   -0.139913
      2          6           0        0.641371   -0.484130    0.112378
      3          1           0        2.611519   -0.603606   -0.416360
      4          1           0        2.278196    0.767138    0.757223
      5          1           0        1.919770    0.639815   -0.952513
      6          6           0       -0.575172    0.625313    0.140554
      7          1           0        0.652820   -1.371910    1.208877
      8          1           0        0.673325   -1.141349   -0.569953
      9          6           0       -2.064693   -0.142419   -0.145703
     10          1           0       -0.209151    0.963624   -0.539548
     11          1           0       -0.428926    1.509121    1.178500
     12          1           0       -2.056385   -0.503077   -0.813110
     13          1           0       -2.530334    0.337250   -0.582763
     14          1           0       -2.299558   -1.026427    0.925752
 ---------------------------------------------------------------------

 SCF Done:  E(RB2PLYPD3) =  -157.591038632     A.U. after   11 cycles
 E2(B2PLYPD3) =    -0.2511586187D+00 E(B2PLYPD3) =    -0.15784219725088D+03

 The electronic state is 1-A.
 Alpha  occ. eigenvalues --  -10.62861 -10.61465 -10.58427 -10.58016  -0.94408
 Alpha  occ. eigenvalues --   -0.91346  -0.79150  -0.68540  -0.52911  -0.52696
 Alpha  occ. eigenvalues --   -0.49508  -0.46884  -0.42950  -0.40992  -0.38192
 Alpha  occ. eigenvalues --   -0.37764  -0.33304
 Alpha virt. eigenvalues --    0.04563   0.06434   0.07596   0.07803   0.09891
 Alpha virt. eigenvalues --    0.11157   0.12165   0.12925   0.14177   0.15865
 Alpha virt. eigenvalues --    0.16468   0.17647   0.18311   0.18688   0.20270

 Mulliken charges:
               1
     1  C   -0.126472
     2  C   -0.046279
     3  H    0.039465
     4  H    0.028339
     5  H    0.037807
     6  C   -0.264041
     7  H   -0.033432
     8  H    0.075946
     9  C   -0.560025
    10  H    0.241800
    11  H    0.037305
    12  H    0.296870
    13  H    0.193506
    14  H    0.079210
 Sum of Mulliken charges =   0.00000

 Dipole moment (field-independent basis, Debye):
    X=              0.0723    Y=             -0.0014    Z=             -1.4089  Tot=              1.4108
 Quadrupole moment (field-independent basis, Debye-Ang):
   XX=            -29.2210   YY=            -29.2027   ZZ=            -27.6250
   XY=              0.2246   XZ=              0.3816   YZ=              0.3008

 Normal termination of Gaussian 09 at Wed Aug 26 14:28:48 2020.
