 Gaussian 09, Revision D.01,
 Gaussian 09:  ES64L-G09RevD.01 24-Apr-2013

 --------------------
 #p B2PLYPD3/Def2QZVP
 --------------------

 ----------
 butane_opt
 ----------
 Symbolic Z-matrix:
 Charge =  0 Multiplicity = 1

                         Standard orientation:
 ---------------------------------------------------------------------
 Center     Atomic      Atomic             Coordinates (Angstroms)
 Number     Number       Type             X           Y           Z
 ---------------------------------------------------------------------
      1          6           0       -1.864086    0.021803   -0.009220
      2          6           0       -0.574768   -0.445363   -0.094256
      3          1           0       -2.662741   -0.594777   -0.510635
      4          1           0       -1.758415    0.425623   -0.683007
      5          1           0       -2.176118    0.746771    1.162602
      6          6           0        0.458993    0.597071    0.045685
      7          1           0       -0.342232   -0.847997   -0.672864
      8          1           0       -0.468077   -1.222876    0.847594
      9          6           0        1.924440   -0.176242    0.013154
     10          1           0        0.114195    1.243370    1.034536
     11          1           0        0.433590    1.145678   -0.748860
     12          1           0        2.392725   -1.139232    0.994301
     13          1           0        2.842520    0.682624   -0.542793
     14          1           0        1.957076   -0.422796   -0.613047
 ---------------------------------------------------------------------

 SCF Done:  E(RB2PLYPD3) =  -157.358425869     A.U. after   12 cycles
 E2(B2PLYPD3) =    -0.2531721972D+00 E(B2PLYPD3) =    -0.15761159806668D+03

 The electronic state is 1-A.
 Alpha  occ. eigenvalues --  -10.63001 -10.62072 -10.58931 -10.57200  -0.98479
 Alpha  occ. eigenvalues --   -0.88342  -0.78827  -0.71670  -0.58494  -0.51741
 Alpha  occ. eigenvalues --   -0.49592  -0.45783  -0.41440  -0.40887  -0.39428
 Alpha  occ. eigenvalues --   -0.35889  -0.34915
 Alpha virt. eigenvalues --    0.03746   0.04877   0.07371   0.08304   0.09946
 Alpha virt. eigenvalues --    0.10254   0.11890   0.12664   0.14350   0.15662
 Alpha virt. eigenvalues --    0.16126   0.16991   0.17710   0.19443   0.19804

 Mulliken charges:
               1
     1  C   -0.381179
     2  C   -0.373166
     3  H    0.050045
     4  H    0.291959
     5  H    0.045857
     6  C    0.010875
     7  H    0.327942
     8  H    0.014309
     9  C   -0.738667
    10  H    0.030390
    11  H    0.072331
    12  H    0.073399
    13  H    0.010121
    14  H    0.565785
 Sum of Mulliken charges =   0.00000

 Dipole moment (field-independent basis, Debye):
    X=             -0.4128    Y=             -0.1771    Z=             -1.1429  Tot=              1.2280
 Quadrupole moment (field-independent basis, Debye-Ang):
   XX=            -31.6005   YY=            -29.6115   ZZ=            -27.1020
   XY=             -1.2027   XZ=             -0.2572   YZ=             -0.0107

 Normal termination of Gaussian 09 at Wed Aug 26 09:51:22 2020.
