 Gaussian 09, Revision D.01,
 Gaussian 09:  ES64L-G09RevD.01 24-Apr-2013

 --------------------
 #p B2PLYPD3/Def2QZVP
 --------------------

 ----------
 butane_opt
 ----------
 Symbolic Z-matrix:
 Charge =  0 Multiplicity = 1

                         Standard orientation:
 ---------------------------------------------------------------------
 Center     Atomic      Atomic             Coordinates (Angstroms)
 Number     Number       Type             X           Y           Z
 ---------------------------------------------------------------------
      1          6           0        1.934557    0.125421    0.018626
      2          6           0        0.512519   -0.532721   -0.107357
      3          1           0        2.610684   -0.520905   -0.221404
      4          1           0        2.150110    0.961341    1.148732
      5          1           0        2.144282    0.481352   -0.498468
      6          6           0       -0.564525    0.460512    0.040620
      7          1           0        0.482636   -1.053540    0.595200
      8          1           0        0.287734   -1.187094   -1.075429
      9          6           0       -1.833128   -0.112408    0.059921
     10          1           0       -0.767284    1.626584   -0.980668
     11          1           0       -0.547737    0.864465    0.793359
     12          1           0       -1.965136   -0.351184   -0.530556
     13          1           0       -2.617012    0.587343   -0.365592
     14          1           0       -2.074822   -1.053189    1.063968
 ---------------------------------------------------------------------

 SCF Done:  E(RB2PLYPD3) =  -157.180452898     A.U. after   12 cycles
 E2(B2PLYPD3) =    -0.2508402247D+00 E(B2PLYPD3) =    -0.15743129312264D+03

 The electronic state is 1-A.
 Alpha  occ. eigenvalues --  -10.60598 -10.60071 -10.58128 -10.58009  -0.97309
 Alpha  occ. eigenvalues --   -0.91102  -0.82674  -0.73281  -0.56027  -0.52801
 Alpha  occ. eigenvalues --   -0.49272  -0.45795  -0.44566  -0.43256  -0.38862
 Alpha  occ. eigenvalues --   -0.37362  -0.33633
 Alpha virt. eigenvalues --    0.03777   0.05433   0.05618   0.07974   0.10229
 Alpha virt. eigenvalues --    0.11582   0.12425   0.12829   0.14187   0.15813
 Alpha virt. eigenvalues --    0.16255   0.16780   0.18444   0.19330   0.21591

 Mulliken charges:
               1
     1  C   -0.568610
     2  C   -0.062757
     3  H    0.035151
     4  H    0.033076
     5  H    0.434425
     6  C   -0.066887
     7  H    0.141214
     8  H    0.021119
     9  C   -0.661024
    10  H   -0.054775
    11  H    0.163086
    12  H    0.500371
    13  H    0.045898
    14  H    0.039713
 Sum of Mulliken charges =   0.00000

 Dipole moment (field-independent basis, Debye):
    X=              0.1979    Y=             -0.6419    Z=             -0.2883  Tot=              0.7310
 Quadrupole moment (field-independent basis, Debye-Ang):
   XX=            -29.0609   YY=            -29.3687   ZZ=            -27.7933
   XY=              0.1689   XZ=              0.1738   YZ=              0.3561

 Normal termination of Gaussian 09 at Wed Aug 26 13:02:28 2020.
