 Gaussian 09, Revision D.01,
 Gaussian 09:  ES64L-G09RevD.01 24-Apr-2013

 --------------------
 #p B2PLYPD3/Def2QZVP
 --------------------

 ----------
 butane_opt
 ----------
 Symbolic Z-matrix:
 Charge =  0 Multiplicity = 1

                         Standard orientation:
 ---------------------------------------------------------------------
 Center     Atomic      Atomic             Coordinates (Angstroms)
 Number     Number       Type             X           Y           Z
 ---------------------------------------------------------------------
      1          6           0       -2.021442   -0.177924   -0.116946
      2          6           0       -0.490329    0.551908    0.000457
      3          1           0       -2.781720    0.766596    0.044130
      4          1           0       -2.334209   -0.583148    0.752851
      5          1           0       -2.243138   -0.999943   -0.866561
      6          6           0        0.600849   -0.432987    0.295642
      7          1           0       -0.655248    1.200060    0.754452
      8          1           0       -0.404283    1.183401   -0.971867
      9          6           0        1.992919    0.093419   -0.132332
     10          1           0        0.373456   -1.412146   -0.486651
     11          1           0        0.579659   -1.026100    1.281951
     12          1           0        1.561485    0.435922   -0.926426
     13          1           0        2.939847   -0.901608   -0.677246
     14          1           0        2.472168    1.130469    0.814440
 ---------------------------------------------------------------------

 SCF Done:  E(RB2PLYPD3) =  -157.915669629     A.U. after   11 cycles
 E2(B2PLYPD3) =    -0.2549728119D+00 E(B2PLYPD3) =    -0.15817064244045D+03

 The electronic state is 1-A.
 Alpha  occ. eigenvalues --  -10.65765 -10.64198 -10.62807 -10.62029  -0.91149
 Alpha  occ. eigenvalues --   -0.81899  -0.72936  -0.65801  -0.53523  -0.48396
 Alpha  occ. eigenvalues --   -0.46485  -0.44924  -0.42169  -0.40265  -0.38836
 Alpha  occ. eigenvalues --   -0.36220  -0.34324
 Alpha virt. eigenvalues --    0.03074   0.05567   0.06685   0.07793   0.09611
 Alpha virt. eigenvalues --    0.09801   0.12002   0.12954   0.13939   0.14361
 Alpha virt. eigenvalues --    0.15047   0.16658   0.18666   0.18738   0.19677

 Mulliken charges:
               1
     1  C   -0.154466
     2  C   -0.041236
     3  H    0.019804
     4  H    0.055273
     5  H    0.055985
     6  C   -0.041409
     7  H    0.052249
     8  H    0.035920
     9  C   -0.211799
    10  H    0.007414
    11  H    0.046511
    12  H    0.118509
    13  H    0.030900
    14  H    0.026344
 Sum of Mulliken charges =   0.00000

 Dipole moment (field-independent basis, Debye):
    X=             -0.6474    Y=              0.0043    Z=              0.1703  Tot=              0.6695
 Quadrupole moment (field-independent basis, Debye-Ang):
   XX=            -32.4587   YY=            -29.1189   ZZ=            -29.0899
   XY=             -0.1427   XZ=             -0.9464   YZ=              0.8175

 Normal termination of Gaussian 09 at Wed Aug 26 11:33:42 2020.
