 Gaussian 09, Revision D.01,
 Gaussian 09:  ES64L-G09RevD.01 24-Apr-2013

 --------------------
 #p B2PLYPD3/Def2QZVP
 --------------------

 ----------
 butane_opt
 ----------
 Symbolic Z-matrix:
 Charge =  0 Multiplicity = 1

                         Standard orientation:
 ---------------------------------------------------------------------
 Center     Atomic      Atomic             Coordinates (Angstroms)
 Number     Number       Type             X           Y           Z
 ---------------------------------------------------------------------
      1          6           0       -1.944578   -0.100708    0.114121
      2          6           0       -0.555653    0.521587   -0.068815
      3          1           0       -2.788535    0.850174   -0.418763
      4          1           0       -2.642288   -1.403160    1.423918
      5          1           0       -1.838330   -0.160724   -0.537136
      6          6           0        0.602012   -0.577085   -0.139395
      7          1           0       -0.546353    0.876658    0.518877
      8          1           0       -0.542423    1.505769   -1.164357
      9          6           0        1.939757    0.111350    0.114835
     10          1           0        0.511129   -1.367721   -1.380422
     11          1           0        0.420349   -1.008391    0.547689
     12          1           0        2.256174    0.111285   -0.347745
     13          1           0        2.603300   -0.412102   -0.247639
     14          1           0        2.317755    1.277352    1.481099
 ---------------------------------------------------------------------

 SCF Done:  E(RB2PLYPD3) =  -156.224083503     A.U. after   14 cycles
 E2(B2PLYPD3) =    -0.2692567059D+00 E(B2PLYPD3) =    -0.15649334020926D+03

 The electronic state is 1-A.
 Alpha  occ. eigenvalues --  -10.63938 -10.63399 -10.63088 -10.61734  -1.09179
 Alpha  occ. eigenvalues --   -0.96729  -0.84134  -0.75369  -0.54225  -0.51944
 Alpha  occ. eigenvalues --   -0.44654  -0.42706  -0.40142  -0.38336  -0.36356
 Alpha  occ. eigenvalues --   -0.33544  -0.31669
 Alpha virt. eigenvalues --   -0.04699  -0.02638   0.03436   0.05640   0.07633
 Alpha virt. eigenvalues --    0.09414   0.11107   0.12705   0.13727   0.15307
 Alpha virt. eigenvalues --    0.16109   0.16307   0.17502   0.18576   0.19790

 Mulliken charges:
               1
     1  C   -0.830270
     2  C   -0.520157
     3  H    0.029158
     4  H    0.049881
     5  H    0.674939
     6  C   -0.183009
     7  H    0.518497
     8  H    0.018062
     9  C   -0.903710
    10  H    0.019675
    11  H    0.249782
    12  H    0.693388
    13  H    0.114274
    14  H    0.069491
 Sum of Mulliken charges =   0.00000

 Dipole moment (field-independent basis, Debye):
    X=              1.3042    Y=             -0.2240    Z=             -0.6298  Tot=              1.4656
 Quadrupole moment (field-independent basis, Debye-Ang):
   XX=            -29.8469   YY=            -29.8474   ZZ=            -27.6926
   XY=              0.3295   XZ=             -1.0849   YZ=              0.5167

 Normal termination of Gaussian 09 at Wed Aug 26 23:51:28 2020.
