 Gaussian 09, Revision D.01,
 Gaussian 09:  ES64L-G09RevD.01 24-Apr-2013

 --------------------
 #p B2PLYPD3/Def2QZVP
 --------------------

 ----------
 butane_opt
 ----------
 Symbolic Z-matrix:
 Charge =  0 Multiplicity = 1

                         Standard orientation:
 ---------------------------------------------------------------------
 Center     Atomic      Atomic             Coordinates (Angstroms)
 Number     Number       Type             X           Y           Z
 ---------------------------------------------------------------------
      1          6           0        1.949101   -0.163970    0.087709
      2          6           0        0.472951    0.582471   -0.045550
      3          1           0        2.851303    0.727314   -0.370097
      4          1           0        1.881301   -0.402427   -0.476814
      5          1           0        2.190035   -1.398883    1.137358
      6          6           0       -0.551846   -0.498454   -0.129338
      7          1           0        0.379632    1.367163   -0.852976
      8          1           0        0.459821    1.133756    0.896987
      9          6           0       -1.845529    0.075524    0.101492
     10          1           0       -0.589032   -0.726185    0.432900
     11          1           0       -0.364877   -1.208293   -1.228566
     12          1           0       -2.247546    0.818435    1.047717
     13          1           0       -2.695080   -0.815134    0.030072
     14          1           0       -2.013621    0.530833   -0.702457
 ---------------------------------------------------------------------

 SCF Done:  E(RB2PLYPD3) =  -157.014979591     A.U. after   12 cycles
 E2(B2PLYPD3) =    -0.2557564831D+00 E(B2PLYPD3) =    -0.15727073607373D+03

 The electronic state is 1-A.
 Alpha  occ. eigenvalues --  -10.63186 -10.62184 -10.60884 -10.58887  -0.98240
 Alpha  occ. eigenvalues --   -0.88610  -0.75418  -0.72005  -0.56587  -0.48650
 Alpha  occ. eigenvalues --   -0.47732  -0.46503  -0.41618  -0.40357  -0.37954
 Alpha  occ. eigenvalues --   -0.37518  -0.34666
 Alpha virt. eigenvalues --    0.01415   0.05474   0.06178   0.07207   0.10212
 Alpha virt. eigenvalues --    0.10628   0.11429   0.12783   0.13955   0.15011
 Alpha virt. eigenvalues --    0.15573   0.17078   0.17700   0.19197   0.21073

 Mulliken charges:
               1
     1  C   -0.882425
     2  C    0.060429
     3  H    0.051426
     4  H    0.693013
     5  H    0.046129
     6  C   -0.885822
     7  H    0.044406
     8  H    0.047770
     9  C   -0.135834
    10  H    0.764228
    11  H    0.055373
    12  H    0.049939
    13  H    0.016851
    14  H    0.074518
 Sum of Mulliken charges =   0.00000

 Dipole moment (field-independent basis, Debye):
    X=             -0.5263    Y=              0.0669    Z=             -0.5170  Tot=              0.7408
 Quadrupole moment (field-independent basis, Debye-Ang):
   XX=            -31.8755   YY=            -28.3958   ZZ=            -27.8541
   XY=             -0.4562   XZ=             -1.1660   YZ=             -0.3824

 Normal termination of Gaussian 09 at Wed Aug 26 15:04:19 2020.
