 Gaussian 09, Revision D.01,
 Gaussian 09:  ES64L-G09RevD.01 24-Apr-2013

 --------------------
 #p B2PLYPD3/Def2QZVP
 --------------------

 ----------
 butane_opt
 ----------
 Symbolic Z-matrix:
 Charge =  0 Multiplicity = 1

                         Standard orientation:
 ---------------------------------------------------------------------
 Center     Atomic      Atomic             Coordinates (Angstroms)
 Number     Number       Type             X           Y           Z
 ---------------------------------------------------------------------
      1          6           0       -2.020154   -0.171339    0.001765
      2          6           0       -0.590320    0.569098    0.103214
      3          1           0       -2.615518    0.272085   -0.510229
      4          1           0       -2.438940   -0.946497    0.998805
      5          1           0       -1.697060   -0.608186   -0.682055
      6          6           0        0.565424   -0.425614   -0.075836
      7          1           0       -0.369352    1.134190    0.869155
      8          1           0       -0.521711    1.506549   -0.962667
      9          6           0        1.971958    0.077400    0.031236
     10          1           0        0.736614   -1.149715   -0.990420
     11          1           0        0.480082   -1.161661    0.738147
     12          1           0        1.895231    0.732970   -0.719163
     13          1           0        2.929249   -0.882103   -0.058987
     14          1           0        2.039958    0.805094    0.955139
 ---------------------------------------------------------------------

 SCF Done:  E(RB2PLYPD3) =  -157.877647307     A.U. after   11 cycles
 E2(B2PLYPD3) =    -0.2515963063D+00 E(B2PLYPD3) =    -0.15812924361301D+03

 The electronic state is 1-A.
 Alpha  occ. eigenvalues --  -10.64491 -10.62160 -10.61692 -10.58726  -0.92330
 Alpha  occ. eigenvalues --   -0.86202  -0.74813  -0.66331  -0.53102  -0.51331
 Alpha  occ. eigenvalues --   -0.48175  -0.46815  -0.42208  -0.39969  -0.39300
 Alpha  occ. eigenvalues --   -0.37795  -0.34677
 Alpha virt. eigenvalues --    0.04766   0.06250   0.06436   0.08282   0.10356
 Alpha virt. eigenvalues --    0.11419   0.12407   0.12517   0.14342   0.15215
 Alpha virt. eigenvalues --    0.16030   0.16411   0.18594   0.18843   0.20425

 Mulliken charges:
               1
     1  C   -0.284317
     2  C   -0.065276
     3  H    0.081710
     4  H    0.054057
     5  H    0.166548
     6  C   -0.005581
     7  H    0.085393
     8  H   -0.035800
     9  C   -0.184142
    10  H    0.011191
    11  H    0.026646
    12  H    0.079845
    13  H    0.047037
    14  H    0.022687
 Sum of Mulliken charges =   0.00000

 Dipole moment (field-independent basis, Debye):
    X=             -0.1587    Y=             -0.2557    Z=             -0.0426  Tot=              0.3040
 Quadrupole moment (field-independent basis, Debye-Ang):
   XX=            -30.2487   YY=            -29.4754   ZZ=            -28.6897
   XY=             -0.4174   XZ=              0.1745   YZ=              0.1297

 Normal termination of Gaussian 09 at Wed Aug 26 12:39:30 2020.
