 Gaussian 09, Revision D.01,
 Gaussian 09:  ES64L-G09RevD.01 24-Apr-2013

 --------------------
 #p B2PLYPD3/Def2QZVP
 --------------------

 ----------
 butane_opt
 ----------
 Symbolic Z-matrix:
 Charge =  0 Multiplicity = 1

                         Standard orientation:
 ---------------------------------------------------------------------
 Center     Atomic      Atomic             Coordinates (Angstroms)
 Number     Number       Type             X           Y           Z
 ---------------------------------------------------------------------
      1          6           0        1.931387   -0.035554    0.011085
      2          6           0        0.647809    0.493682   -0.056575
      3          1           0        2.552743    0.519845   -0.140472
      4          1           0        2.144000   -0.427411   -0.775516
      5          1           0        1.925084   -0.715037    1.119603
      6          6           0       -0.535980   -0.652481    0.161846
      7          1           0        0.569992    1.210441   -1.160965
      8          1           0        0.500965    1.010283    0.738176
      9          6           0       -2.014714    0.162501   -0.035786
     10          1           0       -0.388044   -1.152962    0.873548
     11          1           0       -0.257774   -1.332647   -0.777873
     12          1           0       -2.705567    1.478701    1.074365
     13          1           0       -2.742481   -0.648438   -0.867705
     14          1           0       -1.769934    0.248342   -0.566575
 ---------------------------------------------------------------------

 SCF Done:  E(RB2PLYPD3) =  -157.165856549     A.U. after   13 cycles
 E2(B2PLYPD3) =    -0.2582287317D+00 E(B2PLYPD3) =    -0.15742408528066D+03

 The electronic state is 1-A.
 Alpha  occ. eigenvalues --  -10.65235 -10.62447 -10.61298 -10.56711  -0.94722
 Alpha  occ. eigenvalues --   -0.90494  -0.79019  -0.70616  -0.54746  -0.52556
 Alpha  occ. eigenvalues --   -0.47174  -0.46331  -0.42170  -0.40223  -0.37465
 Alpha  occ. eigenvalues --   -0.36146  -0.33515
 Alpha virt. eigenvalues --   -0.02664   0.04976   0.06383   0.07141   0.09606
 Alpha virt. eigenvalues --    0.10046   0.12068   0.12533   0.13610   0.15335
 Alpha virt. eigenvalues --    0.15836   0.16848   0.17716   0.19067   0.19808

 Mulliken charges:
               1
     1  C   -0.196870
     2  C   -0.068451
     3  H    0.107313
     4  H    0.043027
     5  H    0.037573
     6  C   -0.100418
     7  H   -0.005806
     8  H    0.089926
     9  C   -0.955753
    10  H    0.131345
    11  H    0.015876
    12  H    0.061936
    13  H    0.032711
    14  H    0.807590
 Sum of Mulliken charges =   0.00000

 Dipole moment (field-independent basis, Debye):
    X=              1.1325    Y=              0.2382    Z=             -0.2953  Tot=              1.1944
 Quadrupole moment (field-independent basis, Debye-Ang):
   XX=            -31.4204   YY=            -29.3642   ZZ=            -27.2839
   XY=             -0.6032   XZ=             -0.8374   YZ=              0.7501

 Normal termination of Gaussian 09 at Wed Aug 26 15:48:43 2020.
