 Gaussian 09, Revision D.01,
 Gaussian 09:  ES64L-G09RevD.01 24-Apr-2013

 --------------------
 #p B2PLYPD3/Def2QZVP
 --------------------

 ----------
 butane_opt
 ----------
 Symbolic Z-matrix:
 Charge =  0 Multiplicity = 1

                         Standard orientation:
 ---------------------------------------------------------------------
 Center     Atomic      Atomic             Coordinates (Angstroms)
 Number     Number       Type             X           Y           Z
 ---------------------------------------------------------------------
      1          6           0        1.918008    0.140968   -0.068463
      2          6           0        0.538990   -0.469007    0.115230
      3          1           0        2.883611   -0.669261    0.023274
      4          1           0        2.062951    0.514199    0.560277
      5          1           0        2.278737    0.904556   -1.168897
      6          6           0       -0.581506    0.473823    0.120759
      7          1           0        0.511729   -1.198160    0.969887
      8          1           0        0.259841   -0.979476   -0.636127
      9          6           0       -1.888819   -0.165018   -0.153390
     10          1           0       -0.379852    0.727175   -0.530783
     11          1           0       -0.928998    1.573058    1.174954
     12          1           0       -1.878353   -0.548848   -0.858753
     13          1           0       -2.714368    0.513790   -0.362324
     14          1           0       -2.015337   -0.721626    0.743677
 ---------------------------------------------------------------------

 SCF Done:  E(RB2PLYPD3) =  -157.534827371     A.U. after   12 cycles
 E2(B2PLYPD3) =    -0.2492484858D+00 E(B2PLYPD3) =    -0.15778407585693D+03

 The electronic state is 1-A.
 Alpha  occ. eigenvalues --  -10.61127 -10.60378 -10.59693 -10.56186  -0.98038
 Alpha  occ. eigenvalues --   -0.87558  -0.79339  -0.71015  -0.58410  -0.51514
 Alpha  occ. eigenvalues --   -0.50682  -0.47871  -0.44344  -0.41725  -0.40314
 Alpha  occ. eigenvalues --   -0.36899  -0.34626
 Alpha virt. eigenvalues --    0.04844   0.05573   0.06887   0.08096   0.10708
 Alpha virt. eigenvalues --    0.11677   0.12311   0.13602   0.13954   0.15387
 Alpha virt. eigenvalues --    0.15955   0.16766   0.18889   0.19740   0.21631

 Mulliken charges:
               1
     1  C   -0.471761
     2  C   -0.009360
     3  H    0.031859
     4  H    0.354227
     5  H    0.030583
     6  C   -0.539313
     7  H    0.023194
     8  H    0.086169
     9  C   -0.273783
    10  H    0.495788
    11  H   -0.020499
    12  H    0.184308
    13  H    0.039795
    14  H    0.068791
 Sum of Mulliken charges =   0.00000

 Dipole moment (field-independent basis, Debye):
    X=             -0.0436    Y=             -0.5070    Z=             -0.5077  Tot=              0.7188
 Quadrupole moment (field-independent basis, Debye-Ang):
   XX=            -28.8520   YY=            -29.8268   ZZ=            -27.9308
   XY=              0.0745   XZ=              1.2295   YZ=             -0.6678

 Normal termination of Gaussian 09 at Wed Aug 26 23:18:14 2020.
