 Gaussian 09, Revision D.01,
 Gaussian 09:  ES64L-G09RevD.01 24-Apr-2013

 --------------------
 #p B2PLYPD3/Def2QZVP
 --------------------

 ----------
 butane_opt
 ----------
 Symbolic Z-matrix:
 Charge =  0 Multiplicity = 1

                         Standard orientation:
 ---------------------------------------------------------------------
 Center     Atomic      Atomic             Coordinates (Angstroms)
 Number     Number       Type             X           Y           Z
 ---------------------------------------------------------------------
      1          6           0        1.903502    0.026215   -0.161828
      2          6           0        0.635183   -0.450388    0.239947
      3          1           0        2.607154   -0.650982   -0.244744
      4          1           0        2.265149    0.753380    0.596626
      5          1           0        2.131885    0.599331   -1.205931
      6          6           0       -0.528320    0.643808    0.144083
      7          1           0        1.033504   -1.015057    1.207927
      8          1           0        0.292332   -1.190621   -0.617472
      9          6           0       -2.022662   -0.152176   -0.090834
     10          1           0       -0.406401    1.130957   -0.778956
     11          1           0       -0.595279    1.467268    1.099065
     12          1           0       -1.744251   -0.971618   -1.028817
     13          1           0       -2.830982    0.353544   -0.753224
     14          1           0       -2.679333   -0.880956    0.937317
 ---------------------------------------------------------------------

 SCF Done:  E(RB2PLYPD3) =  -157.966667981     A.U. after   11 cycles
 E2(B2PLYPD3) =    -0.2539000700D+00 E(B2PLYPD3) =    -0.15822056805140D+03

 The electronic state is 1-A.
 Alpha  occ. eigenvalues --  -10.66568 -10.65391 -10.63124 -10.59417  -0.91293
 Alpha  occ. eigenvalues --   -0.81366  -0.70503  -0.65272  -0.53105  -0.50614
 Alpha  occ. eigenvalues --   -0.48470  -0.44592  -0.40379  -0.38255  -0.37974
 Alpha  occ. eigenvalues --   -0.36736  -0.36050
 Alpha virt. eigenvalues --    0.04815   0.05795   0.07495   0.07885   0.09313
 Alpha virt. eigenvalues --    0.10910   0.12203   0.12486   0.13475   0.14501
 Alpha virt. eigenvalues --    0.15565   0.17155   0.18332   0.18678   0.20284

 Mulliken charges:
               1
     1  C   -0.117919
     2  C   -0.050857
     3  H    0.056710
     4  H    0.036111
     5  H   -0.002768
     6  C   -0.071561
     7  H    0.053621
     8  H    0.030828
     9  C   -0.183296
    10  H    0.097907
    11  H    0.033316
    12  H    0.017647
    13  H    0.057947
    14  H    0.042314
 Sum of Mulliken charges =   0.00000

 Dipole moment (field-independent basis, Debye):
    X=              0.4964    Y=              0.0659    Z=             -0.2246  Tot=              0.5489
 Quadrupole moment (field-independent basis, Debye-Ang):
   XX=            -29.9503   YY=            -30.2777   ZZ=            -28.7206
   XY=             -0.9316   XZ=              1.0018   YZ=             -0.1324

 Normal termination of Gaussian 09 at Wed Aug 26 15:02:07 2020.
