 Gaussian 09, Revision D.01,
 Gaussian 09:  ES64L-G09RevD.01 24-Apr-2013

 --------------------
 #p B2PLYPD3/Def2QZVP
 --------------------

 ----------
 butane_opt
 ----------
 Symbolic Z-matrix:
 Charge =  0 Multiplicity = 1

                         Standard orientation:
 ---------------------------------------------------------------------
 Center     Atomic      Atomic             Coordinates (Angstroms)
 Number     Number       Type             X           Y           Z
 ---------------------------------------------------------------------
      1          6           0       -1.963009   -0.162287    0.051390
      2          6           0       -0.517632    0.531677   -0.043214
      3          1           0       -2.821856    0.674525   -0.083817
      4          1           0       -2.187263   -1.004317    1.045401
      5          1           0       -1.906935   -0.559419   -0.718586
      6          6           0        0.565955   -0.468025   -0.033033
      7          1           0       -0.341693    1.129151    0.746021
      8          1           0       -0.443483    1.373839   -1.118931
      9          6           0        1.934597    0.075787    0.028301
     10          1           0        0.388624   -1.243013   -0.959954
     11          1           0        0.564116   -1.026411    0.733032
     12          1           0        1.921557    0.416838   -0.714234
     13          1           0        2.678797   -0.641427   -0.162695
     14          1           0        2.028671    1.017318    1.213100
 ---------------------------------------------------------------------

 SCF Done:  E(RB2PLYPD3) =  -157.816822250     A.U. after   11 cycles
 E2(B2PLYPD3) =    -0.2507505198D+00 E(B2PLYPD3) =    -0.15806757276943D+03

 The electronic state is 1-A.
 Alpha  occ. eigenvalues --  -10.62709 -10.61509 -10.59804 -10.59727  -0.94067
 Alpha  occ. eigenvalues --   -0.85440  -0.75420  -0.67706  -0.55345  -0.50261
 Alpha  occ. eigenvalues --   -0.47683  -0.46889  -0.41877  -0.41026  -0.38548
 Alpha  occ. eigenvalues --   -0.37090  -0.36161
 Alpha virt. eigenvalues --    0.04547   0.05693   0.06519   0.07443   0.10514
 Alpha virt. eigenvalues --    0.11484   0.11937   0.12963   0.14082   0.15285
 Alpha virt. eigenvalues --    0.15720   0.16296   0.19044   0.19189   0.21310

 Mulliken charges:
               1
     1  C   -0.263783
     2  C   -0.038573
     3  H    0.042515
     4  H    0.038484
     5  H    0.168119
     6  C   -0.033175
     7  H    0.063918
     8  H   -0.015067
     9  C   -0.323215
    10  H   -0.011715
    11  H    0.075958
    12  H    0.223076
    13  H    0.056914
    14  H    0.016546
 Sum of Mulliken charges =   0.00000

 Dipole moment (field-independent basis, Debye):
    X=              0.0594    Y=             -0.3690    Z=             -0.2169  Tot=              0.4321
 Quadrupole moment (field-independent basis, Debye-Ang):
   XX=            -30.4674   YY=            -29.3967   ZZ=            -28.3804
   XY=             -0.8799   XZ=             -0.5829   YZ=              0.1050

 Normal termination of Gaussian 09 at Wed Aug 26 22:58:02 2020.
