 Gaussian 09, Revision D.01,
 Gaussian 09:  ES64L-G09RevD.01 24-Apr-2013

 --------------------
 #p B2PLYPD3/Def2QZVP
 --------------------

 ----------
 butane_opt
 ----------
 Symbolic Z-matrix:
 Charge =  0 Multiplicity = 1

                         Standard orientation:
 ---------------------------------------------------------------------
 Center     Atomic      Atomic             Coordinates (Angstroms)
 Number     Number       Type             X           Y           Z
 ---------------------------------------------------------------------
      1          6           0       -1.987796   -0.051102   -0.187969
      2          6           0       -0.556532    0.496390    0.186087
      3          1           0       -2.578977    0.617313   -0.687162
      4          1           0       -2.548855   -0.877077    0.811124
      5          1           0       -1.691609   -0.675671   -0.913472
      6          6           0        0.569859   -0.570237    0.101202
      7          1           0       -0.878398    1.517224    1.342149
      8          1           0       -0.516269    0.662286   -0.414856
      9          6           0        2.031343    0.171702   -0.057380
     10          1           0        0.435524   -1.089621   -0.795335
     11          1           0        0.296055   -1.243238    1.015715
     12          1           0        2.328549    1.040224   -1.107547
     13          1           0        2.708980   -0.492972    0.041559
     14          1           0        2.103760    0.261010    0.456189
 ---------------------------------------------------------------------

 SCF Done:  E(RB2PLYPD3) =  -156.717814800     A.U. after   12 cycles
 E2(B2PLYPD3) =    -0.2546657409D+00 E(B2PLYPD3) =    -0.15697248054112D+03

 The electronic state is 1-A.
 Alpha  occ. eigenvalues --  -10.62999 -10.61675 -10.61214 -10.61102  -0.96612
 Alpha  occ. eigenvalues --   -0.92270  -0.77111  -0.70377  -0.54901  -0.50032
 Alpha  occ. eigenvalues --   -0.49649  -0.47404  -0.43332  -0.40497  -0.38553
 Alpha  occ. eigenvalues --   -0.37412  -0.33721
 Alpha virt. eigenvalues --    0.03991   0.05504   0.06048   0.08071   0.10181
 Alpha virt. eigenvalues --    0.10498   0.11439   0.12953   0.14012   0.15158
 Alpha virt. eigenvalues --    0.16059   0.16730   0.17670   0.18835   0.20593

 Mulliken charges:
               1
     1  C   -0.128051
     2  C   -0.921154
     3  H    0.067457
     4  H    0.011207
     5  H    0.055948
     6  C    0.010798
     7  H    0.018401
     8  H    0.813233
     9  C   -0.853615
    10  H    0.060512
    11  H    0.051180
    12  H    0.074759
    13  H    0.045020
    14  H    0.694304
 Sum of Mulliken charges =   0.00000

 Dipole moment (field-independent basis, Debye):
    X=              0.5235    Y=             -0.1948    Z=             -0.7196  Tot=              0.9109
 Quadrupole moment (field-independent basis, Debye-Ang):
   XX=            -28.9054   YY=            -29.5854   ZZ=            -27.3428
   XY=             -0.7599   XZ=              0.7336   YZ=             -1.0419

 Normal termination of Gaussian 09 at Wed Aug 26 12:23:26 2020.
