 Gaussian 09, Revision D.01,
 Gaussian 09:  ES64L-G09RevD.01 24-Apr-2013

 --------------------
 #p B2PLYPD3/Def2QZVP
 --------------------

 ----------
 butane_opt
 ----------
 Symbolic Z-matrix:
 Charge =  0 Multiplicity = 1

                         Standard orientation:
 ---------------------------------------------------------------------
 Center     Atomic      Atomic             Coordinates (Angstroms)
 Number     Number       Type             X           Y           Z
 ---------------------------------------------------------------------
      1          6           0        2.045809   -0.129059    0.168810
      2          6           0        0.584064    0.545084   -0.190217
      3          1           0        2.715440    0.601058    0.283586
      4          1           0        2.645176   -0.967725   -0.947102
      5          1           0        1.972878   -0.931971    1.177283
      6          6           0       -0.677652   -0.436285   -0.132219
      7          1           0        0.432293    1.407936   -1.276184
      8          1           0        0.256195    1.095626    0.464676
      9          6           0       -1.959695    0.076676    0.090091
     10          1           0       -0.494109   -1.221212    0.816378
     11          1           0       -0.816879   -1.078909   -1.013202
     12          1           0       -1.823424    1.190796    1.400855
     13          1           0       -2.783850   -0.650374   -0.014307
     14          1           0       -2.058877    0.216283   -0.510773
 ---------------------------------------------------------------------

 SCF Done:  E(RB2PLYPD3) =  -157.418376160     A.U. after   12 cycles
 E2(B2PLYPD3) =    -0.2572506858D+00 E(B2PLYPD3) =    -0.15767562684627D+03

 The electronic state is 1-A.
 Alpha  occ. eigenvalues --  -10.66882 -10.64203 -10.62782 -10.61031  -0.97524
 Alpha  occ. eigenvalues --   -0.85609  -0.74835  -0.67456  -0.54066  -0.51189
 Alpha  occ. eigenvalues --   -0.48791  -0.44636  -0.41687  -0.41428  -0.36406
 Alpha  occ. eigenvalues --   -0.35383  -0.34226
 Alpha virt. eigenvalues --    0.01376   0.04037   0.05448   0.06387   0.09742
 Alpha virt. eigenvalues --    0.09944   0.11330   0.12528   0.13578   0.14207
 Alpha virt. eigenvalues --    0.15196   0.15821   0.18037   0.18904   0.20849

 Mulliken charges:
               1
     1  C   -0.177553
     2  C   -0.126026
     3  H    0.100564
     4  H    0.008469
     5  H    0.056755
     6  C    0.052627
     7  H   -0.001283
     8  H    0.140964
     9  C   -0.750682
    10  H    0.002361
    11  H    0.026919
    12  H   -0.009272
    13  H    0.088976
    14  H    0.587181
 Sum of Mulliken charges =   0.00000

 Dipole moment (field-independent basis, Debye):
    X=             -0.1234    Y=             -0.0869    Z=             -0.2218  Tot=              0.2683
 Quadrupole moment (field-independent basis, Debye-Ang):
   XX=            -29.7212   YY=            -30.2691   ZZ=            -29.4214
   XY=              2.0683   XZ=              2.8433   YZ=              0.2714

 Normal termination of Gaussian 09 at Wed Aug 26 13:49:59 2020.
