 Gaussian 09, Revision D.01,
 Gaussian 09:  ES64L-G09RevD.01 24-Apr-2013

 --------------------
 #p B2PLYPD3/Def2QZVP
 --------------------

 ----------
 butane_opt
 ----------
 Symbolic Z-matrix:
 Charge =  0 Multiplicity = 1

                         Standard orientation:
 ---------------------------------------------------------------------
 Center     Atomic      Atomic             Coordinates (Angstroms)
 Number     Number       Type             X           Y           Z
 ---------------------------------------------------------------------
      1          6           0        1.953996   -0.018215   -0.233471
      2          6           0        0.606789   -0.424424    0.205447
      3          1           0        2.685992   -0.522921   -0.106864
      4          1           0        2.051666    0.735780    0.577321
      5          1           0        1.941566    0.613015   -1.174464
      6          6           0       -0.491721    0.671661    0.177108
      7          1           0        0.557342   -1.287734    1.560707
      8          1           0        0.567072   -1.180682   -0.496667
      9          6           0       -2.023656   -0.201282   -0.128422
     10          1           0       -0.356708    1.000895   -0.473485
     11          1           0       -0.458722    1.690521    1.066527
     12          1           0       -1.755746   -0.791148   -0.965650
     13          1           0       -2.790025    0.261775   -0.926394
     14          1           0       -2.714887   -0.685944    0.814995
 ---------------------------------------------------------------------

 SCF Done:  E(RB2PLYPD3) =  -157.719244905     A.U. after   12 cycles
 E2(B2PLYPD3) =    -0.2545820669D+00 E(B2PLYPD3) =    -0.15797382697208D+03

 The electronic state is 1-A.
 Alpha  occ. eigenvalues --  -10.64714 -10.64318 -10.63075 -10.58866  -0.93216
 Alpha  occ. eigenvalues --   -0.84440  -0.74911  -0.68754  -0.54105  -0.52676
 Alpha  occ. eigenvalues --   -0.48480  -0.46978  -0.42577  -0.39421  -0.37319
 Alpha  occ. eigenvalues --   -0.36168  -0.32813
 Alpha virt. eigenvalues --    0.03855   0.05889   0.06205   0.07136   0.10434
 Alpha virt. eigenvalues --    0.11157   0.11791   0.12671   0.14242   0.14964
 Alpha virt. eigenvalues --    0.16126   0.16502   0.17954   0.18279   0.20127

 Mulliken charges:
               1
     1  C   -0.169839
     2  C    0.000721
     3  H    0.083569
     4  H    0.029021
     5  H    0.045393
     6  C   -0.479609
     7  H   -0.046966
     8  H    0.059791
     9  C   -0.177704
    10  H    0.439002
    11  H    0.049759
    12  H    0.071464
    13  H    0.024795
    14  H    0.070603
 Sum of Mulliken charges =   0.00000

 Dipole moment (field-independent basis, Debye):
    X=              0.3019    Y=              0.2670    Z=             -1.1307  Tot=              1.2004
 Quadrupole moment (field-independent basis, Debye-Ang):
   XX=            -29.2491   YY=            -30.0830   ZZ=            -28.7744
   XY=              0.2072   XZ=             -0.3269   YZ=              0.6453

 Normal termination of Gaussian 09 at Wed Aug 26 12:34:35 2020.
