 Gaussian 09, Revision D.01,
 Gaussian 09:  ES64L-G09RevD.01 24-Apr-2013

 --------------------
 #p B2PLYPD3/Def2QZVP
 --------------------

 ----------
 butane_opt
 ----------
 Symbolic Z-matrix:
 Charge =  0 Multiplicity = 1

                         Standard orientation:
 ---------------------------------------------------------------------
 Center     Atomic      Atomic             Coordinates (Angstroms)
 Number     Number       Type             X           Y           Z
 ---------------------------------------------------------------------
      1          6           0       -2.005126   -0.200318   -0.079270
      2          6           0       -0.489894    0.596488    0.018433
      3          1           0       -2.750103    0.486213   -0.296348
      4          1           0       -2.290097   -0.390795    0.695475
      5          1           0       -2.045646   -1.066939   -0.914283
      6          6           0        0.622919   -0.463281    0.337809
      7          1           0       -0.405132    1.520509    0.848588
      8          1           0       -0.489532    0.887337   -1.000478
      9          6           0        1.866880    0.104319   -0.179956
     10          1           0        0.524788   -0.857893   -0.197067
     11          1           0        0.651944   -1.089247    1.420803
     12          1           0        1.655116    0.177479   -0.966028
     13          1           0        2.694725   -0.910321   -0.856950
     14          1           0        2.485258    1.020410    0.684191
 ---------------------------------------------------------------------

 SCF Done:  E(RB2PLYPD3) =  -157.517534721     A.U. after   12 cycles
 E2(B2PLYPD3) =    -0.2526190896D+00 E(B2PLYPD3) =    -0.15777015381090D+03

 The electronic state is 1-A.
 Alpha  occ. eigenvalues --  -10.63982 -10.63066 -10.59006 -10.58605  -0.97014
 Alpha  occ. eigenvalues --   -0.84873  -0.75467  -0.70157  -0.57047  -0.50893
 Alpha  occ. eigenvalues --   -0.47224  -0.45872  -0.44290  -0.40830  -0.40508
 Alpha  occ. eigenvalues --   -0.36890  -0.32685
 Alpha virt. eigenvalues --    0.03646   0.06031   0.07113   0.08121   0.09444
 Alpha virt. eigenvalues --    0.10572   0.11837   0.13345   0.14378   0.15207
 Alpha virt. eigenvalues --    0.15557   0.17157   0.18243   0.18591   0.20569

 Mulliken charges:
               1
     1  C   -0.213293
     2  C   -0.061740
     3  H    0.036957
     4  H    0.133351
     5  H    0.040195
     6  C   -0.731636
     7  H    0.032456
     8  H    0.069715
     9  C   -0.330903
    10  H    0.652159
    11  H    0.066756
    12  H    0.274891
    13  H   -0.037666
    14  H    0.068757
 Sum of Mulliken charges =   0.00000

 Dipole moment (field-independent basis, Debye):
    X=             -0.9392    Y=              0.1717    Z=             -0.1701  Tot=              0.9698
 Quadrupole moment (field-independent basis, Debye-Ang):
   XX=            -31.9329   YY=            -29.5960   ZZ=            -27.2785
   XY=              0.7952   XZ=              0.2905   YZ=              0.8589

 Normal termination of Gaussian 09 at Wed Aug 26 22:00:21 2020.
