 Gaussian 09, Revision D.01,
 Gaussian 09:  ES64L-G09RevD.01 24-Apr-2013

 --------------------
 #p B2PLYPD3/Def2QZVP
 --------------------

 ----------
 butane_opt
 ----------
 Symbolic Z-matrix:
 Charge =  0 Multiplicity = 1

                         Standard orientation:
 ---------------------------------------------------------------------
 Center     Atomic      Atomic             Coordinates (Angstroms)
 Number     Number       Type             X           Y           Z
 ---------------------------------------------------------------------
      1          6           0       -1.935473   -0.133962    0.013641
      2          6           0       -0.507846    0.545101   -0.078260
      3          1           0       -2.651128    0.546659    0.044952
      4          1           0       -2.011759   -0.820773    0.932294
      5          1           0       -2.204033   -0.664067   -0.732703
      6          6           0        0.549762   -0.504358   -0.007594
      7          1           0       -0.543749    1.192751    0.837476
      8          1           0       -0.368101    1.193051   -1.016583
      9          6           0        1.922141    0.092482    0.038628
     10          1           0        0.435560   -1.117926   -0.822818
     11          1           0        0.450828   -1.191827    0.915515
     12          1           0        1.940097    0.578719   -0.737944
     13          1           0        2.776519   -0.713402   -0.295434
     14          1           0        2.004264    1.001244    1.076754
 ---------------------------------------------------------------------

 SCF Done:  E(RB2PLYPD3) =  -158.009351868     A.U. after   11 cycles
 E2(B2PLYPD3) =    -0.2481014679D+00 E(B2PLYPD3) =    -0.15825745333638D+03

 The electronic state is 1-A.
 Alpha  occ. eigenvalues --  -10.61682 -10.61386 -10.60009 -10.57782  -0.92045
 Alpha  occ. eigenvalues --   -0.84068  -0.73932  -0.66699  -0.54443  -0.49814
 Alpha  occ. eigenvalues --   -0.49404  -0.46588  -0.42140  -0.40396  -0.38706
 Alpha  occ. eigenvalues --   -0.37689  -0.37465
 Alpha virt. eigenvalues --    0.05113   0.06574   0.07942   0.08249   0.10676
 Alpha virt. eigenvalues --    0.11854   0.12388   0.13712   0.14360   0.15197
 Alpha virt. eigenvalues --    0.15589   0.16612   0.19485   0.19889   0.22042

 Mulliken charges:
               1
     1  C   -0.128963
     2  C   -0.051340
     3  H    0.042464
     4  H    0.033759
     5  H    0.042220
     6  C   -0.021861
     7  H    0.029924
     8  H    0.027092
     9  C   -0.207016
    10  H    0.049457
    11  H    0.020875
    12  H    0.103401
    13  H    0.032242
    14  H    0.027746
 Sum of Mulliken charges =   0.00000

 Dipole moment (field-independent basis, Debye):
    X=             -0.3838    Y=             -0.0207    Z=             -0.5750  Tot=              0.6917
 Quadrupole moment (field-independent basis, Debye-Ang):
   XX=            -30.3286   YY=            -28.9190   ZZ=            -28.0902
   XY=             -0.4294   XZ=             -0.8805   YZ=              0.3761

 Normal termination of Gaussian 09 at Wed Aug 26 11:50:14 2020.
