 Gaussian 09, Revision D.01,
 Gaussian 09:  ES64L-G09RevD.01 24-Apr-2013

 --------------------
 #p B2PLYPD3/Def2QZVP
 --------------------

 ----------
 butane_opt
 ----------
 Symbolic Z-matrix:
 Charge =  0 Multiplicity = 1

                         Standard orientation:
 ---------------------------------------------------------------------
 Center     Atomic      Atomic             Coordinates (Angstroms)
 Number     Number       Type             X           Y           Z
 ---------------------------------------------------------------------
      1          6           0        1.994312    0.141100   -0.154978
      2          6           0        0.494659   -0.515279    0.257572
      3          1           0        2.537417   -0.476413   -0.469764
      4          1           0        2.353537    0.676723    0.598317
      5          1           0        2.062868    0.818729   -1.125747
      6          6           0       -0.600937    0.375320    0.140807
      7          1           0        0.392969   -1.352816    1.310142
      8          1           0        0.550356   -0.969257   -0.451264
      9          6           0       -1.918550   -0.111897   -0.227020
     10          1           0       -0.339444    0.791757   -0.521189
     11          1           0       -0.554115    1.628479    1.243280
     12          1           0       -1.892665   -0.809255   -1.084601
     13          1           0       -2.874707    0.888506   -0.133481
     14          1           0       -2.053119   -0.531915    0.536020
 ---------------------------------------------------------------------

 SCF Done:  E(RB2PLYPD3) =  -157.691271188     A.U. after   12 cycles
 E2(B2PLYPD3) =    -0.2516278244D+00 E(B2PLYPD3) =    -0.15794289901262D+03

 The electronic state is 1-A.
 Alpha  occ. eigenvalues --  -10.61659 -10.61055 -10.60619 -10.59245  -0.96672
 Alpha  occ. eigenvalues --   -0.86244  -0.78207  -0.70019  -0.56957  -0.52647
 Alpha  occ. eigenvalues --   -0.49245  -0.47238  -0.45720  -0.41809  -0.37790
 Alpha  occ. eigenvalues --   -0.36807  -0.32620
 Alpha virt. eigenvalues --    0.02897   0.05750   0.06200   0.07772   0.10618
 Alpha virt. eigenvalues --    0.11349   0.12269   0.13444   0.14791   0.14978
 Alpha virt. eigenvalues --    0.15189   0.15575   0.18757   0.19602   0.20700

 Mulliken charges:
               1
     1  C   -0.176050
     2  C   -0.250447
     3  H    0.107351
     4  H    0.076426
     5  H    0.007900
     6  C   -0.210570
     7  H    0.014286
     8  H    0.228688
     9  C   -0.232908
    10  H    0.249211
    11  H   -0.066513
    12  H    0.061624
    13  H    0.042978
    14  H    0.148024
 Sum of Mulliken charges =   0.00000

 Dipole moment (field-independent basis, Debye):
    X=              0.5098    Y=             -0.8507    Z=             -1.0364  Tot=              1.4345
 Quadrupole moment (field-independent basis, Debye-Ang):
   XX=            -28.7560   YY=            -29.9979   ZZ=            -28.8918
   XY=              0.4334   XZ=             -0.7594   YZ=             -0.0564

 Normal termination of Gaussian 09 at Wed Aug 26 10:55:15 2020.
