 Gaussian 09, Revision D.01,
 Gaussian 09:  ES64L-G09RevD.01 24-Apr-2013

 --------------------
 #p B2PLYPD3/Def2QZVP
 --------------------

 ----------
 butane_opt
 ----------
 Symbolic Z-matrix:
 Charge =  0 Multiplicity = 1

                         Standard orientation:
 ---------------------------------------------------------------------
 Center     Atomic      Atomic             Coordinates (Angstroms)
 Number     Number       Type             X           Y           Z
 ---------------------------------------------------------------------
      1          6           0        2.004647    0.076198   -0.005418
      2          6           0        0.640688   -0.469077    0.075961
      3          1           0        2.790401   -0.879524   -0.576844
      4          1           0        2.251036    1.349589    1.122001
      5          1           0        1.948817    0.122709   -0.667545
      6          6           0       -0.547854    0.531256   -0.114870
      7          1           0        0.348183   -1.022012    1.156522
      8          1           0        0.433893   -0.945525   -0.621424
      9          6           0       -2.079003   -0.111429    0.024598
     10          1           0       -0.638563    0.910103   -1.050021
     11          1           0       -0.231006    1.291878    0.632372
     12          1           0       -1.869637   -0.569594   -0.548127
     13          1           0       -2.653028    0.268844   -0.478464
     14          1           0       -2.490964   -0.688149    1.149899
 ---------------------------------------------------------------------

 SCF Done:  E(RB2PLYPD3) =  -157.313900675     A.U. after   12 cycles
 E2(B2PLYPD3) =    -0.2560890337D+00 E(B2PLYPD3) =    -0.15756998970825D+03

 The electronic state is 1-A.
 Alpha  occ. eigenvalues --  -10.63428 -10.61528 -10.60374 -10.57058  -0.96497
 Alpha  occ. eigenvalues --   -0.91107  -0.79866  -0.68656  -0.56893  -0.51428
 Alpha  occ. eigenvalues --   -0.49339  -0.45719  -0.43358  -0.39690  -0.38734
 Alpha  occ. eigenvalues --   -0.36672  -0.33190
 Alpha virt. eigenvalues --   -0.00506   0.05235   0.06167   0.08429   0.09735
 Alpha virt. eigenvalues --    0.10217   0.12088   0.12743   0.13934   0.15397
 Alpha virt. eigenvalues --    0.16108   0.17246   0.17701   0.18992   0.19860

 Mulliken charges:
               1
     1  C   -0.769786
     2  C   -0.129680
     3  H    0.023594
     4  H    0.055883
     5  H    0.647500
     6  C   -0.045355
     7  H    0.030340
     8  H    0.135861
     9  C   -0.505500
    10  H    0.043007
    11  H    0.027462
    12  H    0.330558
    13  H    0.096994
    14  H    0.059123
 Sum of Mulliken charges =   0.00000

 Dipole moment (field-independent basis, Debye):
    X=             -0.4630    Y=             -0.0290    Z=             -1.1885  Tot=              1.2758
 Quadrupole moment (field-independent basis, Debye-Ang):
   XX=            -31.2982   YY=            -30.0893   ZZ=            -26.7067
   XY=              0.7797   XZ=             -0.2250   YZ=              1.1108

 Normal termination of Gaussian 09 at Wed Aug 26 22:37:06 2020.
