 Gaussian 09, Revision D.01,
 Gaussian 09:  ES64L-G09RevD.01 24-Apr-2013

 --------------------
 #p B2PLYPD3/Def2QZVP
 --------------------

 ----------
 butane_opt
 ----------
 Symbolic Z-matrix:
 Charge =  0 Multiplicity = 1

                         Standard orientation:
 ---------------------------------------------------------------------
 Center     Atomic      Atomic             Coordinates (Angstroms)
 Number     Number       Type             X           Y           Z
 ---------------------------------------------------------------------
      1          6           0       -1.926690    0.109142    0.048064
      2          6           0       -0.545321   -0.478353   -0.064966
      3          1           0       -2.756228   -0.668580   -0.116945
      4          1           0       -2.100321    0.580222   -0.734686
      5          1           0       -1.981337    0.739914    0.968172
      6          6           0        0.541395    0.499059    0.074354
      7          1           0       -0.511811   -1.211110   -1.117951
      8          1           0       -0.488753   -1.014823    0.653813
      9          6           0        1.991956   -0.138457   -0.009409
     10          1           0        0.396585    1.081074    0.958536
     11          1           0        0.339635    1.415229   -0.823386
     12          1           0        2.250504   -1.221405    1.038610
     13          1           0        2.711466    0.716937   -0.477663
     14          1           0        1.772225   -0.365802   -0.636761
 ---------------------------------------------------------------------

 SCF Done:  E(RB2PLYPD3) =  -157.700741934     A.U. after   11 cycles
 E2(B2PLYPD3) =    -0.2513742991D+00 E(B2PLYPD3) =    -0.15795211623348D+03

 The electronic state is 1-A.
 Alpha  occ. eigenvalues --  -10.62887 -10.61406 -10.59803 -10.58862  -0.94251
 Alpha  occ. eigenvalues --   -0.87248  -0.75913  -0.67412  -0.54753  -0.50209
 Alpha  occ. eigenvalues --   -0.48561  -0.45676  -0.42197  -0.41518  -0.39013
 Alpha  occ. eigenvalues --   -0.37114  -0.36089
 Alpha virt. eigenvalues --    0.03610   0.05597   0.07256   0.07621   0.10502
 Alpha virt. eigenvalues --    0.11315   0.12144   0.12785   0.14149   0.15218
 Alpha virt. eigenvalues --    0.15928   0.16640   0.18011   0.19646   0.21072

 Mulliken charges:
               1
     1  C   -0.154947
     2  C   -0.093263
     3  H    0.028379
     4  H    0.073525
     5  H    0.050643
     6  C   -0.018138
     7  H   -0.007402
     8  H    0.116751
     9  C   -0.679694
    10  H    0.039764
    11  H   -0.014375
    12  H    0.048002
    13  H    0.073152
    14  H    0.537605
 Sum of Mulliken charges =   0.00000

 Dipole moment (field-independent basis, Debye):
    X=             -0.4068    Y=             -0.0178    Z=             -0.0822  Tot=              0.4154
 Quadrupole moment (field-independent basis, Debye-Ang):
   XX=            -30.8029   YY=            -29.1775   ZZ=            -28.0383
   XY=              0.1673   XZ=             -0.0928   YZ=             -0.5706

 Normal termination of Gaussian 09 at Wed Aug 26 10:26:13 2020.
