 Gaussian 09, Revision D.01,
 Gaussian 09:  ES64L-G09RevD.01 24-Apr-2013

 --------------------
 #p B2PLYPD3/Def2QZVP
 --------------------

 ----------
 butane_opt
 ----------
 Symbolic Z-matrix:
 Charge =  0 Multiplicity = 1

                         Standard orientation:
 ---------------------------------------------------------------------
 Center     Atomic      Atomic             Coordinates (Angstroms)
 Number     Number       Type             X           Y           Z
 ---------------------------------------------------------------------
      1          6           0       -1.810093    0.037852    0.054569
      2          6           0       -0.571905   -0.436426   -0.060661
      3          1           0       -2.698347   -0.645298   -0.642471
      4          1           0       -1.843493    0.285740   -0.474831
      5          1           0       -2.080887    1.006452    1.470202
      6          6           0        0.527834    0.594117   -0.009994
      7          1           0       -0.454068   -1.105832   -1.130552
      8          1           0       -0.760473   -1.185593    0.815046
      9          6           0        1.881702   -0.156117    0.059878
     10          1           0        0.248157    0.910651    0.661796
     11          1           0        0.172613    1.605478   -1.066913
     12          1           0        2.367267   -1.176941    1.105191
     13          1           0        2.734185    0.694428   -0.255141
     14          1           0        2.149819   -0.625646   -0.745082
 ---------------------------------------------------------------------

 SCF Done:  E(RB2PLYPD3) =  -157.104730926     A.U. after   13 cycles
 E2(B2PLYPD3) =    -0.2620168807D+00 E(B2PLYPD3) =    -0.15736674780675D+03

 The electronic state is 1-A.
 Alpha  occ. eigenvalues --  -10.65095 -10.63059 -10.62463 -10.62343  -0.99981
 Alpha  occ. eigenvalues --   -0.88830  -0.76808  -0.69920  -0.56414  -0.51086
 Alpha  occ. eigenvalues --   -0.46666  -0.45288  -0.42990  -0.37835  -0.37357
 Alpha  occ. eigenvalues --   -0.34339  -0.33341
 Alpha virt. eigenvalues --    0.00186   0.01484   0.03961   0.05687   0.09069
 Alpha virt. eigenvalues --    0.10460   0.11076   0.11729   0.13233   0.14994
 Alpha virt. eigenvalues --    0.15298   0.16390   0.17773   0.18984   0.20086

 Mulliken charges:
               1
     1  C   -0.833291
     2  C    0.024834
     3  H    0.041863
     4  H    0.683046
     5  H    0.009368
     6  C   -0.297965
     7  H    0.014192
     8  H    0.044985
     9  C   -0.154987
    10  H    0.308281
    11  H    0.012511
    12  H    0.049563
    13  H    0.019166
    14  H    0.078434
 Sum of Mulliken charges =   0.00000

 Dipole moment (field-independent basis, Debye):
    X=              0.2271    Y=             -0.0794    Z=             -0.7707  Tot=              0.8074
 Quadrupole moment (field-independent basis, Debye-Ang):
   XX=            -31.8832   YY=            -30.3181   ZZ=            -28.4822
   XY=             -0.8807   XZ=              0.3853   YZ=              0.0009

 Normal termination of Gaussian 09 at Wed Aug 26 09:39:10 2020.
