 Gaussian 09, Revision D.01,
 Gaussian 09:  ES64L-G09RevD.01 24-Apr-2013

 --------------------
 #p B2PLYPD3/Def2QZVP
 --------------------

 ----------
 butane_opt
 ----------
 Symbolic Z-matrix:
 Charge =  0 Multiplicity = 1

                         Standard orientation:
 ---------------------------------------------------------------------
 Center     Atomic      Atomic             Coordinates (Angstroms)
 Number     Number       Type             X           Y           Z
 ---------------------------------------------------------------------
      1          6           0       -1.936008   -0.131657   -0.151973
      2          6           0       -0.540803    0.581498    0.119516
      3          1           0       -2.652373    0.458569   -0.128081
      4          1           0       -2.486822   -0.625351    0.508095
      5          1           0       -2.076273   -0.864167   -0.946620
      6          6           0        0.583286   -0.550870    0.274361
      7          1           0       -0.859255    1.317492    0.928698
      8          1           0       -0.176328    1.037759   -0.728956
      9          6           0        1.984581    0.121051   -0.141343
     10          1           0        0.348792   -1.138920   -0.537741
     11          1           0        0.561007   -1.020944    1.202582
     12          1           0        1.593827    0.607619   -1.029496
     13          1           0        2.781398   -0.645170   -0.506501
     14          1           0        2.419692    0.752985    0.634664
 ---------------------------------------------------------------------

 SCF Done:  E(RB2PLYPD3) =  -158.028461955     A.U. after   11 cycles
 E2(B2PLYPD3) =    -0.2477743642D+00 E(B2PLYPD3) =    -0.15827623631915D+03

 The electronic state is 1-A.
 Alpha  occ. eigenvalues --  -10.61630 -10.60874 -10.60284 -10.56629  -0.90352
 Alpha  occ. eigenvalues --   -0.84084  -0.74530  -0.68162  -0.55440  -0.49590
 Alpha  occ. eigenvalues --   -0.48876  -0.45580  -0.43394  -0.41637  -0.40052
 Alpha  occ. eigenvalues --   -0.37785  -0.35181
 Alpha virt. eigenvalues --    0.05938   0.06862   0.08519   0.09391   0.10707
 Alpha virt. eigenvalues --    0.11975   0.13133   0.14265   0.14813   0.15433
 Alpha virt. eigenvalues --    0.16717   0.17039   0.18957   0.19428   0.21031

 Mulliken charges:
               1
     1  C   -0.132051
     2  C   -0.070464
     3  H    0.047630
     4  H    0.017671
     5  H    0.018722
     6  C   -0.091278
     7  H    0.034163
     8  H    0.065799
     9  C   -0.167968
    10  H    0.079609
    11  H    0.053476
    12  H    0.052142
    13  H    0.034595
    14  H    0.057954
 Sum of Mulliken charges =   0.00000

 Dipole moment (field-independent basis, Debye):
    X=             -0.3298    Y=             -0.0296    Z=              0.1336  Tot=              0.3571
 Quadrupole moment (field-independent basis, Debye-Ang):
   XX=            -28.2253   YY=            -29.0113   ZZ=            -28.3279
   XY=             -0.1309   XZ=             -0.5614   YZ=              0.7095

 Normal termination of Gaussian 09 at Wed Aug 26 11:58:51 2020.
