 Gaussian 09, Revision D.01,
 Gaussian 09:  ES64L-G09RevD.01 24-Apr-2013

 --------------------
 #p B2PLYPD3/Def2QZVP
 --------------------

 ----------
 butane_opt
 ----------
 Symbolic Z-matrix:
 Charge =  0 Multiplicity = 1

                         Standard orientation:
 ---------------------------------------------------------------------
 Center     Atomic      Atomic             Coordinates (Angstroms)
 Number     Number       Type             X           Y           Z
 ---------------------------------------------------------------------
      1          6           0        1.879082    0.046035    0.070151
      2          6           0        0.503177   -0.435028    0.001745
      3          1           0        2.744591   -0.923254   -0.585711
      4          1           0        2.261333    1.191197    1.282307
      5          1           0        1.829357    0.239738   -0.501004
      6          6           0       -0.493860    0.601597   -0.146217
      7          1           0        0.591821   -0.788460    0.805409
      8          1           0        0.228420   -1.349012   -0.900361
      9          6           0       -1.916089   -0.084081    0.112279
     10          1           0       -0.387564    1.310143   -1.186967
     11          1           0       -0.371971    0.820092    0.469064
     12          1           0       -2.041521   -0.613122   -0.621417
     13          1           0       -2.508318    0.266550   -0.196009
     14          1           0       -2.180008   -0.925003    1.206942
 ---------------------------------------------------------------------

 SCF Done:  E(RB2PLYPD3) =  -156.832711387     A.U. after   13 cycles
 E2(B2PLYPD3) =    -0.2574663471D+00 E(B2PLYPD3) =    -0.15709017773384D+03

 The electronic state is 1-A.
 Alpha  occ. eigenvalues --  -10.63356 -10.59693 -10.59108 -10.57621  -0.99686
 Alpha  occ. eigenvalues --   -0.91404  -0.84249  -0.72117  -0.57994  -0.51023
 Alpha  occ. eigenvalues --   -0.47997  -0.45002  -0.41718  -0.40010  -0.39306
 Alpha  occ. eigenvalues --   -0.36940  -0.33817
 Alpha virt. eigenvalues --   -0.00261   0.04189   0.05579   0.07218   0.10022
 Alpha virt. eigenvalues --    0.10739   0.11331   0.12906   0.13682   0.15033
 Alpha virt. eigenvalues --    0.16136   0.17463   0.17915   0.19346   0.21406

 Mulliken charges:
               1
     1  C   -0.939016
     2  C   -0.038038
     3  H    0.035907
     4  H    0.044036
     5  H    0.736401
     6  C   -0.709124
     7  H    0.149189
     8  H    0.012489
     9  C   -0.407474
    10  H    0.056411
    11  H    0.655386
    12  H    0.073318
    13  H    0.285269
    14  H    0.045247
 Sum of Mulliken charges =   0.00000

 Dipole moment (field-independent basis, Debye):
    X=             -0.6568    Y=              0.2803    Z=             -0.5790  Tot=              0.9193
 Quadrupole moment (field-independent basis, Debye-Ang):
   XX=            -30.8791   YY=            -29.3545   ZZ=            -26.9572
   XY=              0.9991   XZ=              0.6342   YZ=              0.1238

 Normal termination of Gaussian 09 at Wed Aug 26 22:32:06 2020.
