 Gaussian 09, Revision D.01,
 Gaussian 09:  ES64L-G09RevD.01 24-Apr-2013

 --------------------
 #p B2PLYPD3/Def2QZVP
 --------------------

 ----------
 butane_opt
 ----------
 Symbolic Z-matrix:
 Charge =  0 Multiplicity = 1

                         Standard orientation:
 ---------------------------------------------------------------------
 Center     Atomic      Atomic             Coordinates (Angstroms)
 Number     Number       Type             X           Y           Z
 ---------------------------------------------------------------------
      1          6           0        1.997765    0.111720   -0.119418
      2          6           0        0.511569   -0.626617    0.165703
      3          1           0        2.620433   -0.604171   -0.759813
      4          1           0        2.691459    1.335772    1.130011
      5          1           0        1.951871    0.322392   -0.663200
      6          6           0       -0.667530    0.501479   -0.030738
      7          1           0        0.215222   -1.256854    1.228749
      8          1           0        0.567918   -0.841591   -0.474854
      9          6           0       -1.910929   -0.020087   -0.021338
     10          1           0       -0.516908    1.060972   -0.917671
     11          1           0       -0.509432    1.158735    0.792680
     12          1           0       -1.976008   -0.905263   -0.994404
     13          1           0       -2.630467    0.504409   -0.245502
     14          1           0       -1.999330   -0.573369    0.938748
 ---------------------------------------------------------------------

 SCF Done:  E(RB2PLYPD3) =  -157.060951873     A.U. after   12 cycles
 E2(B2PLYPD3) =    -0.2557627116D+00 E(B2PLYPD3) =    -0.15731671458443D+03

 The electronic state is 1-A.
 Alpha  occ. eigenvalues --  -10.64379 -10.61728 -10.59629 -10.59472  -0.96547
 Alpha  occ. eigenvalues --   -0.91166  -0.81304  -0.69250  -0.57676  -0.53406
 Alpha  occ. eigenvalues --   -0.48960  -0.46956  -0.43620  -0.41302  -0.38238
 Alpha  occ. eigenvalues --   -0.34476  -0.33623
 Alpha virt. eigenvalues --   -0.01018   0.05341   0.06928   0.07728   0.08936
 Alpha virt. eigenvalues --    0.10834   0.11728   0.12185   0.14169   0.15091
 Alpha virt. eigenvalues --    0.15702   0.17485   0.17766   0.18757   0.20130

 Mulliken charges:
               1
     1  C   -0.777133
     2  C   -0.703965
     3  H    0.047191
     4  H    0.001898
     5  H    0.674917
     6  C   -0.019475
     7  H    0.082377
     8  H    0.643830
     9  C   -0.128744
    10  H    0.021506
    11  H    0.058090
    12  H   -0.016289
    13  H    0.072503
    14  H    0.043293
 Sum of Mulliken charges =   0.00000

 Dipole moment (field-independent basis, Debye):
    X=             -0.8183    Y=              0.0320    Z=             -0.6606  Tot=              1.0522
 Quadrupole moment (field-independent basis, Debye-Ang):
   XX=            -32.0354   YY=            -29.7599   ZZ=            -27.0108
   XY=             -1.3618   XZ=             -2.3669   YZ=             -0.0698

 Normal termination of Gaussian 09 at Wed Aug 26 13:32:47 2020.
