 Gaussian 09, Revision D.01,
 Gaussian 09:  ES64L-G09RevD.01 24-Apr-2013

 --------------------
 #p B2PLYPD3/Def2QZVP
 --------------------

 ----------
 butane_opt
 ----------
 Symbolic Z-matrix:
 Charge =  0 Multiplicity = 1

                         Standard orientation:
 ---------------------------------------------------------------------
 Center     Atomic      Atomic             Coordinates (Angstroms)
 Number     Number       Type             X           Y           Z
 ---------------------------------------------------------------------
      1          6           0       -1.943580    0.068070   -0.136497
      2          6           0       -0.614100   -0.433969    0.184014
      3          1           0       -2.783044   -0.633398   -0.403752
      4          1           0       -1.768478    0.453136   -0.985782
      5          1           0       -2.275288    0.913979    0.787101
      6          6           0        0.551363    0.544596    0.058169
      7          1           0       -0.525541   -0.926245   -0.541651
      8          1           0       -0.620645   -1.261036    1.328204
      9          6           0        2.006648   -0.150146   -0.085695
     10          1           0        0.433137    1.384046    0.913025
     11          1           0        0.480018    1.063348   -0.834462
     12          1           0        2.295094   -0.686321    0.804335
     13          1           0        2.772186    0.598784   -0.113929
     14          1           0        1.990577   -1.077597   -1.073031
 ---------------------------------------------------------------------

 SCF Done:  E(RB2PLYPD3) =  -157.945654271     A.U. after   11 cycles
 E2(B2PLYPD3) =    -0.2499973227D+00 E(B2PLYPD3) =    -0.15819565159389D+03

 The electronic state is 1-A.
 Alpha  occ. eigenvalues --  -10.63211 -10.62576 -10.60773 -10.60618  -0.93499
 Alpha  occ. eigenvalues --   -0.83428  -0.73090  -0.66953  -0.54580  -0.49532
 Alpha  occ. eigenvalues --   -0.49404  -0.46357  -0.42293  -0.39908  -0.39246
 Alpha  occ. eigenvalues --   -0.36743  -0.35872
 Alpha virt. eigenvalues --    0.05225   0.05938   0.07440   0.08042   0.10602
 Alpha virt. eigenvalues --    0.11406   0.12241   0.13171   0.13524   0.14848
 Alpha virt. eigenvalues --    0.15593   0.16374   0.18828   0.19517   0.20832

 Mulliken charges:
               1
     1  C   -0.163767
     2  C   -0.154272
     3  H    0.049784
     4  H    0.077454
     5  H    0.017580
     6  C   -0.040910
     7  H    0.164467
     8  H   -0.009329
     9  C   -0.148649
    10  H    0.017092
    11  H    0.053910
    12  H    0.053106
    13  H    0.062791
    14  H    0.020745
 Sum of Mulliken charges =   0.00000

 Dipole moment (field-independent basis, Debye):
    X=              0.1562    Y=              0.1228    Z=             -0.6301  Tot=              0.6607
 Quadrupole moment (field-independent basis, Debye-Ang):
   XX=            -29.6842   YY=            -29.8106   ZZ=            -28.6965
   XY=              1.1396   XZ=              1.3872   YZ=              0.6566

 Normal termination of Gaussian 09 at Wed Aug 26 21:29:48 2020.
