 Gaussian 09, Revision D.01,
 Gaussian 09:  ES64L-G09RevD.01 24-Apr-2013

 --------------------
 #p B2PLYPD3/Def2QZVP
 --------------------

 ----------
 butane_opt
 ----------
 Symbolic Z-matrix:
 Charge =  0 Multiplicity = 1

                         Standard orientation:
 ---------------------------------------------------------------------
 Center     Atomic      Atomic             Coordinates (Angstroms)
 Number     Number       Type             X           Y           Z
 ---------------------------------------------------------------------
      1          6           0        1.988620   -0.157125    0.182138
      2          6           0        0.496325    0.558743   -0.221954
      3          1           0        2.953824    0.703153    0.289832
      4          1           0        2.418204   -0.836128   -0.776478
      5          1           0        2.229544   -0.831506    1.043693
      6          6           0       -0.647575   -0.458754   -0.197333
      7          1           0        0.561863    1.238761   -1.053830
      8          1           0        0.082167    1.032795    0.556538
      9          6           0       -1.919901    0.081955    0.137586
     10          1           0       -0.521960   -1.092403    0.784628
     11          1           0       -0.555905   -0.977090   -1.039190
     12          1           0       -1.965580    0.979924    1.182011
     13          1           0       -2.683217   -0.700011    0.131621
     14          1           0       -2.023751    0.333595   -0.521443
 ---------------------------------------------------------------------

 SCF Done:  E(RB2PLYPD3) =  -157.768996759     A.U. after   11 cycles
 E2(B2PLYPD3) =    -0.2512796476D+00 E(B2PLYPD3) =    -0.15802027640704D+03

 The electronic state is 1-A.
 Alpha  occ. eigenvalues --  -10.64830 -10.61277 -10.59839 -10.58046  -0.95758
 Alpha  occ. eigenvalues --   -0.83657  -0.73173  -0.67585  -0.57785  -0.51893
 Alpha  occ. eigenvalues --   -0.47005  -0.44511  -0.43386  -0.40764  -0.39032
 Alpha  occ. eigenvalues --   -0.35786  -0.35124
 Alpha virt. eigenvalues --    0.05327   0.06047   0.07895   0.08432   0.10328
 Alpha virt. eigenvalues --    0.11184   0.12202   0.13267   0.14210   0.14628
 Alpha virt. eigenvalues --    0.15262   0.16472   0.19207   0.19868   0.21425

 Mulliken charges:
               1
     1  C   -0.179792
     2  C   -0.066052
     3  H    0.019371
     4  H    0.021126
     5  H    0.065443
     6  C   -0.023999
     7  H    0.049323
     8  H    0.068601
     9  C   -0.568839
    10  H    0.024062
    11  H    0.053041
    12  H    0.045402
    13  H    0.066981
    14  H    0.425331
 Sum of Mulliken charges =   0.00000

 Dipole moment (field-independent basis, Debye):
    X=             -0.5622    Y=             -0.0312    Z=             -0.3498  Tot=              0.6628
 Quadrupole moment (field-independent basis, Debye-Ang):
   XX=            -30.0984   YY=            -29.4200   ZZ=            -27.9613
   XY=             -0.0572   XZ=              0.7180   YZ=             -0.0782

 Normal termination of Gaussian 09 at Wed Aug 26 19:14:39 2020.
