 Gaussian 09, Revision D.01,
 Gaussian 09:  ES64L-G09RevD.01 24-Apr-2013

 --------------------
 #p B2PLYPD3/Def2QZVP
 --------------------

 ----------
 butane_opt
 ----------
 Symbolic Z-matrix:
 Charge =  0 Multiplicity = 1

                         Standard orientation:
 ---------------------------------------------------------------------
 Center     Atomic      Atomic             Coordinates (Angstroms)
 Number     Number       Type             X           Y           Z
 ---------------------------------------------------------------------
      1          6           0       -1.940279    0.025581   -0.195295
      2          6           0       -0.623053   -0.330071    0.413689
      3          1           0       -2.890766   -1.104759   -0.645127
      4          1           0       -1.585205    0.291820   -1.092055
      5          1           0       -2.557013    0.978697    0.473298
      6          6           0        0.461187    0.604405   -0.093370
      7          1           0       -0.471920   -0.941543   -0.165900
      8          1           0       -0.485679   -1.007460    1.865596
      9          6           0        1.994623   -0.189029   -0.133212
     10          1           0        0.804240    1.813191    0.805003
     11          1           0        0.257371    0.698430   -0.826603
     12          1           0        2.443594   -0.284664    0.738295
     13          1           0        2.790421    0.320684   -0.198132
     14          1           0        2.340088   -1.429710   -0.905248
 ---------------------------------------------------------------------

 SCF Done:  E(RB2PLYPD3) =  -157.544363943     A.U. after   12 cycles
 E2(B2PLYPD3) =    -0.2593497376D+00 E(B2PLYPD3) =    -0.15780371368043D+03

 The electronic state is 1-A.
 Alpha  occ. eigenvalues --  -10.66491 -10.65588 -10.63482 -10.62273  -0.96939
 Alpha  occ. eigenvalues --   -0.85087  -0.78534  -0.69205  -0.54568  -0.49962
 Alpha  occ. eigenvalues --   -0.48203  -0.43616  -0.41333  -0.39857  -0.37424
 Alpha  occ. eigenvalues --   -0.35710  -0.34434
 Alpha virt. eigenvalues --    0.02086   0.03555   0.04530   0.05461   0.08705
 Alpha virt. eigenvalues --    0.10300   0.10545   0.12396   0.13409   0.14231
 Alpha virt. eigenvalues --    0.15638   0.16537   0.17283   0.18786   0.19509

 Mulliken charges:
               1
     1  C   -0.174368
     2  C   -0.240685
     3  H    0.017867
     4  H    0.086948
     5  H    0.050831
     6  C   -0.391238
     7  H    0.283801
     8  H    0.003447
     9  C   -0.179628
    10  H    0.004927
    11  H    0.387471
    12  H    0.062039
    13  H    0.082993
    14  H    0.005596
 Sum of Mulliken charges =   0.00000

 Dipole moment (field-independent basis, Debye):
    X=              0.4850    Y=              0.3761    Z=             -0.4647  Tot=              0.7698
 Quadrupole moment (field-independent basis, Debye-Ang):
   XX=            -29.9552   YY=            -30.8146   ZZ=            -29.8354
   XY=              0.3137   XZ=              1.8019   YZ=              1.0981

 Normal termination of Gaussian 09 at Wed Aug 26 19:16:59 2020.
