 Gaussian 09, Revision D.01,
 Gaussian 09:  ES64L-G09RevD.01 24-Apr-2013

 --------------------
 #p B2PLYPD3/Def2QZVP
 --------------------

 ----------
 butane_opt
 ----------
 Symbolic Z-matrix:
 Charge =  0 Multiplicity = 1

                         Standard orientation:
 ---------------------------------------------------------------------
 Center     Atomic      Atomic             Coordinates (Angstroms)
 Number     Number       Type             X           Y           Z
 ---------------------------------------------------------------------
      1          6           0       -1.926532   -0.194396   -0.106663
      2          6           0       -0.482490    0.614567   -0.043513
      3          1           0       -2.602294    0.352461    0.141982
      4          1           0       -2.132555   -0.294666    0.622553
      5          1           0       -2.059581   -1.056946   -0.994501
      6          6           0        0.566303   -0.427864    0.291219
      7          1           0       -0.342228    1.675193    0.869811
      8          1           0       -0.403182    0.971756   -0.899532
      9          6           0        1.883626    0.047181   -0.173394
     10          1           0        0.259534   -1.031759   -0.395567
     11          1           0        0.281471   -1.154536    1.649431
     12          1           0        1.548839    0.408485   -1.018412
     13          1           0        2.722837   -1.015686   -0.543431
     14          1           0        2.481718    0.908768    0.761777
 ---------------------------------------------------------------------

 SCF Done:  E(RB2PLYPD3) =  -157.631272817     A.U. after   11 cycles
 E2(B2PLYPD3) =    -0.2558444361D+00 E(B2PLYPD3) =    -0.15788711725329D+03

 The electronic state is 1-A.
 Alpha  occ. eigenvalues --  -10.65091 -10.63406 -10.63282 -10.57347  -0.95386
 Alpha  occ. eigenvalues --   -0.90630  -0.76637  -0.66791  -0.54383  -0.50487
 Alpha  occ. eigenvalues --   -0.48975  -0.46481  -0.40498  -0.39015  -0.37980
 Alpha  occ. eigenvalues --   -0.35917  -0.34396
 Alpha virt. eigenvalues --    0.03236   0.05656   0.06364   0.07128   0.09195
 Alpha virt. eigenvalues --    0.09588   0.11625   0.13670   0.14357   0.15164
 Alpha virt. eigenvalues --    0.15567   0.16132   0.18238   0.18746   0.19900

 Mulliken charges:
               1
     1  C   -0.471490
     2  C   -0.117590
     3  H    0.087886
     4  H    0.312375
     5  H    0.074309
     6  C   -0.069519
     7  H   -0.013323
     8  H    0.115486
     9  C   -0.197447
    10  H    0.116157
    11  H   -0.012017
    12  H    0.108171
    13  H    0.022664
    14  H    0.044338
 Sum of Mulliken charges =   0.00000

 Dipole moment (field-independent basis, Debye):
    X=             -0.7856    Y=             -0.0322    Z=             -0.6225  Tot=              1.0028
 Quadrupole moment (field-independent basis, Debye-Ang):
   XX=            -30.2107   YY=            -30.4602   ZZ=            -28.5245
   XY=              0.6502   XZ=             -1.0751   YZ=              1.3197

 Normal termination of Gaussian 09 at Wed Aug 26 21:14:09 2020.
