 Gaussian 09, Revision D.01,
 Gaussian 09:  ES64L-G09RevD.01 24-Apr-2013

 --------------------
 #p B2PLYPD3/Def2QZVP
 --------------------

 ----------
 butane_opt
 ----------
 Symbolic Z-matrix:
 Charge =  0 Multiplicity = 1

                         Standard orientation:
 ---------------------------------------------------------------------
 Center     Atomic      Atomic             Coordinates (Angstroms)
 Number     Number       Type             X           Y           Z
 ---------------------------------------------------------------------
      1          6           0        1.907940    0.100523    0.098635
      2          6           0        0.626326   -0.523295   -0.081831
      3          1           0        2.627529   -0.570648    0.075814
      4          1           0        2.051019    0.941222    1.027002
      5          1           0        2.189469    0.545198   -0.721270
      6          6           0       -0.550978    0.509862   -0.260136
      7          1           0        0.725637   -1.057622    0.788564
      8          1           0        0.672373   -1.182452   -0.943768
      9          6           0       -2.042909   -0.120721    0.124808
     10          1           0       -0.460649    1.225930   -1.201738
     11          1           0       -0.434415    1.339893    0.838250
     12          1           0       -2.719379   -0.815500   -0.817745
     13          1           0       -2.673244    0.451198    0.502551
     14          1           0       -1.620621   -0.675431    1.163484
 ---------------------------------------------------------------------

 SCF Done:  E(RB2PLYPD3) =  -157.941369460     A.U. after   11 cycles
 E2(B2PLYPD3) =    -0.2517178887D+00 E(B2PLYPD3) =    -0.15819308734909D+03

 The electronic state is 1-A.
 Alpha  occ. eigenvalues --  -10.66379 -10.63432 -10.60070 -10.58162  -0.92121
 Alpha  occ. eigenvalues --   -0.82557  -0.73365  -0.66194  -0.54268  -0.50680
 Alpha  occ. eigenvalues --   -0.49263  -0.44910  -0.41773  -0.39238  -0.38458
 Alpha  occ. eigenvalues --   -0.37550  -0.34670
 Alpha virt. eigenvalues --    0.05042   0.06277   0.07406   0.08127   0.09649
 Alpha virt. eigenvalues --    0.11443   0.11851   0.13344   0.14088   0.14394
 Alpha virt. eigenvalues --    0.15718   0.16720   0.17930   0.19793   0.21219

 Mulliken charges:
               1
     1  C   -0.124146
     2  C   -0.002055
     3  H    0.040440
     4  H    0.024956
     5  H    0.029915
     6  C   -0.085119
     7  H    0.055387
     8  H    0.026916
     9  C   -0.188443
    10  H    0.058010
    11  H   -0.008224
    12  H    0.030182
    13  H    0.105103
    14  H    0.037078
 Sum of Mulliken charges =   0.00000

 Dipole moment (field-independent basis, Debye):
    X=              0.3418    Y=             -0.0706    Z=             -0.2369  Tot=              0.4218
 Quadrupole moment (field-independent basis, Debye-Ang):
   XX=            -29.1414   YY=            -30.2187   ZZ=            -28.2681
   XY=             -1.5105   XZ=             -0.3698   YZ=              0.1604

 Normal termination of Gaussian 09 at Wed Aug 26 11:30:41 2020.
