 Gaussian 09, Revision D.01,
 Gaussian 09:  ES64L-G09RevD.01 24-Apr-2013

 --------------------
 #p B2PLYPD3/Def2QZVP
 --------------------

 ----------
 butane_opt
 ----------
 Symbolic Z-matrix:
 Charge =  0 Multiplicity = 1

                         Standard orientation:
 ---------------------------------------------------------------------
 Center     Atomic      Atomic             Coordinates (Angstroms)
 Number     Number       Type             X           Y           Z
 ---------------------------------------------------------------------
      1          6           0        1.910325    0.097302   -0.134612
      2          6           0        0.600385   -0.544782    0.072336
      3          1           0        2.814640   -0.817304   -0.043855
      4          1           0        2.242494    0.613907    0.691746
      5          1           0        2.018275    0.675851   -0.955717
      6          6           0       -0.513102    0.641445    0.218852
      7          1           0        0.848963   -1.195961    0.818640
      8          1           0        0.331164   -1.006927   -0.567660
      9          6           0       -2.072076   -0.152333   -0.137013
     10          1           0       -0.219608    1.246095   -0.713013
     11          1           0       -0.307494    1.316242    1.019631
     12          1           0       -1.993947   -0.589155   -0.812818
     13          1           0       -2.614973    0.411792   -0.447563
     14          1           0       -2.672705   -0.904333    0.893231
 ---------------------------------------------------------------------

 SCF Done:  E(RB2PLYPD3) =  -157.787849342     A.U. after   11 cycles
 E2(B2PLYPD3) =    -0.2479663325D+00 E(B2PLYPD3) =    -0.15803581567442D+03

 The electronic state is 1-A.
 Alpha  occ. eigenvalues --  -10.63548 -10.59547 -10.58845 -10.56855  -0.91688
 Alpha  occ. eigenvalues --   -0.86411  -0.75435  -0.71095  -0.56169  -0.51217
 Alpha  occ. eigenvalues --   -0.47657  -0.45643  -0.44829  -0.42338  -0.41103
 Alpha  occ. eigenvalues --   -0.37743  -0.33789
 Alpha virt. eigenvalues --    0.05470   0.05949   0.08373   0.09546   0.10523
 Alpha virt. eigenvalues --    0.11449   0.12256   0.13239   0.15278   0.15939
 Alpha virt. eigenvalues --    0.16345   0.16717   0.18372   0.19657   0.20030

 Mulliken charges:
               1
     1  C   -0.123099
     2  C   -0.135629
     3  H   -0.005565
     4  H    0.047598
     5  H    0.052479
     6  C   -0.107597
     7  H    0.028383
     8  H    0.153923
     9  C   -0.375810
    10  H    0.024504
    11  H    0.071773
    12  H    0.199497
    13  H    0.137956
    14  H    0.031586
 Sum of Mulliken charges =   0.00000

 Dipole moment (field-independent basis, Debye):
    X=             -0.0988    Y=              0.1938    Z=             -0.3920  Tot=              0.4483
 Quadrupole moment (field-independent basis, Debye-Ang):
   XX=            -29.9499   YY=            -28.3157   ZZ=            -27.7330
   XY=              0.4744   XZ=              1.7707   YZ=             -0.1040

 Normal termination of Gaussian 09 at Wed Aug 26 16:25:16 2020.
