 Gaussian 09, Revision D.01,
 Gaussian 09:  ES64L-G09RevD.01 24-Apr-2013

 --------------------
 #p B2PLYPD3/Def2QZVP
 --------------------

 ----------
 butane_opt
 ----------
 Symbolic Z-matrix:
 Charge =  0 Multiplicity = 1

                         Standard orientation:
 ---------------------------------------------------------------------
 Center     Atomic      Atomic             Coordinates (Angstroms)
 Number     Number       Type             X           Y           Z
 ---------------------------------------------------------------------
      1          6           0        1.951079    0.135708   -0.080198
      2          6           0        0.495514   -0.534831    0.048416
      3          1           0        2.728067   -0.530738    0.473997
      4          1           0        1.869893    0.269127    0.550793
      5          1           0        2.313502    1.107745   -1.215459
      6          6           0       -0.519119    0.537234    0.075279
      7          1           0        0.517161   -1.376402    1.013246
      8          1           0        0.158535   -1.248439   -0.759074
      9          6           0       -1.898281   -0.130360   -0.136341
     10          1           0       -0.378789    0.822055   -0.557612
     11          1           0       -0.640166    1.518168    1.183311
     12          1           0       -1.985189   -0.764417   -0.936615
     13          1           0       -2.676887    0.717114    0.129235
     14          1           0       -2.081281   -0.560716    0.675236
 ---------------------------------------------------------------------

 SCF Done:  E(RB2PLYPD3) =  -157.340450090     A.U. after   12 cycles
 E2(B2PLYPD3) =    -0.2545870078D+00 E(B2PLYPD3) =    -0.15759503709802D+03

 The electronic state is 1-A.
 Alpha  occ. eigenvalues --  -10.64253 -10.61065 -10.60249 -10.58471  -0.96268
 Alpha  occ. eigenvalues --   -0.89455  -0.77993  -0.69234  -0.54820  -0.49506
 Alpha  occ. eigenvalues --   -0.48791  -0.46083  -0.43052  -0.40649  -0.36932
 Alpha  occ. eigenvalues --   -0.36352  -0.36210
 Alpha virt. eigenvalues --    0.03754   0.04630   0.06245   0.07051   0.10484
 Alpha virt. eigenvalues --    0.11426   0.12175   0.12541   0.14520   0.15319
 Alpha virt. eigenvalues --    0.16363   0.16517   0.17192   0.19004   0.20915

 Mulliken charges:
               1
     1  C   -0.826501
     2  C    0.019872
     3  H    0.051087
     4  H    0.672614
     5  H    0.069107
     6  C   -0.560367
     7  H   -0.003993
     8  H    0.034247
     9  C   -0.146968
    10  H    0.509400
    11  H    0.007584
    12  H    0.061018
    13  H    0.029660
    14  H    0.083240
 Sum of Mulliken charges =   0.00000

 Dipole moment (field-independent basis, Debye):
    X=             -0.2322    Y=             -0.1572    Z=              0.1152  Tot=              0.3032
 Quadrupole moment (field-independent basis, Debye-Ang):
   XX=            -30.6574   YY=            -29.2315   ZZ=            -27.6859
   XY=              0.9104   XZ=              0.3944   YZ=             -0.5664

 Normal termination of Gaussian 09 at Wed Aug 26 15:17:58 2020.
