 Gaussian 09, Revision D.01,
 Gaussian 09:  ES64L-G09RevD.01 24-Apr-2013

 --------------------
 #p B2PLYPD3/Def2QZVP
 --------------------

 ----------
 butane_opt
 ----------
 Symbolic Z-matrix:
 Charge =  0 Multiplicity = 1

                         Standard orientation:
 ---------------------------------------------------------------------
 Center     Atomic      Atomic             Coordinates (Angstroms)
 Number     Number       Type             X           Y           Z
 ---------------------------------------------------------------------
      1          6           0        1.829145   -0.113386   -0.055288
      2          6           0        0.600587    0.454844   -0.083659
      3          1           0        2.585998    0.787904    0.235625
      4          1           0        2.004167   -1.057631   -1.077752
      5          1           0        1.854959   -0.385467    0.643155
      6          6           0       -0.505208   -0.530189    0.139535
      7          1           0        0.436252    0.905083   -0.701986
      8          1           0        0.704848    1.480253    0.893347
      9          6           0       -1.879374    0.137445   -0.009677
     10          1           0       -0.185823   -1.322986    1.227631
     11          1           0       -0.412652   -1.035712   -0.602716
     12          1           0       -2.328702    0.877624    0.734928
     13          1           0       -2.734875   -0.752700   -0.182681
     14          1           0       -2.195070    0.811350   -1.115016
 ---------------------------------------------------------------------

 SCF Done:  E(RB2PLYPD3) =  -157.633935376     A.U. after   11 cycles
 E2(B2PLYPD3) =    -0.2527993659D+00 E(B2PLYPD3) =    -0.15788673474197D+03

 The electronic state is 1-A.
 Alpha  occ. eigenvalues --  -10.65158 -10.62473 -10.59263 -10.59130  -0.97511
 Alpha  occ. eigenvalues --   -0.86170  -0.75459  -0.70039  -0.54855  -0.52015
 Alpha  occ. eigenvalues --   -0.48827  -0.46096  -0.43236  -0.42400  -0.38647
 Alpha  occ. eigenvalues --   -0.35658  -0.33845
 Alpha virt. eigenvalues --    0.04413   0.05155   0.05553   0.07093   0.10537
 Alpha virt. eigenvalues --    0.10760   0.12202   0.12546   0.14128   0.14361
 Alpha virt. eigenvalues --    0.15557   0.16139   0.18968   0.19588   0.20674

 Mulliken charges:
               1
     1  C   -0.420188
     2  C   -0.221296
     3  H    0.044743
     4  H    0.024734
     5  H    0.350682
     6  C   -0.093298
     7  H    0.250560
     8  H   -0.047038
     9  C   -0.159665
    10  H    0.016482
    11  H    0.146465
    12  H    0.068235
    13  H    0.026913
    14  H    0.012671
 Sum of Mulliken charges =   0.00000

 Dipole moment (field-independent basis, Debye):
    X=             -0.1733    Y=             -0.1456    Z=             -0.2170  Tot=              0.3135
 Quadrupole moment (field-independent basis, Debye-Ang):
   XX=            -30.9040   YY=            -29.5022   ZZ=            -28.8952
   XY=             -0.2625   XZ=              1.1718   YZ=              0.2078

 Normal termination of Gaussian 09 at Wed Aug 26 19:40:14 2020.
