 Gaussian 09, Revision D.01,
 Gaussian 09:  ES64L-G09RevD.01 24-Apr-2013

 --------------------
 #p B2PLYPD3/Def2QZVP
 --------------------

 ----------
 butane_opt
 ----------
 Symbolic Z-matrix:
 Charge =  0 Multiplicity = 1

                         Standard orientation:
 ---------------------------------------------------------------------
 Center     Atomic      Atomic             Coordinates (Angstroms)
 Number     Number       Type             X           Y           Z
 ---------------------------------------------------------------------
      1          6           0        1.964916   -0.170697   -0.160199
      2          6           0        0.604790    0.605780    0.103707
      3          1           0        2.639885    0.519143   -0.007371
      4          1           0        2.206540   -1.165130   -1.127111
      5          1           0        2.222536   -0.473950    0.505224
      6          6           0       -0.612904   -0.527121    0.248107
      7          1           0        0.526517    1.040553   -0.615476
      8          1           0        0.636209    1.521740    1.078430
      9          6           0       -1.998106    0.069920   -0.142464
     10          1           0       -0.647675   -1.362643    1.418513
     11          1           0       -0.271297   -0.931783   -0.310771
     12          1           0       -2.412776    0.739680    0.690133
     13          1           0       -2.778799   -0.618761   -0.694661
     14          1           0       -1.873316    0.863857   -1.231812
 ---------------------------------------------------------------------

 SCF Done:  E(RB2PLYPD3) =  -157.613982227     A.U. after   11 cycles
 E2(B2PLYPD3) =    -0.2524901053D+00 E(B2PLYPD3) =    -0.15786647233209D+03

 The electronic state is 1-A.
 Alpha  occ. eigenvalues --  -10.64741 -10.62240 -10.61928 -10.58482  -0.92584
 Alpha  occ. eigenvalues --   -0.85940  -0.75900  -0.71072  -0.52299  -0.48728
 Alpha  occ. eigenvalues --   -0.46762  -0.45934  -0.43310  -0.41548  -0.39314
 Alpha  occ. eigenvalues --   -0.36470  -0.34392
 Alpha virt. eigenvalues --    0.04960   0.05245   0.06052   0.07479   0.10830
 Alpha virt. eigenvalues --    0.11204   0.11532   0.13546   0.13879   0.14432
 Alpha virt. eigenvalues --    0.15602   0.16354   0.18096   0.19197   0.20583

 Mulliken charges:
               1
     1  C   -0.391439
     2  C   -0.170907
     3  H    0.048625
     4  H    0.044268
     5  H    0.261630
     6  C   -0.400540
     7  H    0.212724
     8  H    0.005743
     9  C   -0.140374
    10  H    0.014511
    11  H    0.386538
    12  H    0.074982
    13  H    0.058272
    14  H   -0.004035
 Sum of Mulliken charges =   0.00000

 Dipole moment (field-independent basis, Debye):
    X=              0.2953    Y=             -0.0257    Z=             -0.0768  Tot=              0.3062
 Quadrupole moment (field-independent basis, Debye-Ang):
   XX=            -28.8318   YY=            -29.1322   ZZ=            -28.9036
   XY=             -0.0513   XZ=              0.8316   YZ=              0.8975

 Normal termination of Gaussian 09 at Wed Aug 26 11:02:39 2020.
