 Gaussian 09, Revision D.01,
 Gaussian 09:  ES64L-G09RevD.01 24-Apr-2013

 --------------------
 #p B2PLYPD3/Def2QZVP
 --------------------

 ----------
 butane_opt
 ----------
 Symbolic Z-matrix:
 Charge =  0 Multiplicity = 1

                         Standard orientation:
 ---------------------------------------------------------------------
 Center     Atomic      Atomic             Coordinates (Angstroms)
 Number     Number       Type             X           Y           Z
 ---------------------------------------------------------------------
      1          6           0        2.118415   -0.207444   -0.102753
      2          6           0        0.540410    0.635604    0.134286
      3          1           0        2.830043    0.436225   -0.266501
      4          1           0        1.907573   -1.086515   -1.073892
      5          1           0        2.292304   -0.501398    0.539355
      6          6           0       -0.637936   -0.410274    0.332306
      7          1           0        0.176149    1.214414   -0.922839
      8          1           0        0.419210    1.399744    0.844846
      9          6           0       -1.958794    0.001671   -0.236393
     10          1           0       -0.833593   -1.078203    1.668837
     11          1           0       -0.144948   -0.989318   -0.373824
     12          1           0       -2.718867    0.984901    0.515982
     13          1           0       -2.787824   -0.858968   -0.715576
     14          1           0       -1.512620    0.361777   -0.981069
 ---------------------------------------------------------------------

 SCF Done:  E(RB2PLYPD3) =  -157.689963672     A.U. after   12 cycles
 E2(B2PLYPD3) =    -0.2553574666D+00 E(B2PLYPD3) =    -0.15794532113823D+03

 The electronic state is 1-A.
 Alpha  occ. eigenvalues --  -10.64986 -10.64468 -10.63698 -10.60600  -0.91672
 Alpha  occ. eigenvalues --   -0.86365  -0.75612  -0.64875  -0.53894  -0.52242
 Alpha  occ. eigenvalues --   -0.48501  -0.45113  -0.42043  -0.41303  -0.38019
 Alpha  occ. eigenvalues --   -0.34880  -0.34453
 Alpha virt. eigenvalues --    0.04364   0.05311   0.06008   0.08509   0.09105
 Alpha virt. eigenvalues --    0.10057   0.11798   0.13385   0.13963   0.14676
 Alpha virt. eigenvalues --    0.15881   0.16233   0.17416   0.18581   0.19807

 Mulliken charges:
               1
     1  C   -0.426629
     2  C   -0.094847
     3  H    0.069356
     4  H    0.044525
     5  H    0.349376
     6  C   -0.079897
     7  H    0.009969
     8  H    0.071640
     9  C   -0.191985
    10  H   -0.011655
    11  H    0.088312
    12  H    0.015196
    13  H    0.045606
    14  H    0.111032
 Sum of Mulliken charges =   0.00000

 Dipole moment (field-independent basis, Debye):
    X=              0.8975    Y=              0.1592    Z=             -0.5014  Tot=              1.0403
 Quadrupole moment (field-independent basis, Debye-Ang):
   XX=            -28.9227   YY=            -30.1711   ZZ=            -29.4874
   XY=              0.1834   XZ=              0.8948   YZ=              1.2007

 Normal termination of Gaussian 09 at Wed Aug 26 22:27:37 2020.
