 Gaussian 09, Revision D.01,
 Gaussian 09:  ES64L-G09RevD.01 24-Apr-2013

 --------------------
 #p B2PLYPD3/Def2QZVP
 --------------------

 ----------
 butane_opt
 ----------
 Symbolic Z-matrix:
 Charge =  0 Multiplicity = 1

                         Standard orientation:
 ---------------------------------------------------------------------
 Center     Atomic      Atomic             Coordinates (Angstroms)
 Number     Number       Type             X           Y           Z
 ---------------------------------------------------------------------
      1          6           0       -1.953109    0.026408   -0.123855
      2          6           0       -0.705778   -0.404932    0.213802
      3          1           0       -2.700511   -0.674985   -0.504960
      4          1           0       -1.694210    0.312541   -0.915380
      5          1           0       -2.466477    0.854367    0.774711
      6          6           0        0.578618    0.590781    0.018929
      7          1           0       -0.434097   -1.122337   -0.525510
      8          1           0       -0.654485   -0.784120    1.021327
      9          6           0        2.077504   -0.182332   -0.063693
     10          1           0        0.444007    1.350852    0.817771
     11          1           0        0.372977    1.145398   -0.837456
     12          1           0        2.161111   -0.796213    0.919762
     13          1           0        2.848543    0.449833   -0.330374
     14          1           0        2.139734   -0.914886   -0.690994
 ---------------------------------------------------------------------

 SCF Done:  E(RB2PLYPD3) =  -157.938883315     A.U. after   11 cycles
 E2(B2PLYPD3) =    -0.2473427302D+00 E(B2PLYPD3) =    -0.15818622604520D+03

 The electronic state is 1-A.
 Alpha  occ. eigenvalues --  -10.61631 -10.60153 -10.58352 -10.57160  -0.94240
 Alpha  occ. eigenvalues --   -0.83857  -0.75010  -0.69376  -0.55765  -0.50863
 Alpha  occ. eigenvalues --   -0.49586  -0.47463  -0.43540  -0.42333  -0.39420
 Alpha  occ. eigenvalues --   -0.38544  -0.33626
 Alpha virt. eigenvalues --    0.05693   0.06732   0.08621   0.08956   0.10587
 Alpha virt. eigenvalues --    0.11816   0.12781   0.13161   0.14686   0.15638
 Alpha virt. eigenvalues --    0.15886   0.17246   0.18682   0.20017   0.20721

 Mulliken charges:
               1
     1  C   -0.217574
     2  C   -0.060813
     3  H    0.046664
     4  H    0.117509
     5  H    0.021280
     6  C   -0.073333
     7  H    0.019386
     8  H    0.083366
     9  C   -0.146484
    10  H    0.026773
    11  H    0.037274
    12  H    0.033805
    13  H    0.058672
    14  H    0.053473
 Sum of Mulliken charges =   0.00000

 Dipole moment (field-independent basis, Debye):
    X=              0.2378    Y=             -0.3636    Z=             -0.4505  Tot=              0.6258
 Quadrupole moment (field-independent basis, Debye-Ang):
   XX=            -29.3252   YY=            -28.9068   ZZ=            -27.7722
   XY=              0.3041   XZ=             -0.4328   YZ=              0.2872

 Normal termination of Gaussian 09 at Wed Aug 26 13:50:44 2020.
