 Gaussian 09, Revision D.01,
 Gaussian 09:  ES64L-G09RevD.01 24-Apr-2013

 --------------------
 #p B2PLYPD3/Def2QZVP
 --------------------

 ----------
 butane_opt
 ----------
 Symbolic Z-matrix:
 Charge =  0 Multiplicity = 1

                         Standard orientation:
 ---------------------------------------------------------------------
 Center     Atomic      Atomic             Coordinates (Angstroms)
 Number     Number       Type             X           Y           Z
 ---------------------------------------------------------------------
      1          6           0        1.915385   -0.182179   -0.137364
      2          6           0        0.488414    0.541505    0.177641
      3          1           0        2.742623    0.396708   -0.252409
      4          1           0        1.910270   -1.147730   -1.063694
      5          1           0        2.327316   -0.356690    0.557662
      6          6           0       -0.598832   -0.435394    0.215614
      7          1           0        0.173585    1.201899   -0.716169
      8          1           0        0.634835    1.391619    0.996604
      9          6           0       -1.792917    0.085915   -0.181062
     10          1           0       -0.650742   -1.149465    1.360695
     11          1           0       -0.431436   -0.845159   -0.358802
     12          1           0       -2.428049    0.567484    0.505629
     13          1           0       -2.683867   -0.765100   -0.291944
     14          1           0       -1.666835    0.647348   -1.186549
 ---------------------------------------------------------------------

 SCF Done:  E(RB2PLYPD3) =  -157.719455454     A.U. after   11 cycles
 E2(B2PLYPD3) =    -0.2503287057D+00 E(B2PLYPD3) =    -0.15796978415923D+03

 The electronic state is 1-A.
 Alpha  occ. eigenvalues --  -10.63062 -10.60575 -10.59137 -10.57962  -0.97147
 Alpha  occ. eigenvalues --   -0.86516  -0.75927  -0.69691  -0.55021  -0.52507
 Alpha  occ. eigenvalues --   -0.48883  -0.46952  -0.42599  -0.40304  -0.38638
 Alpha  occ. eigenvalues --   -0.36696  -0.35694
 Alpha virt. eigenvalues --    0.05546   0.06400   0.06826   0.08131   0.10602
 Alpha virt. eigenvalues --    0.11590   0.12558   0.13964   0.14711   0.15518
 Alpha virt. eigenvalues --    0.16030   0.16461   0.18803   0.19547   0.21150

 Mulliken charges:
               1
     1  C   -0.268016
     2  C    0.011115
     3  H    0.036590
     4  H    0.028922
     5  H    0.161340
     6  C   -0.494016
     7  H    0.019743
     8  H    0.021197
     9  C   -0.107870
    10  H    0.017110
    11  H    0.484471
    12  H    0.043767
    13  H    0.003587
    14  H    0.042060
 Sum of Mulliken charges =   0.00000

 Dipole moment (field-independent basis, Debye):
    X=              0.2638    Y=              0.2276    Z=              0.1429  Tot=              0.3766
 Quadrupole moment (field-independent basis, Debye-Ang):
   XX=            -27.9095   YY=            -29.6295   ZZ=            -28.7408
   XY=              0.1702   XZ=              0.5400   YZ=              0.5234

 Normal termination of Gaussian 09 at Wed Aug 26 12:29:02 2020.
