 Gaussian 09, Revision D.01,
 Gaussian 09:  ES64L-G09RevD.01 24-Apr-2013

 --------------------
 #p B2PLYPD3/Def2QZVP
 --------------------

 ----------
 butane_opt
 ----------
 Symbolic Z-matrix:
 Charge =  0 Multiplicity = 1

                         Standard orientation:
 ---------------------------------------------------------------------
 Center     Atomic      Atomic             Coordinates (Angstroms)
 Number     Number       Type             X           Y           Z
 ---------------------------------------------------------------------
      1          6           0        1.925461    0.092001    0.040540
      2          6           0        0.610108   -0.427421   -0.074983
      3          1           0        2.743227   -0.804108   -0.029062
      4          1           0        1.844565    0.821968    1.079059
      5          1           0        2.097779    0.635666   -0.743514
      6          6           0       -0.541005    0.523504   -0.037869
      7          1           0        0.422755   -1.235169    0.841896
      8          1           0        0.398767   -1.064145   -0.895322
      9          6           0       -1.965916   -0.133830    0.039513
     10          1           0       -0.438931    1.297959   -1.052722
     11          1           0       -0.440275    1.065334    0.767295
     12          1           0       -2.253012   -0.784884   -0.814751
     13          1           0       -2.608652    0.454428    0.204616
     14          1           0       -1.938116   -0.712574    0.839302
 ---------------------------------------------------------------------

 SCF Done:  E(RB2PLYPD3) =  -157.997821243     A.U. after   11 cycles
 E2(B2PLYPD3) =    -0.2473431942D+00 E(B2PLYPD3) =    -0.15824516443708D+03

 The electronic state is 1-A.
 Alpha  occ. eigenvalues --  -10.61215 -10.61125 -10.60442 -10.56934  -0.92829
 Alpha  occ. eigenvalues --   -0.85570  -0.74861  -0.66140  -0.54762  -0.51536
 Alpha  occ. eigenvalues --   -0.49666  -0.47937  -0.43640  -0.41353  -0.39667
 Alpha  occ. eigenvalues --   -0.37727  -0.34947
 Alpha virt. eigenvalues --    0.05364   0.06862   0.07544   0.08376   0.10723
 Alpha virt. eigenvalues --    0.11979   0.12872   0.14186   0.14653   0.15242
 Alpha virt. eigenvalues --    0.15577   0.16329   0.19459   0.19848   0.21908

 Mulliken charges:
               1
     1  C   -0.163227
     2  C   -0.002103
     3  H    0.045088
     4  H    0.031036
     5  H    0.073239
     6  C   -0.054291
     7  H   -0.012349
     8  H    0.035724
     9  C   -0.159402
    10  H   -0.014888
    11  H    0.062461
    12  H    0.030964
    13  H    0.081997
    14  H    0.045754
 Sum of Mulliken charges =   0.00000

 Dipole moment (field-independent basis, Debye):
    X=             -0.2413    Y=             -0.0472    Z=             -0.0312  Tot=              0.2478
 Quadrupole moment (field-independent basis, Debye-Ang):
   XX=            -29.1245   YY=            -29.3245   ZZ=            -28.3540
   XY=             -0.3863   XZ=             -1.2074   YZ=              0.6425

 Normal termination of Gaussian 09 at Wed Aug 26 22:17:08 2020.
