 Gaussian 09, Revision D.01,
 Gaussian 09:  ES64L-G09RevD.01 24-Apr-2013

 --------------------
 #p B2PLYPD3/Def2QZVP
 --------------------

 ----------
 butane_opt
 ----------
 Symbolic Z-matrix:
 Charge =  0 Multiplicity = 1

                         Standard orientation:
 ---------------------------------------------------------------------
 Center     Atomic      Atomic             Coordinates (Angstroms)
 Number     Number       Type             X           Y           Z
 ---------------------------------------------------------------------
      1          6           0       -1.911857   -0.132545   -0.095391
      2          6           0       -0.528401    0.519902    0.147498
      3          1           0       -2.646724    0.527048   -0.528426
      4          1           0       -2.332084   -0.840250    0.854760
      5          1           0       -1.939829   -0.722455   -0.973924
      6          6           0        0.537673   -0.452048    0.088768
      7          1           0       -0.557109    1.426283    1.103718
      8          1           0       -0.267919    1.044254   -0.641439
      9          6           0        1.918926    0.120683   -0.132250
     10          1           0        0.382375   -1.000068   -0.687636
     11          1           0        0.599440   -1.276128    1.138684
     12          1           0        1.950244    0.620214   -0.933134
     13          1           0        2.710456   -0.745195   -0.105680
     14          1           0        2.003104    0.630347    0.721327
 ---------------------------------------------------------------------

 SCF Done:  E(RB2PLYPD3) =  -157.993727081     A.U. after   11 cycles
 E2(B2PLYPD3) =    -0.2484173652D+00 E(B2PLYPD3) =    -0.15824214444616D+03

 The electronic state is 1-A.
 Alpha  occ. eigenvalues --  -10.61730 -10.61401 -10.60612 -10.57855  -0.93926
 Alpha  occ. eigenvalues --   -0.84014  -0.74438  -0.66783  -0.55925  -0.51352
 Alpha  occ. eigenvalues --   -0.49383  -0.46663  -0.42132  -0.41940  -0.38342
 Alpha  occ. eigenvalues --   -0.37704  -0.35723
 Alpha virt. eigenvalues --    0.05434   0.06694   0.07723   0.07994   0.11056
 Alpha virt. eigenvalues --    0.11738   0.12695   0.12992   0.14678   0.15482
 Alpha virt. eigenvalues --    0.15771   0.16436   0.19529   0.19662   0.21598

 Mulliken charges:
               1
     1  C   -0.140446
     2  C   -0.059470
     3  H    0.039358
     4  H    0.045325
     5  H    0.033514
     6  C   -0.061791
     7  H    0.009982
     8  H    0.068999
     9  C   -0.156831
    10  H    0.081231
    11  H   -0.020140
    12  H    0.058474
    13  H    0.034658
    14  H    0.067136
 Sum of Mulliken charges =   0.00000

 Dipole moment (field-independent basis, Debye):
    X=             -0.0128    Y=              0.1862    Z=             -0.8277  Tot=              0.8484
 Quadrupole moment (field-independent basis, Debye-Ang):
   XX=            -29.9739   YY=            -29.5563   ZZ=            -28.0391
   XY=             -0.0399   XZ=              0.5245   YZ=             -0.1101

 Normal termination of Gaussian 09 at Wed Aug 26 10:58:20 2020.
