 Gaussian 09, Revision D.01,
 Gaussian 09:  ES64L-G09RevD.01 24-Apr-2013

 --------------------
 #p B2PLYPD3/Def2QZVP
 --------------------

 ----------
 butane_opt
 ----------
 Symbolic Z-matrix:
 Charge =  0 Multiplicity = 1

                         Standard orientation:
 ---------------------------------------------------------------------
 Center     Atomic      Atomic             Coordinates (Angstroms)
 Number     Number       Type             X           Y           Z
 ---------------------------------------------------------------------
      1          6           0        1.983436   -0.169611   -0.128153
      2          6           0        0.554453    0.618344    0.080317
      3          1           0        2.594733    0.479951   -0.423184
      4          1           0        2.426486   -0.560285   -0.783624
      5          1           0        2.595557   -1.090243    1.133704
      6          6           0       -0.656678   -0.482372    0.068571
      7          1           0        0.274991    0.983482   -0.695786
      8          1           0        0.566144    1.615860    1.148443
      9          6           0       -1.927585    0.079221   -0.037040
     10          1           0       -0.832885   -1.214603    1.062353
     11          1           0       -0.500871   -1.118871   -0.853359
     12          1           0       -2.076242    0.598896    0.780575
     13          1           0       -2.738674   -0.668140   -0.273890
     14          1           0       -2.030993    0.700454   -0.997403
 ---------------------------------------------------------------------

 SCF Done:  E(RB2PLYPD3) =  -157.781845210     A.U. after   11 cycles
 E2(B2PLYPD3) =    -0.2538239473D+00 E(B2PLYPD3) =    -0.15803566915725D+03

 The electronic state is 1-A.
 Alpha  occ. eigenvalues --  -10.65563 -10.62579 -10.61840 -10.58868  -0.92652
 Alpha  occ. eigenvalues --   -0.87479  -0.77913  -0.65849  -0.55048  -0.52377
 Alpha  occ. eigenvalues --   -0.47734  -0.45643  -0.42769  -0.40126  -0.37419
 Alpha  occ. eigenvalues --   -0.35196  -0.33928
 Alpha virt. eigenvalues --    0.02521   0.05266   0.06381   0.07994   0.09267
 Alpha virt. eigenvalues --    0.10634   0.11326   0.12482   0.13891   0.15517
 Alpha virt. eigenvalues --    0.16058   0.16764   0.18530   0.19306   0.20151

 Mulliken charges:
               1
     1  C   -0.246438
     2  C   -0.180623
     3  H    0.082769
     4  H    0.118717
     5  H   -0.015704
     6  C   -0.036174
     7  H    0.182948
     8  H    0.029849
     9  C   -0.128075
    10  H    0.021423
    11  H    0.046202
    12  H    0.075157
    13  H    0.044212
    14  H    0.005737
 Sum of Mulliken charges =   0.00000

 Dipole moment (field-independent basis, Debye):
    X=             -0.3512    Y=              0.4933    Z=             -1.0581  Tot=              1.2191
 Quadrupole moment (field-independent basis, Debye-Ang):
   XX=            -29.7014   YY=            -30.1430   ZZ=            -28.4075
   XY=              1.1621   XZ=             -2.4306   YZ=              0.3296

 Normal termination of Gaussian 09 at Wed Aug 26 19:26:43 2020.
