 Gaussian 09, Revision D.01,
 Gaussian 09:  ES64L-G09RevD.01 24-Apr-2013

 --------------------
 #p B2PLYPD3/Def2QZVP
 --------------------

 ----------
 butane_opt
 ----------
 Symbolic Z-matrix:
 Charge =  0 Multiplicity = 1

                         Standard orientation:
 ---------------------------------------------------------------------
 Center     Atomic      Atomic             Coordinates (Angstroms)
 Number     Number       Type             X           Y           Z
 ---------------------------------------------------------------------
      1          6           0       -1.896906   -0.201001    0.065384
      2          6           0       -0.566244    0.559695   -0.186705
      3          1           0       -2.712908    0.297834    0.773555
      4          1           0       -1.850240   -0.570198    0.699380
      5          1           0       -2.460617   -0.830326   -0.923847
      6          6           0        0.579455   -0.380762   -0.097150
      7          1           0       -0.409919    1.137133    0.829668
      8          1           0       -0.362651    1.161443   -0.896965
      9          6           0        1.911124    0.068244    0.065322
     10          1           0        0.512722   -0.837869   -0.921887
     11          1           0        0.626898   -1.025374    0.805144
     12          1           0        2.066401    0.668315   -0.701802
     13          1           0        2.829268   -0.902364    0.199781
     14          1           0        1.596477    0.624355    1.055858
 ---------------------------------------------------------------------

 SCF Done:  E(RB2PLYPD3) =  -157.768949393     A.U. after   11 cycles
 E2(B2PLYPD3) =    -0.2505471090D+00 E(B2PLYPD3) =    -0.15801949650251D+03

 The electronic state is 1-A.
 Alpha  occ. eigenvalues --  -10.61235 -10.60867 -10.60062 -10.57371  -0.95316
 Alpha  occ. eigenvalues --   -0.87697  -0.77130  -0.67001  -0.58818  -0.51523
 Alpha  occ. eigenvalues --   -0.50571  -0.47028  -0.43775  -0.39264  -0.38846
 Alpha  occ. eigenvalues --   -0.36895  -0.34301
 Alpha virt. eigenvalues --    0.04854   0.05984   0.08102   0.08407   0.10191
 Alpha virt. eigenvalues --    0.11487   0.11933   0.12725   0.15194   0.15308
 Alpha virt. eigenvalues --    0.16364   0.16928   0.18687   0.19353   0.21128

 Mulliken charges:
               1
     1  C   -0.490319
     2  C   -0.021240
     3  H    0.024672
     4  H    0.378343
     5  H    0.053767
     6  C   -0.057268
     7  H   -0.007836
     8  H    0.070800
     9  C   -0.153597
    10  H    0.040144
    11  H    0.032696
    12  H    0.053106
    13  H    0.040715
    14  H    0.036018
 Sum of Mulliken charges =   0.00000

 Dipole moment (field-independent basis, Debye):
    X=             -0.0574    Y=             -0.2221    Z=             -0.0518  Tot=              0.2352
 Quadrupole moment (field-independent basis, Debye-Ang):
   XX=            -31.1415   YY=            -30.0299   ZZ=            -27.1863
   XY=             -0.0513   XZ=             -1.4583   YZ=             -0.5828

 Normal termination of Gaussian 09 at Wed Aug 26 11:21:42 2020.
