 Gaussian 09, Revision D.01,
 Gaussian 09:  ES64L-G09RevD.01 24-Apr-2013

 --------------------
 #p B2PLYPD3/Def2QZVP
 --------------------

 ----------
 butane_opt
 ----------
 Symbolic Z-matrix:
 Charge =  0 Multiplicity = 1

                         Standard orientation:
 ---------------------------------------------------------------------
 Center     Atomic      Atomic             Coordinates (Angstroms)
 Number     Number       Type             X           Y           Z
 ---------------------------------------------------------------------
      1          6           0        2.038685   -0.192783   -0.152327
      2          6           0        0.567918    0.570383    0.248452
      3          1           0        2.645955    0.389143   -0.770050
      4          1           0        1.823737   -0.721843   -0.983207
      5          1           0        2.356703   -0.843648    0.713875
      6          6           0       -0.582168   -0.454025    0.144549
      7          1           0        0.327610    1.024113   -0.559185
      8          1           0        0.755445    1.686446    1.334082
      9          6           0       -2.019816    0.094625   -0.184447
     10          1           0       -0.700620   -1.387274    1.273495
     11          1           0       -0.188309   -0.825458   -0.679539
     12          1           0       -2.030198    0.475696    0.514151
     13          1           0       -2.950981   -0.761122    0.026212
     14          1           0       -2.067056    0.854742   -1.207199
 ---------------------------------------------------------------------

 SCF Done:  E(RB2PLYPD3) =  -157.773527309     A.U. after   11 cycles
 E2(B2PLYPD3) =    -0.2547501220D+00 E(B2PLYPD3) =    -0.15802827743075D+03

 The electronic state is 1-A.
 Alpha  occ. eigenvalues --  -10.65105 -10.64475 -10.61181 -10.60980  -0.92589
 Alpha  occ. eigenvalues --   -0.84485  -0.76698  -0.65701  -0.53645  -0.50627
 Alpha  occ. eigenvalues --   -0.46500  -0.45885  -0.43249  -0.41474  -0.38392
 Alpha  occ. eigenvalues --   -0.35261  -0.34621
 Alpha virt. eigenvalues --    0.03963   0.06002   0.06086   0.06410   0.10412
 Alpha virt. eigenvalues --    0.11622   0.11744   0.12936   0.13498   0.14510
 Alpha virt. eigenvalues --    0.15598   0.16096   0.17738   0.18952   0.19715

 Mulliken charges:
               1
     1  C   -0.157171
     2  C   -0.165112
     3  H    0.052583
     4  H    0.054930
     5  H    0.078042
     6  C   -0.084759
     7  H    0.128800
     8  H   -0.008842
     9  C   -0.402958
    10  H   -0.012526
    11  H    0.112650
    12  H    0.310941
    13  H    0.049252
    14  H    0.044172
 Sum of Mulliken charges =   0.00000

 Dipole moment (field-independent basis, Debye):
    X=              0.1052    Y=             -0.0997    Z=             -0.9260  Tot=              0.9373
 Quadrupole moment (field-independent basis, Debye-Ang):
   XX=            -29.8218   YY=            -30.7106   ZZ=            -28.4312
   XY=             -0.5739   XZ=             -1.5503   YZ=             -1.1754

 Normal termination of Gaussian 09 at Wed Aug 26 11:29:00 2020.
