 Gaussian 09, Revision D.01,
 Gaussian 09:  ES64L-G09RevD.01 24-Apr-2013

 --------------------
 #p B2PLYPD3/Def2QZVP
 --------------------

 ----------
 butane_opt
 ----------
 Symbolic Z-matrix:
 Charge =  0 Multiplicity = 1

                         Standard orientation:
 ---------------------------------------------------------------------
 Center     Atomic      Atomic             Coordinates (Angstroms)
 Number     Number       Type             X           Y           Z
 ---------------------------------------------------------------------
      1          6           0        1.903712    0.089356    0.103385
      2          6           0        0.580060   -0.478622   -0.001263
      3          1           0        2.678185   -0.684117   -0.602696
      4          1           0        2.347126    1.038352    1.104278
      5          1           0        1.796376    0.395090   -0.603798
      6          6           0       -0.563213    0.551253   -0.103231
      7          1           0        0.487940   -1.028346    0.839413
      8          1           0        0.517333   -1.205803   -1.011308
      9          6           0       -1.966660   -0.116588    0.074389
     10          1           0       -0.389983    1.250503   -1.046321
     11          1           0       -0.371653    0.954308    0.576710
     12          1           0       -2.056100   -0.619577   -0.739190
     13          1           0       -2.634085    0.505615   -0.090833
     14          1           0       -2.098530   -0.878422    1.134068
 ---------------------------------------------------------------------

 SCF Done:  E(RB2PLYPD3) =  -157.707563202     A.U. after   11 cycles
 E2(B2PLYPD3) =    -0.2511445150D+00 E(B2PLYPD3) =    -0.15795870771700D+03

 The electronic state is 1-A.
 Alpha  occ. eigenvalues --  -10.60894 -10.60443 -10.59070 -10.58661  -0.95172
 Alpha  occ. eigenvalues --   -0.87217  -0.76899  -0.68209  -0.55388  -0.50024
 Alpha  occ. eigenvalues --   -0.47717  -0.46904  -0.42371  -0.41135  -0.39845
 Alpha  occ. eigenvalues --   -0.37863  -0.34053
 Alpha virt. eigenvalues --    0.04302   0.05569   0.06782   0.08097   0.10477
 Alpha virt. eigenvalues --    0.11555   0.12346   0.12957   0.14255   0.15288
 Alpha virt. eigenvalues --    0.16113   0.16721   0.18705   0.19190   0.21054

 Mulliken charges:
               1
     1  C   -0.518634
     2  C   -0.004203
     3  H    0.030117
     4  H    0.056946
     5  H    0.375536
     6  C   -0.273815
     7  H    0.051915
     8  H   -0.000353
     9  C   -0.151084
    10  H    0.022697
    11  H    0.253171
    12  H    0.055075
    13  H    0.063184
    14  H    0.039449
 Sum of Mulliken charges =   0.00000

 Dipole moment (field-independent basis, Debye):
    X=             -0.4466    Y=              0.4219    Z=             -0.3744  Tot=              0.7194
 Quadrupole moment (field-independent basis, Debye-Ang):
   XX=            -30.8029   YY=            -29.3748   ZZ=            -27.2962
   XY=              0.5008   XZ=             -0.1386   YZ=              0.3811

 Normal termination of Gaussian 09 at Wed Aug 26 23:37:30 2020.
