 Gaussian 09, Revision D.01,
 Gaussian 09:  ES64L-G09RevD.01 24-Apr-2013

 --------------------
 #p B2PLYPD3/Def2QZVP
 --------------------

 ----------
 butane_opt
 ----------
 Symbolic Z-matrix:
 Charge =  0 Multiplicity = 1

                         Standard orientation:
 ---------------------------------------------------------------------
 Center     Atomic      Atomic             Coordinates (Angstroms)
 Number     Number       Type             X           Y           Z
 ---------------------------------------------------------------------
      1          6           0       -2.014014   -0.164831   -0.065242
      2          6           0       -0.499351    0.517602    0.083476
      3          1           0       -2.687889    0.653154   -0.278602
      4          1           0       -2.075307   -0.579659    0.844843
      5          1           0       -2.058377   -1.051619   -0.908604
      6          6           0        0.560950   -0.391769    0.217733
      7          1           0       -0.386083    1.199810    0.919750
      8          1           0       -0.104201    1.344791   -1.035313
      9          6           0        1.904144    0.032716   -0.142000
     10          1           0        0.221195   -1.003560   -0.521379
     11          1           0        0.921773   -1.098510    1.110530
     12          1           0        1.522112    0.369471   -0.881605
     13          1           0        2.669079   -0.733787   -0.639193
     14          1           0        2.267319    0.937601    0.825766
 ---------------------------------------------------------------------

 SCF Done:  E(RB2PLYPD3) =  -157.896065228     A.U. after   11 cycles
 E2(B2PLYPD3) =    -0.2540108481D+00 E(B2PLYPD3) =    -0.15815007607662D+03

 The electronic state is 1-A.
 Alpha  occ. eigenvalues --  -10.64489 -10.62489 -10.60569 -10.59624  -0.95494
 Alpha  occ. eigenvalues --   -0.83802  -0.74344  -0.64833  -0.56606  -0.51020
 Alpha  occ. eigenvalues --   -0.49686  -0.46160  -0.42498  -0.41365  -0.37896
 Alpha  occ. eigenvalues --   -0.35329  -0.33448
 Alpha virt. eigenvalues --    0.05101   0.05685   0.06618   0.08290   0.10513
 Alpha virt. eigenvalues --    0.11115   0.11956   0.12835   0.13626   0.14443
 Alpha virt. eigenvalues --    0.15529   0.16590   0.18288   0.19930   0.20826

 Mulliken charges:
               1
     1  C   -0.165554
     2  C   -0.063393
     3  H    0.073647
     4  H    0.096726
     5  H    0.034849
     6  C   -0.035376
     7  H    0.049628
     8  H   -0.022672
     9  C   -0.224661
    10  H    0.047086
    11  H    0.019534
    12  H    0.114223
    13  H    0.051748
    14  H    0.024214
 Sum of Mulliken charges =   0.00000

 Dipole moment (field-independent basis, Debye):
    X=             -0.5095    Y=             -0.4282    Z=             -0.0105  Tot=              0.6656
 Quadrupole moment (field-independent basis, Debye-Ang):
   XX=            -30.1604   YY=            -30.0511   ZZ=            -28.8448
   XY=             -0.9542   XZ=             -0.1623   YZ=              1.1267

 Normal termination of Gaussian 09 at Wed Aug 26 23:15:20 2020.
