 Gaussian 09, Revision D.01,
 Gaussian 09:  ES64L-G09RevD.01 24-Apr-2013

 --------------------
 #p B2PLYPD3/Def2QZVP
 --------------------

 ----------
 butane_opt
 ----------
 Symbolic Z-matrix:
 Charge =  0 Multiplicity = 1

                         Standard orientation:
 ---------------------------------------------------------------------
 Center     Atomic      Atomic             Coordinates (Angstroms)
 Number     Number       Type             X           Y           Z
 ---------------------------------------------------------------------
      1          6           0        1.985534   -0.163179    0.067009
      2          6           0        0.547421    0.604666   -0.249787
      3          1           0        2.662113    0.405005    0.183667
      4          1           0        2.337514   -0.607534   -0.590453
      5          1           0        2.300240   -0.935593    1.155402
      6          6           0       -0.615818   -0.446124    0.050764
      7          1           0        0.424452    1.015126   -1.177394
      8          1           0        0.913314    1.177625    0.499318
      9          6           0       -1.948133    0.078844    0.060190
     10          1           0       -0.514244   -0.943380    0.848233
     11          1           0       -0.650079   -1.205058   -0.844786
     12          1           0       -2.437702    1.397071    1.296366
     13          1           0       -2.910103   -0.931567   -0.428271
     14          1           0       -1.939524    0.183065   -0.511143
 ---------------------------------------------------------------------

 SCF Done:  E(RB2PLYPD3) =  -157.188547654     A.U. after   13 cycles
 E2(B2PLYPD3) =    -0.2568607854D+00 E(B2PLYPD3) =    -0.15744540843894D+03

 The electronic state is 1-A.
 Alpha  occ. eigenvalues --  -10.64609 -10.61817 -10.61090 -10.58853  -0.96679
 Alpha  occ. eigenvalues --   -0.88688  -0.78539  -0.71597  -0.57136  -0.50497
 Alpha  occ. eigenvalues --   -0.49170  -0.47328  -0.43312  -0.40200  -0.38508
 Alpha  occ. eigenvalues --   -0.36107  -0.32525
 Alpha virt. eigenvalues --   -0.01278   0.03843   0.05147   0.08152   0.09464
 Alpha virt. eigenvalues --    0.10463   0.11717   0.13214   0.13829   0.14864
 Alpha virt. eigenvalues --    0.15359   0.16550   0.18454   0.19467   0.20819

 Mulliken charges:
               1
     1  C   -0.243995
     2  C   -0.097900
     3  H    0.081819
     4  H    0.094104
     5  H    0.015280
     6  C    0.045553
     7  H    0.064774
     8  H    0.083852
     9  C   -0.908242
    10  H    0.094860
    11  H    0.016641
    12  H    0.006993
    13  H    0.006502
    14  H    0.739760
 Sum of Mulliken charges =   0.00000

 Dipole moment (field-independent basis, Debye):
    X=              1.3610    Y=              0.0993    Z=             -0.8652  Tot=              1.6157
 Quadrupole moment (field-independent basis, Debye-Ang):
   XX=            -31.2310   YY=            -29.5272   ZZ=            -27.9126
   XY=              0.9047   XZ=              1.3690   YZ=              0.3904

 Normal termination of Gaussian 09 at Wed Aug 26 20:18:13 2020.
