 Gaussian 09, Revision D.01,
 Gaussian 09:  ES64L-G09RevD.01 24-Apr-2013

 --------------------
 #p B2PLYPD3/Def2QZVP
 --------------------

 ----------
 butane_opt
 ----------
 Symbolic Z-matrix:
 Charge =  0 Multiplicity = 1

                         Standard orientation:
 ---------------------------------------------------------------------
 Center     Atomic      Atomic             Coordinates (Angstroms)
 Number     Number       Type             X           Y           Z
 ---------------------------------------------------------------------
      1          6           0        2.018618    0.201781   -0.113002
      2          6           0        0.514625   -0.644629    0.109502
      3          1           0        2.895143   -0.456762    0.031718
      4          1           0        2.529903    0.305901    0.500249
      5          1           0        2.051763    1.291450   -1.182047
      6          6           0       -0.662144    0.504298    0.266069
      7          1           0        0.645905   -1.254050    0.855817
      8          1           0        0.238018   -1.267933   -0.797462
      9          6           0       -1.929245   -0.090203   -0.179270
     10          1           0       -0.641020    0.818792   -0.412895
     11          1           0       -0.748827    1.372706    1.447085
     12          1           0       -1.476890   -0.446979   -0.895166
     13          1           0       -2.635843    0.546731   -0.759166
     14          1           0       -2.509281   -0.737332    0.712079
 ---------------------------------------------------------------------

 SCF Done:  E(RB2PLYPD3) =  -157.558400236     A.U. after   11 cycles
 E2(B2PLYPD3) =    -0.2546433483D+00 E(B2PLYPD3) =    -0.15781304358467D+03

 The electronic state is 1-A.
 Alpha  occ. eigenvalues --  -10.63789 -10.62101 -10.60873 -10.59782  -0.96269
 Alpha  occ. eigenvalues --   -0.88735  -0.77515  -0.69983  -0.54545  -0.50588
 Alpha  occ. eigenvalues --   -0.49616  -0.45540  -0.41495  -0.39382  -0.37786
 Alpha  occ. eigenvalues --   -0.35168  -0.33694
 Alpha virt. eigenvalues --    0.03932   0.05579   0.06582   0.07588   0.10123
 Alpha virt. eigenvalues --    0.11253   0.11458   0.12947   0.14230   0.15557
 Alpha virt. eigenvalues --    0.16183   0.16803   0.17815   0.19031   0.20369

 Mulliken charges:
               1
     1  C   -0.394421
     2  C   -0.040891
     3  H    0.033919
     4  H    0.266688
     5  H    0.034972
     6  C   -0.554265
     7  H    0.067710
     8  H    0.047058
     9  C   -0.186004
    10  H    0.514968
    11  H    0.018634
    12  H    0.107935
    13  H    0.038681
    14  H    0.045017
 Sum of Mulliken charges =   0.00000

 Dipole moment (field-independent basis, Debye):
    X=              0.2114    Y=             -0.4673    Z=              0.0378  Tot=              0.5143
 Quadrupole moment (field-independent basis, Debye-Ang):
   XX=            -28.6610   YY=            -29.8432   ZZ=            -28.4216
   XY=             -1.0035   XZ=              2.5688   YZ=             -1.5956

 Normal termination of Gaussian 09 at Wed Aug 26 10:32:52 2020.
