 Gaussian 09, Revision D.01,
 Gaussian 09:  ES64L-G09RevD.01 24-Apr-2013

 --------------------
 #p B2PLYPD3/Def2QZVP
 --------------------

 ----------
 butane_opt
 ----------
 Symbolic Z-matrix:
 Charge =  0 Multiplicity = 1

                         Standard orientation:
 ---------------------------------------------------------------------
 Center     Atomic      Atomic             Coordinates (Angstroms)
 Number     Number       Type             X           Y           Z
 ---------------------------------------------------------------------
      1          6           0       -1.920178    0.154886   -0.000087
      2          6           0       -0.528622   -0.557319   -0.042086
      3          1           0       -2.646800   -0.474091   -0.616658
      4          1           0       -1.760327    0.298913   -0.540943
      5          1           0       -2.612315    1.282517    1.403323
      6          6           0        0.594772    0.468595   -0.037581
      7          1           0       -0.278513   -1.313896   -0.934918
      8          1           0       -0.334276   -1.353538    0.918316
      9          6           0        1.824186   -0.097978    0.099592
     10          1           0        0.298855    0.815254    0.475341
     11          1           0        0.715563    1.420572   -1.160315
     12          1           0        2.033739   -0.880145    1.078013
     13          1           0        2.891834    0.990005   -0.077921
     14          1           0        1.871297   -0.594699   -0.663262
 ---------------------------------------------------------------------

 SCF Done:  E(RB2PLYPD3) =  -156.948333320     A.U. after   13 cycles
 E2(B2PLYPD3) =    -0.2621047727D+00 E(B2PLYPD3) =    -0.15721043809231D+03

 The electronic state is 1-A.
 Alpha  occ. eigenvalues --  -10.65781 -10.64047 -10.62937 -10.59752  -0.99032
 Alpha  occ. eigenvalues --   -0.92662  -0.78101  -0.69876  -0.53703  -0.51360
 Alpha  occ. eigenvalues --   -0.47833  -0.45601  -0.45271  -0.39188  -0.36657
 Alpha  occ. eigenvalues --   -0.34794  -0.33882
 Alpha virt. eigenvalues --   -0.03952   0.03128   0.04960   0.06075   0.09359
 Alpha virt. eigenvalues --    0.10642   0.10791   0.12346   0.14397   0.15242
 Alpha virt. eigenvalues --    0.15616   0.15926   0.17561   0.18531   0.19377

 Mulliken charges:
               1
     1  C   -0.959351
     2  C    0.001252
     3  H    0.079315
     4  H    0.783520
     5  H    0.056017
     6  C   -0.578267
     7  H    0.032324
     8  H    0.024759
     9  C   -0.126152
    10  H    0.529571
    11  H   -0.000207
    12  H    0.043878
    13  H   -0.002580
    14  H    0.115922
 Sum of Mulliken charges =   0.00000

 Dipole moment (field-independent basis, Debye):
    X=             -0.4261    Y=             -0.4402    Z=             -0.3432  Tot=              0.7022
 Quadrupole moment (field-independent basis, Debye-Ang):
   XX=            -32.3437   YY=            -29.6063   ZZ=            -28.2306
   XY=             -1.2262   XZ=              0.1273   YZ=              1.0425

 Normal termination of Gaussian 09 at Wed Aug 26 10:30:07 2020.
