 Gaussian 09, Revision D.01,
 Gaussian 09:  ES64L-G09RevD.01 24-Apr-2013

 --------------------
 #p B2PLYPD3/Def2QZVP
 --------------------

 ----------
 butane_opt
 ----------
 Symbolic Z-matrix:
 Charge =  0 Multiplicity = 1

                         Standard orientation:
 ---------------------------------------------------------------------
 Center     Atomic      Atomic             Coordinates (Angstroms)
 Number     Number       Type             X           Y           Z
 ---------------------------------------------------------------------
      1          6           0       -1.947380   -0.140411   -0.029204
      2          6           0       -0.498725    0.640816    0.018057
      3          1           0       -2.757149    0.616127   -0.422483
      4          1           0       -2.189982   -0.903186    0.922352
      5          1           0       -2.127489   -0.938348   -0.848334
      6          6           0        0.558252   -0.470896    0.209370
      7          1           0       -0.578899    1.207201    0.759115
      8          1           0       -0.015803    1.137896   -0.866314
      9          6           0        1.889676    0.054527   -0.087301
     10          1           0        0.501290   -1.269366   -0.518492
     11          1           0        0.679623   -0.947351    0.957270
     12          1           0        1.428191    0.269478   -0.843617
     13          1           0        2.659878   -0.739443   -0.644548
     14          1           0        2.389404    1.062774    0.839520
 ---------------------------------------------------------------------

 SCF Done:  E(RB2PLYPD3) =  -157.866995782     A.U. after   11 cycles
 E2(B2PLYPD3) =    -0.2528953761D+00 E(B2PLYPD3) =    -0.15811989115816D+03

 The electronic state is 1-A.
 Alpha  occ. eigenvalues --  -10.64203 -10.61353 -10.61259 -10.58259  -0.95319
 Alpha  occ. eigenvalues --   -0.83181  -0.71734  -0.70248  -0.56821  -0.49718
 Alpha  occ. eigenvalues --   -0.47950  -0.45788  -0.42840  -0.39432  -0.37801
 Alpha  occ. eigenvalues --   -0.36620  -0.35544
 Alpha virt. eigenvalues --    0.04970   0.05603   0.07781   0.08582   0.10215
 Alpha virt. eigenvalues --    0.11121   0.12252   0.12350   0.13379   0.14954
 Alpha virt. eigenvalues --    0.16154   0.17519   0.18502   0.20084   0.20803

 Mulliken charges:
               1
     1  C   -0.165925
     2  C   -0.075467
     3  H    0.042756
     4  H    0.057469
     5  H    0.023418
     6  C   -0.060857
     7  H    0.084775
     8  H    0.059405
     9  C   -0.256889
    10  H    0.033980
    11  H    0.071486
    12  H    0.119280
    13  H    0.033406
    14  H    0.033163
 Sum of Mulliken charges =   0.00000

 Dipole moment (field-independent basis, Debye):
    X=             -0.4521    Y=             -0.2889    Z=             -0.1545  Tot=              0.5583
 Quadrupole moment (field-independent basis, Debye-Ang):
   XX=            -32.0408   YY=            -28.5613   ZZ=            -28.5320
   XY=             -0.3413   XZ=              0.1231   YZ=              0.5749

 Normal termination of Gaussian 09 at Wed Aug 26 14:34:26 2020.
