 Gaussian 09, Revision D.01,
 Gaussian 09:  ES64L-G09RevD.01 24-Apr-2013

 --------------------
 #p B2PLYPD3/Def2QZVP
 --------------------

 ----------
 butane_opt
 ----------
 Symbolic Z-matrix:
 Charge =  0 Multiplicity = 1

                         Standard orientation:
 ---------------------------------------------------------------------
 Center     Atomic      Atomic             Coordinates (Angstroms)
 Number     Number       Type             X           Y           Z
 ---------------------------------------------------------------------
      1          6           0       -1.959028    0.145274    0.128721
      2          6           0       -0.468140   -0.578436   -0.187804
      3          1           0       -2.767412   -0.607028    0.274536
      4          1           0       -2.350826    1.141625   -1.015527
      5          1           0       -1.912799    0.485278    0.864476
      6          6           0        0.581961    0.449139   -0.007927
      7          1           0       -0.388863   -0.976386   -1.061324
      8          1           0       -0.371312   -1.172783    0.474582
      9          6           0        1.942546   -0.074758    0.041836
     10          1           0        0.259442    1.224076    1.181880
     11          1           0        0.611967    0.874545   -0.793279
     12          1           0        1.920498   -1.099354    1.119585
     13          1           0        2.735072    0.900883   -0.146309
     14          1           0        1.680200   -0.418171   -0.747585
 ---------------------------------------------------------------------

 SCF Done:  E(RB2PLYPD3) =  -157.685459486     A.U. after   11 cycles
 E2(B2PLYPD3) =    -0.2534464671D+00 E(B2PLYPD3) =    -0.15793890595274D+03

 The electronic state is 1-A.
 Alpha  occ. eigenvalues --  -10.63258 -10.62471 -10.61520 -10.58714  -0.97067
 Alpha  occ. eigenvalues --   -0.86105  -0.76981  -0.67890  -0.57707  -0.51224
 Alpha  occ. eigenvalues --   -0.48471  -0.47617  -0.45538  -0.39391  -0.37584
 Alpha  occ. eigenvalues --   -0.36638  -0.33796
 Alpha virt. eigenvalues --    0.03201   0.04240   0.07156   0.07825   0.09833
 Alpha virt. eigenvalues --    0.10002   0.11713   0.12183   0.14162   0.14849
 Alpha virt. eigenvalues --    0.15294   0.16379   0.17908   0.19275   0.20084

 Mulliken charges:
               1
     1  C   -0.317798
     2  C   -0.091402
     3  H    0.047926
     4  H   -0.001813
     5  H    0.236568
     6  C   -0.106088
     7  H    0.046200
     8  H    0.096273
     9  C   -0.232618
    10  H   -0.040069
    11  H    0.145218
    12  H    0.013923
    13  H    0.062015
    14  H    0.141668
 Sum of Mulliken charges =   0.00000

 Dipole moment (field-independent basis, Debye):
    X=             -0.0016    Y=             -0.5195    Z=             -0.4024  Tot=              0.6572
 Quadrupole moment (field-independent basis, Debye-Ang):
   XX=            -31.9594   YY=            -29.9317   ZZ=            -28.1573
   XY=              2.1425   XZ=             -2.1493   YZ=             -1.0263

 Normal termination of Gaussian 09 at Wed Aug 26 13:50:31 2020.
