 Gaussian 09, Revision D.01,
 Gaussian 09:  ES64L-G09RevD.01 24-Apr-2013

 --------------------
 #p B2PLYPD3/Def2QZVP
 --------------------

 ----------
 butane_opt
 ----------
 Symbolic Z-matrix:
 Charge =  0 Multiplicity = 1

                         Standard orientation:
 ---------------------------------------------------------------------
 Center     Atomic      Atomic             Coordinates (Angstroms)
 Number     Number       Type             X           Y           Z
 ---------------------------------------------------------------------
      1          6           0       -1.957535   -0.131364   -0.076382
      2          6           0       -0.551063    0.464088    0.033189
      3          1           0       -2.749957    0.725324   -0.001898
      4          1           0       -1.948606   -0.691552    0.846498
      5          1           0       -1.999325   -0.645709   -0.839271
      6          6           0        0.542870   -0.492291    0.113082
      7          1           0       -0.520810    1.156067    0.873465
      8          1           0       -0.473863    1.114068   -0.796715
      9          6           0        1.926140    0.122433   -0.098916
     10          1           0        0.358766   -0.997197   -0.661597
     11          1           0        0.516500   -1.270749    1.048807
     12          1           0        1.835057    0.426783   -0.832850
     13          1           0        2.714539   -0.570617   -0.439671
     14          1           0        2.505227    0.976388    0.977391
 ---------------------------------------------------------------------

 SCF Done:  E(RB2PLYPD3) =  -157.898010326     A.U. after   11 cycles
 E2(B2PLYPD3) =    -0.2478780445D+00 E(B2PLYPD3) =    -0.15814588837069D+03

 The electronic state is 1-A.
 Alpha  occ. eigenvalues --  -10.60388 -10.60100 -10.59249 -10.58638  -0.94210
 Alpha  occ. eigenvalues --   -0.85951  -0.75794  -0.67891  -0.55886  -0.51095
 Alpha  occ. eigenvalues --   -0.49824  -0.48378  -0.42155  -0.40677  -0.39816
 Alpha  occ. eigenvalues --   -0.37042  -0.36528
 Alpha virt. eigenvalues --    0.05045   0.06364   0.08131   0.08418   0.10402
 Alpha virt. eigenvalues --    0.11016   0.12797   0.13136   0.14927   0.15692
 Alpha virt. eigenvalues --    0.16076   0.16268   0.19205   0.19719   0.21933

 Mulliken charges:
               1
     1  C   -0.180217
     2  C   -0.017624
     3  H    0.040780
     4  H    0.050503
     5  H    0.076450
     6  C   -0.060381
     7  H    0.024382
     8  H    0.018059
     9  C   -0.371321
    10  H    0.081892
    11  H    0.015264
    12  H    0.257335
    13  H    0.041220
    14  H    0.023658
 Sum of Mulliken charges =   0.00000

 Dipole moment (field-independent basis, Debye):
    X=             -0.1550    Y=             -0.1692    Z=             -0.6968  Tot=              0.7336
 Quadrupole moment (field-independent basis, Debye-Ang):
   XX=            -30.3055   YY=            -29.2988   ZZ=            -27.6463
   XY=             -0.8556   XZ=             -0.5890   YZ=              0.4289

 Normal termination of Gaussian 09 at Wed Aug 26 15:04:11 2020.
