 Gaussian 09, Revision D.01,
 Gaussian 09:  ES64L-G09RevD.01 24-Apr-2013

 --------------------
 #p B2PLYPD3/Def2QZVP
 --------------------

 ----------
 butane_opt
 ----------
 Symbolic Z-matrix:
 Charge =  0 Multiplicity = 1

                         Standard orientation:
 ---------------------------------------------------------------------
 Center     Atomic      Atomic             Coordinates (Angstroms)
 Number     Number       Type             X           Y           Z
 ---------------------------------------------------------------------
      1          6           0        1.945005    0.046693    0.180374
      2          6           0        0.559332   -0.446866   -0.302715
      3          1           0        2.723551   -0.685797    0.243245
      4          1           0        1.790100    0.873532    1.293219
      5          1           0        2.217959    0.886586   -0.748071
      6          6           0       -0.549375    0.511172   -0.144528
      7          1           0        0.333601   -1.234293    0.487841
      8          1           0        0.441801   -1.145908   -1.137497
      9          6           0       -1.952969   -0.152797    0.208051
     10          1           0       -0.620792    1.281790   -1.073748
     11          1           0       -0.111374    1.175134    0.798661
     12          1           0       -2.141873   -0.568565   -0.540756
     13          1           0       -2.855032    0.732227   -0.001629
     14          1           0       -1.789903   -1.063921    1.031645
 ---------------------------------------------------------------------

 SCF Done:  E(RB2PLYPD3) =  -157.938167525     A.U. after   11 cycles
 E2(B2PLYPD3) =    -0.2542539885D+00 E(B2PLYPD3) =    -0.15819242151370D+03

 The electronic state is 1-A.
 Alpha  occ. eigenvalues --  -10.65282 -10.63426 -10.61652 -10.61519  -0.91256
 Alpha  occ. eigenvalues --   -0.82631  -0.72601  -0.65021  -0.52779  -0.50659
 Alpha  occ. eigenvalues --   -0.46832  -0.45348  -0.41530  -0.39595  -0.39075
 Alpha  occ. eigenvalues --   -0.36612  -0.34065
 Alpha virt. eigenvalues --    0.04727   0.05514   0.07339   0.07708   0.10376
 Alpha virt. eigenvalues --    0.11225   0.11575   0.13435   0.13552   0.14597
 Alpha virt. eigenvalues --    0.15304   0.15524   0.17650   0.20157   0.21064

 Mulliken charges:
               1
     1  C   -0.184625
     2  C    0.013382
     3  H    0.084724
     4  H    0.031986
     5  H    0.021851
     6  C   -0.022828
     7  H   -0.008009
     8  H    0.035163
     9  C   -0.241723
    10  H    0.015969
    11  H    0.023736
    12  H    0.151736
    13  H    0.033819
    14  H    0.044820
 Sum of Mulliken charges =   0.00000

 Dipole moment (field-independent basis, Debye):
    X=             -0.0212    Y=             -0.6931    Z=             -0.4739  Tot=              0.8399
 Quadrupole moment (field-independent basis, Debye-Ang):
   XX=            -30.6299   YY=            -29.2713   ZZ=            -29.6219
   XY=             -0.7151   XZ=              1.4647   YZ=             -0.2905

 Normal termination of Gaussian 09 at Wed Aug 26 11:22:14 2020.
