 Gaussian 09, Revision D.01,
 Gaussian 09:  ES64L-G09RevD.01 24-Apr-2013

 --------------------
 #p B2PLYPD3/Def2QZVP
 --------------------

 ----------
 butane_opt
 ----------
 Symbolic Z-matrix:
 Charge =  0 Multiplicity = 1

                         Standard orientation:
 ---------------------------------------------------------------------
 Center     Atomic      Atomic             Coordinates (Angstroms)
 Number     Number       Type             X           Y           Z
 ---------------------------------------------------------------------
      1          6           0        1.876756    0.159156    0.041840
      2          6           0        0.509039   -0.574243   -0.009956
      3          1           0        2.692262   -0.627472   -0.587881
      4          1           0        2.525663    1.520212    1.277210
      5          1           0        1.788090    0.211922   -0.478970
      6          6           0       -0.611039    0.472308   -0.170865
      7          1           0        0.374794   -1.126140    0.936487
      8          1           0        0.403180   -1.463304   -1.008680
      9          6           0       -1.878081   -0.045008    0.181911
     10          1           0       -0.670191    1.314541   -1.358404
     11          1           0       -0.101090    0.860645    0.514114
     12          1           0       -1.759218   -0.732844   -0.574243
     13          1           0       -2.786729    0.754541   -0.289404
     14          1           0       -1.846804   -0.785385    1.312194
 ---------------------------------------------------------------------

 SCF Done:  E(RB2PLYPD3) =  -156.936940343     A.U. after   13 cycles
 E2(B2PLYPD3) =    -0.2662535051D+00 E(B2PLYPD3) =    -0.15720319384800D+03

 The electronic state is 1-A.
 Alpha  occ. eigenvalues --  -10.66124 -10.65675 -10.63465 -10.62192  -0.98150
 Alpha  occ. eigenvalues --   -0.90811  -0.75811  -0.65790  -0.53297  -0.49129
 Alpha  occ. eigenvalues --   -0.47573  -0.44668  -0.40593  -0.39279  -0.37066
 Alpha  occ. eigenvalues --   -0.35878  -0.32621
 Alpha virt. eigenvalues --   -0.04646   0.03764   0.04652   0.05591   0.09316
 Alpha virt. eigenvalues --    0.10562   0.11569   0.12427   0.13193   0.14883
 Alpha virt. eigenvalues --    0.14997   0.15866   0.17224   0.18341   0.19356

 Mulliken charges:
               1
     1  C   -1.078907
     2  C   -0.001378
     3  H    0.054539
     4  H    0.062226
     5  H    0.885689
     6  C   -0.107406
     7  H    0.062691
     8  H   -0.001183
     9  C   -0.159398
    10  H    0.010193
    11  H    0.115591
    12  H    0.073954
    13  H    0.046558
    14  H    0.036832
 Sum of Mulliken charges =   0.00000

 Dipole moment (field-independent basis, Debye):
    X=             -0.0722    Y=              0.0179    Z=             -0.2553  Tot=              0.2659
 Quadrupole moment (field-independent basis, Debye-Ang):
   XX=            -32.4632   YY=            -30.0530   ZZ=            -28.2171
   XY=              0.5325   XZ=              0.3755   YZ=              0.2775

 Normal termination of Gaussian 09 at Wed Aug 26 10:30:23 2020.
