 Gaussian 09, Revision D.01,
 Gaussian 09:  ES64L-G09RevD.01 24-Apr-2013

 --------------------
 #p B2PLYPD3/Def2QZVP
 --------------------

 ----------
 butane_opt
 ----------
 Symbolic Z-matrix:
 Charge =  0 Multiplicity = 1

                         Standard orientation:
 ---------------------------------------------------------------------
 Center     Atomic      Atomic             Coordinates (Angstroms)
 Number     Number       Type             X           Y           Z
 ---------------------------------------------------------------------
      1          6           0        1.923803   -0.229736   -0.141356
      2          6           0        0.563392    0.558331    0.039589
      3          1           0        2.563363    0.403464   -0.571157
      4          1           0        1.796035   -0.564500   -0.753007
      5          1           0        2.458990   -0.832194    0.989550
      6          6           0       -0.609731   -0.377755    0.161520
      7          1           0        0.173535    1.005471   -0.703304
      8          1           0        0.777750    1.613281    1.104564
      9          6           0       -1.873981    0.058718   -0.075702
     10          1           0       -0.484954   -1.108994    1.237196
     11          1           0       -0.362560   -1.076179   -0.548861
     12          1           0       -2.261272    0.896585    0.728826
     13          1           0       -2.836271   -1.020687   -0.374464
     14          1           0       -1.845516    0.626405   -1.013651
 ---------------------------------------------------------------------

 SCF Done:  E(RB2PLYPD3) =  -157.676738730     A.U. after   11 cycles
 E2(B2PLYPD3) =    -0.2538888125D+00 E(B2PLYPD3) =    -0.15793062754274D+03

 The electronic state is 1-A.
 Alpha  occ. eigenvalues --  -10.64418 -10.63794 -10.61458 -10.59226  -0.95638
 Alpha  occ. eigenvalues --   -0.88698  -0.75782  -0.65930  -0.54581  -0.51464
 Alpha  occ. eigenvalues --   -0.50889  -0.46137  -0.43364  -0.40829  -0.38648
 Alpha  occ. eigenvalues --   -0.35129  -0.33719
 Alpha virt. eigenvalues --    0.03681   0.04850   0.06962   0.07534   0.09752
 Alpha virt. eigenvalues --    0.09985   0.11068   0.12849   0.13734   0.15230
 Alpha virt. eigenvalues --    0.15983   0.16439   0.18592   0.19028   0.20474

 Mulliken charges:
               1
     1  C   -0.547979
     2  C   -0.066594
     3  H    0.062189
     4  H    0.408888
     5  H    0.070784
     6  C    0.001243
     7  H    0.092725
     8  H   -0.027786
     9  C   -0.174768
    10  H   -0.001522
    11  H    0.056109
    12  H    0.058422
    13  H    0.026284
    14  H    0.042005
 Sum of Mulliken charges =   0.00000

 Dipole moment (field-independent basis, Debye):
    X=              0.4074    Y=             -0.1703    Z=             -1.0798  Tot=              1.1666
 Quadrupole moment (field-independent basis, Debye-Ang):
   XX=            -30.2910   YY=            -30.3489   ZZ=            -28.7056
   XY=             -0.7246   XZ=             -0.0122   YZ=             -0.2523

 Normal termination of Gaussian 09 at Wed Aug 26 10:47:04 2020.
