 Gaussian 09, Revision D.01,
 Gaussian 09:  ES64L-G09RevD.01 24-Apr-2013

 --------------------
 #p B2PLYPD3/Def2QZVP
 --------------------

 ----------
 butane_opt
 ----------
 Symbolic Z-matrix:
 Charge =  0 Multiplicity = 1

                         Standard orientation:
 ---------------------------------------------------------------------
 Center     Atomic      Atomic             Coordinates (Angstroms)
 Number     Number       Type             X           Y           Z
 ---------------------------------------------------------------------
      1          6           0        1.969906    0.067937   -0.188011
      2          6           0        0.653797   -0.449485    0.183108
      3          1           0        2.629320   -0.688326   -0.410986
      4          1           0        2.380777    0.724057    0.654849
      5          1           0        1.972230    0.866900   -1.145357
      6          6           0       -0.559735    0.503010    0.224535
      7          1           0        0.669571   -1.387711    1.297032
      8          1           0        0.227845   -0.987328   -0.572562
      9          6           0       -2.052575   -0.165574   -0.104714
     10          1           0       -0.339660    0.854467   -0.638990
     11          1           0       -0.413913    1.545615    1.302639
     12          1           0       -1.717943   -0.639624   -0.980367
     13          1           0       -2.816970    0.573042   -0.814023
     14          1           0       -2.659620   -0.596418    0.618249
 ---------------------------------------------------------------------

 SCF Done:  E(RB2PLYPD3) =  -157.923552938     A.U. after   11 cycles
 E2(B2PLYPD3) =    -0.2536444497D+00 E(B2PLYPD3) =    -0.15817719738767D+03

 The electronic state is 1-A.
 Alpha  occ. eigenvalues --  -10.64718 -10.63891 -10.63200 -10.62217  -0.92656
 Alpha  occ. eigenvalues --   -0.83380  -0.74626  -0.64749  -0.54255  -0.50635
 Alpha  occ. eigenvalues --   -0.49101  -0.47551  -0.41507  -0.40400  -0.40087
 Alpha  occ. eigenvalues --   -0.34692  -0.34042
 Alpha virt. eigenvalues --    0.04955   0.05832   0.06189   0.07152   0.10035
 Alpha virt. eigenvalues --    0.11268   0.11800   0.12540   0.14195   0.14542
 Alpha virt. eigenvalues --    0.15629   0.16905   0.17566   0.19112   0.20139

 Mulliken charges:
               1
     1  C   -0.124680
     2  C   -0.051050
     3  H    0.075502
     4  H    0.054535
     5  H    0.011289
     6  C   -0.147513
     7  H   -0.023943
     8  H    0.067576
     9  C   -0.149039
    10  H    0.141127
    11  H   -0.015751
    12  H    0.057041
    13  H    0.021269
    14  H    0.083638
 Sum of Mulliken charges =   0.00000

 Dipole moment (field-independent basis, Debye):
    X=              0.0787    Y=             -0.3675    Z=             -0.9690  Tot=              1.0394
 Quadrupole moment (field-independent basis, Debye-Ang):
   XX=            -28.4409   YY=            -31.2739   ZZ=            -29.2581
   XY=              0.8588   XZ=              0.0006   YZ=             -0.1543

 Normal termination of Gaussian 09 at Wed Aug 26 13:11:55 2020.
