 Gaussian 09, Revision D.01,
 Gaussian 09:  ES64L-G09RevD.01 24-Apr-2013

 --------------------
 #p B2PLYPD3/Def2QZVP
 --------------------

 ----------
 butane_opt
 ----------
 Symbolic Z-matrix:
 Charge =  0 Multiplicity = 1

                         Standard orientation:
 ---------------------------------------------------------------------
 Center     Atomic      Atomic             Coordinates (Angstroms)
 Number     Number       Type             X           Y           Z
 ---------------------------------------------------------------------
      1          6           0        2.056239   -0.135749   -0.129270
      2          6           0        0.553876    0.536152    0.187001
      3          1           0        2.673163    0.485599   -0.448989
      4          1           0        1.801115   -0.526670   -0.966706
      5          1           0        2.559804   -1.014578    0.988872
      6          6           0       -0.598831   -0.548319    0.097819
      7          1           0        0.600705    1.080647   -0.617299
      8          1           0        0.428130    1.345758    1.101380
      9          6           0       -1.994637    0.129522   -0.071167
     10          1           0       -0.564787   -0.815992    0.763744
     11          1           0       -0.584322   -1.146690   -0.855327
     12          1           0       -2.251670    0.408994    0.697557
     13          1           0       -2.902543   -0.796436   -0.105470
     14          1           0       -1.859477    1.089734   -1.064061
 ---------------------------------------------------------------------

 SCF Done:  E(RB2PLYPD3) =  -157.668145945     A.U. after   11 cycles
 E2(B2PLYPD3) =    -0.2512126426D+00 E(B2PLYPD3) =    -0.15791935858718D+03

 The electronic state is 1-A.
 Alpha  occ. eigenvalues --  -10.62268 -10.62115 -10.61506 -10.58248  -0.92659
 Alpha  occ. eigenvalues --   -0.85009  -0.75732  -0.70144  -0.57900  -0.50675
 Alpha  occ. eigenvalues --   -0.46952  -0.45804  -0.42520  -0.40920  -0.38789
 Alpha  occ. eigenvalues --   -0.36862  -0.34938
 Alpha virt. eigenvalues --    0.04490   0.05103   0.07994   0.08257   0.10220
 Alpha virt. eigenvalues --    0.10682   0.11630   0.12330   0.13963   0.15276
 Alpha virt. eigenvalues --    0.15845   0.16742   0.18120   0.18868   0.20774

 Mulliken charges:
               1
     1  C   -0.198369
     2  C   -0.092635
     3  H    0.077982
     4  H    0.090175
     5  H    0.015824
     6  C   -0.460963
     7  H    0.082932
     8  H    0.023562
     9  C   -0.226827
    10  H    0.413652
    11  H    0.072025
    12  H    0.145402
    13  H    0.016528
    14  H    0.040710
 Sum of Mulliken charges =   0.00000

 Dipole moment (field-independent basis, Debye):
    X=             -0.0793    Y=              0.2789    Z=             -0.1690  Tot=              0.3356
 Quadrupole moment (field-independent basis, Debye-Ang):
   XX=            -31.3263   YY=            -29.4053   ZZ=            -27.6300
   XY=              1.5135   XZ=             -2.3696   YZ=             -0.5630

 Normal termination of Gaussian 09 at Wed Aug 26 16:34:13 2020.
