 Gaussian 09, Revision D.01,
 Gaussian 09:  ES64L-G09RevD.01 24-Apr-2013

 --------------------
 #p B2PLYPD3/Def2QZVP
 --------------------

 ----------
 butane_opt
 ----------
 Symbolic Z-matrix:
 Charge =  0 Multiplicity = 1

                         Standard orientation:
 ---------------------------------------------------------------------
 Center     Atomic      Atomic             Coordinates (Angstroms)
 Number     Number       Type             X           Y           Z
 ---------------------------------------------------------------------
      1          6           0       -1.951909   -0.108512    0.059592
      2          6           0       -0.636326    0.498469    0.021888
      3          1           0       -2.788608    0.785259   -0.434423
      4          1           0       -2.436722   -0.982964    1.087284
      5          1           0       -1.673775   -0.570534   -0.655681
      6          6           0        0.592869   -0.558563   -0.074791
      7          1           0       -0.697697    0.813207    0.766669
      8          1           0       -0.593976    1.339894   -0.990689
      9          6           0        2.070890    0.084288    0.049244
     10          1           0        0.414053   -1.015486   -0.963172
     11          1           0        0.363042   -1.094442    0.634635
     12          1           0        1.710252    0.544938   -0.515547
     13          1           0        2.721844   -0.382674   -0.447241
     14          1           0        2.528447    1.068712    1.182566
 ---------------------------------------------------------------------

 SCF Done:  E(RB2PLYPD3) =  -157.608866832     A.U. after   11 cycles
 E2(B2PLYPD3) =    -0.2537477338D+00 E(B2PLYPD3) =    -0.15786261456567D+03

 The electronic state is 1-A.
 Alpha  occ. eigenvalues --  -10.62330 -10.60361 -10.60117 -10.59619  -0.95437
 Alpha  occ. eigenvalues --   -0.88726  -0.75686  -0.70544  -0.56500  -0.52582
 Alpha  occ. eigenvalues --   -0.49448  -0.46671  -0.41815  -0.39282  -0.38457
 Alpha  occ. eigenvalues --   -0.36388  -0.34595
 Alpha virt. eigenvalues --    0.03767   0.04635   0.05607   0.08076   0.10524
 Alpha virt. eigenvalues --    0.11192   0.11394   0.12419   0.14475   0.15577
 Alpha virt. eigenvalues --    0.15702   0.16790   0.18061   0.18709   0.20071

 Mulliken charges:
               1
     1  C   -0.279928
     2  C   -0.249247
     3  H    0.047472
     4  H    0.039670
     5  H    0.153112
     6  C   -0.096323
     7  H    0.243431
     8  H    0.018481
     9  C   -0.381833
    10  H    0.050088
    11  H    0.100632
    12  H    0.257148
    13  H    0.067232
    14  H    0.030065
 Sum of Mulliken charges =   0.00000

 Dipole moment (field-independent basis, Debye):
    X=             -0.0738    Y=             -0.1509    Z=             -0.6081  Tot=              0.6309
 Quadrupole moment (field-independent basis, Debye-Ang):
   XX=            -31.4526   YY=            -29.3078   ZZ=            -27.8879
   XY=             -0.3334   XZ=             -1.1397   YZ=             -0.0437

 Normal termination of Gaussian 09 at Wed Aug 26 22:31:03 2020.
