 Gaussian 09, Revision D.01,
 Gaussian 09:  ES64L-G09RevD.01 24-Apr-2013

 --------------------
 #p B2PLYPD3/Def2QZVP
 --------------------

 ----------
 butane_opt
 ----------
 Symbolic Z-matrix:
 Charge =  0 Multiplicity = 1

                         Standard orientation:
 ---------------------------------------------------------------------
 Center     Atomic      Atomic             Coordinates (Angstroms)
 Number     Number       Type             X           Y           Z
 ---------------------------------------------------------------------
      1          6           0        1.942412    0.154464    0.060522
      2          6           0        0.570437   -0.494255   -0.044356
      3          1           0        2.844366   -0.695512   -0.302324
      4          1           0        2.206036    1.127674    1.121796
      5          1           0        1.978352    0.392941   -0.524528
      6          6           0       -0.603526    0.461082   -0.095955
      7          1           0        0.286788   -1.187600    0.881257
      8          1           0        0.555965   -1.250680   -0.995285
      9          6           0       -1.925355   -0.102824    0.083203
     10          1           0       -0.491181    1.326513   -1.101163
     11          1           0       -0.411084    0.944885    0.587472
     12          1           0       -2.105259   -0.632633   -0.703725
     13          1           0       -2.744376    0.617814   -0.081290
     14          1           0       -2.023420   -0.754203    1.097302
 ---------------------------------------------------------------------

 SCF Done:  E(RB2PLYPD3) =  -157.556154082     A.U. after   11 cycles
 E2(B2PLYPD3) =    -0.2509692946D+00 E(B2PLYPD3) =    -0.15780712337678D+03

 The electronic state is 1-A.
 Alpha  occ. eigenvalues --  -10.63390 -10.61794 -10.59716 -10.59593  -0.94491
 Alpha  occ. eigenvalues --   -0.88486  -0.76415  -0.67587  -0.53714  -0.50841
 Alpha  occ. eigenvalues --   -0.48074  -0.47254  -0.41825  -0.41475  -0.40127
 Alpha  occ. eigenvalues --   -0.36401  -0.35966
 Alpha virt. eigenvalues --    0.04386   0.05972   0.06781   0.07241   0.10378
 Alpha virt. eigenvalues --    0.11495   0.12479   0.12801   0.14627   0.15228
 Alpha virt. eigenvalues --    0.15549   0.16091   0.18146   0.19412   0.21188

 Mulliken charges:
               1
     1  C   -0.804139
     2  C    0.049316
     3  H    0.057842
     4  H    0.050225
     5  H    0.617517
     6  C   -0.154252
     7  H    0.019873
     8  H    0.007855
     9  C   -0.131198
    10  H   -0.017998
    11  H    0.169621
    12  H    0.061053
    13  H    0.038777
    14  H    0.035509
 Sum of Mulliken charges =   0.00000

 Dipole moment (field-independent basis, Debye):
    X=             -0.2901    Y=              0.1237    Z=             -0.2329  Tot=              0.3921
 Quadrupole moment (field-independent basis, Debye-Ang):
   XX=            -29.8632   YY=            -29.4995   ZZ=            -28.2738
   XY=              0.3158   XZ=             -0.6765   YZ=              0.6243

 Normal termination of Gaussian 09 at Wed Aug 26 14:12:01 2020.
