 Gaussian 09, Revision D.01,
 Gaussian 09:  ES64L-G09RevD.01 24-Apr-2013

 --------------------
 #p B2PLYPD3/Def2QZVP
 --------------------

 ----------
 butane_opt
 ----------
 Symbolic Z-matrix:
 Charge =  0 Multiplicity = 1

                         Standard orientation:
 ---------------------------------------------------------------------
 Center     Atomic      Atomic             Coordinates (Angstroms)
 Number     Number       Type             X           Y           Z
 ---------------------------------------------------------------------
      1          6           0        2.040570   -0.145563   -0.049471
      2          6           0        0.551202    0.541065    0.069817
      3          1           0        2.776679    0.513240   -0.338680
      4          1           0        1.920189   -0.498194   -0.755613
      5          1           0        2.303658   -1.048881    0.944886
      6          6           0       -0.645506   -0.484053   -0.008160
      7          1           0        0.403961    1.135687   -0.838603
      8          1           0        0.450469    1.397753    1.052934
      9          6           0       -1.954483    0.093457    0.018276
     10          1           0       -0.384290   -1.136456    0.796351
     11          1           0       -0.606346   -1.158051   -0.877409
     12          1           0       -2.028520    0.634300    0.816519
     13          1           0       -2.750595   -0.683058   -0.091383
     14          1           0       -2.035901    0.814225   -0.891776
 ---------------------------------------------------------------------

 SCF Done:  E(RB2PLYPD3) =  -157.933249252     A.U. after   11 cycles
 E2(B2PLYPD3) =    -0.2485233825D+00 E(B2PLYPD3) =    -0.15818177263469D+03

 The electronic state is 1-A.
 Alpha  occ. eigenvalues --  -10.63815 -10.60026 -10.59628 -10.59011  -0.91680
 Alpha  occ. eigenvalues --   -0.85829  -0.74104  -0.66196  -0.54305  -0.50513
 Alpha  occ. eigenvalues --   -0.49616  -0.46409  -0.43711  -0.40864  -0.38685
 Alpha  occ. eigenvalues --   -0.37516  -0.35809
 Alpha virt. eigenvalues --    0.05506   0.06462   0.07626   0.08616   0.10634
 Alpha virt. eigenvalues --    0.11528   0.12895   0.13017   0.14947   0.15117
 Alpha virt. eigenvalues --    0.15761   0.16330   0.18630   0.19938   0.20751

 Mulliken charges:
               1
     1  C   -0.375642
     2  C   -0.056579
     3  H    0.058697
     4  H    0.272216
     5  H    0.034496
     6  C   -0.015041
     7  H    0.033348
     8  H    0.007343
     9  C   -0.147782
    10  H    0.029604
    11  H    0.016356
    12  H    0.070210
    13  H    0.047257
    14  H    0.025518
 Sum of Mulliken charges =   0.00000

 Dipole moment (field-independent basis, Debye):
    X=             -0.0890    Y=             -0.1640    Z=             -0.4587  Tot=              0.4952
 Quadrupole moment (field-independent basis, Debye-Ang):
   XX=            -29.4931   YY=            -29.1490   ZZ=            -28.2597
   XY=              0.5289   XZ=             -0.8793   YZ=             -0.2271

 Normal termination of Gaussian 09 at Wed Aug 26 11:58:14 2020.
