 Gaussian 09, Revision D.01,
 Gaussian 09:  ES64L-G09RevD.01 24-Apr-2013

 --------------------
 #p B2PLYPD3/Def2QZVP
 --------------------

 ----------
 butane_opt
 ----------
 Symbolic Z-matrix:
 Charge =  0 Multiplicity = 1

                         Standard orientation:
 ---------------------------------------------------------------------
 Center     Atomic      Atomic             Coordinates (Angstroms)
 Number     Number       Type             X           Y           Z
 ---------------------------------------------------------------------
      1          6           0       -2.013289   -0.175090   -0.102668
      2          6           0       -0.554988    0.588188    0.104271
      3          1           0       -2.710740    0.413958   -0.278882
      4          1           0       -2.345569   -0.726237    0.776982
      5          1           0       -2.056557   -0.618249   -0.857755
      6          6           0        0.643679   -0.513580    0.145074
      7          1           0       -0.168080    1.644793    1.075043
      8          1           0       -0.329349    0.834521   -0.517270
      9          6           0        1.851709    0.123908   -0.164941
     10          1           0        0.570835   -1.135645   -0.624903
     11          1           0        0.648309   -1.043628    0.999512
     12          1           0        1.903051    0.841534   -1.153545
     13          1           0        2.665361   -0.821685    0.087987
     14          1           0        2.260073    0.470080    0.602417
 ---------------------------------------------------------------------

 SCF Done:  E(RB2PLYPD3) =  -157.674190107     A.U. after   11 cycles
 E2(B2PLYPD3) =    -0.2492609183D+00 E(B2PLYPD3) =    -0.15792345102508D+03

 The electronic state is 1-A.
 Alpha  occ. eigenvalues --  -10.60989 -10.60253 -10.57914 -10.56954  -0.94064
 Alpha  occ. eigenvalues --   -0.86557  -0.78581  -0.69849  -0.56215  -0.51160
 Alpha  occ. eigenvalues --   -0.49068  -0.48006  -0.44547  -0.42050  -0.39822
 Alpha  occ. eigenvalues --   -0.37456  -0.32804
 Alpha virt. eigenvalues --    0.04750   0.06700   0.07304   0.08569   0.10702
 Alpha virt. eigenvalues --    0.11663   0.12280   0.13804   0.14350   0.15383
 Alpha virt. eigenvalues --    0.15997   0.17176   0.18522   0.19199   0.20932

 Mulliken charges:
               1
     1  C   -0.151568
     2  C   -0.619153
     3  H    0.051210
     4  H    0.047036
     5  H    0.090926
     6  C   -0.010148
     7  H    0.011258
     8  H    0.523559
     9  C   -0.173364
    10  H    0.064276
    11  H    0.039256
    12  H    0.058242
    13  H   -0.003907
    14  H    0.072379
 Sum of Mulliken charges =   0.00000

 Dipole moment (field-independent basis, Debye):
    X=             -0.2158    Y=             -0.2853    Z=             -0.3392  Tot=              0.4930
 Quadrupole moment (field-independent basis, Debye-Ang):
   XX=            -28.7525   YY=            -29.2006   ZZ=            -27.5188
   XY=              0.7666   XZ=              1.7268   YZ=             -0.9751

 Normal termination of Gaussian 09 at Wed Aug 26 14:54:01 2020.
