 Gaussian 09, Revision D.01,
 Gaussian 09:  ES64L-G09RevD.01 24-Apr-2013

 --------------------
 #p B2PLYPD3/Def2QZVP
 --------------------

 ----------
 butane_opt
 ----------
 Symbolic Z-matrix:
 Charge =  0 Multiplicity = 1

                         Standard orientation:
 ---------------------------------------------------------------------
 Center     Atomic      Atomic             Coordinates (Angstroms)
 Number     Number       Type             X           Y           Z
 ---------------------------------------------------------------------
      1          6           0        1.952944   -0.066981   -0.096768
      2          6           0        0.519148    0.500489    0.198145
      3          1           0        2.695342    0.378429   -0.363356
      4          1           0        1.782781   -0.496352   -0.932876
      5          1           0        2.364870   -0.911517    0.872964
      6          6           0       -0.553063   -0.515766   -0.008699
      7          1           0        0.184934    1.092142   -0.685584
      8          1           0        0.213725    1.288353    1.163867
      9          6           0       -1.858835    0.072515   -0.112212
     10          1           0       -0.719410   -1.299976    0.967424
     11          1           0       -0.246452   -0.741477   -0.758439
     12          1           0       -2.103922    0.604017    0.789987
     13          1           0       -2.539242   -0.564574    0.007750
     14          1           0       -1.993797    0.709407   -0.944535
 ---------------------------------------------------------------------

 SCF Done:  E(RB2PLYPD3) =  -157.890644261     A.U. after   11 cycles
 E2(B2PLYPD3) =    -0.2487550422D+00 E(B2PLYPD3) =    -0.15813939930296D+03

 The electronic state is 1-A.
 Alpha  occ. eigenvalues --  -10.63086 -10.59810 -10.58656 -10.56768  -0.95279
 Alpha  occ. eigenvalues --   -0.85897  -0.77331  -0.66765  -0.56505  -0.53587
 Alpha  occ. eigenvalues --   -0.48681  -0.47966  -0.44502  -0.40420  -0.39613
 Alpha  occ. eigenvalues --   -0.37287  -0.35094
 Alpha virt. eigenvalues --    0.05693   0.06580   0.07767   0.08659   0.10444
 Alpha virt. eigenvalues --    0.11875   0.12883   0.13489   0.14827   0.15314
 Alpha virt. eigenvalues --    0.16360   0.17137   0.19331   0.19927   0.21205

 Mulliken charges:
               1
     1  C   -0.175689
     2  C   -0.053162
     3  H    0.070607
     4  H    0.064474
     5  H    0.016008
     6  C   -0.186100
     7  H    0.040602
     8  H    0.014125
     9  C   -0.105071
    10  H    0.008077
    11  H    0.195278
    12  H    0.023580
    13  H    0.054865
    14  H    0.032405
 Sum of Mulliken charges =   0.00000

 Dipole moment (field-independent basis, Debye):
    X=             -0.1906    Y=              0.0498    Z=             -0.6648  Tot=              0.6933
 Quadrupole moment (field-independent basis, Debye-Ang):
   XX=            -28.1201   YY=            -30.3734   ZZ=            -27.7782
   XY=              0.2776   XZ=             -1.4894   YZ=             -0.4781

 Normal termination of Gaussian 09 at Wed Aug 26 16:38:06 2020.
