 Gaussian 09, Revision D.01,
 Gaussian 09:  ES64L-G09RevD.01 24-Apr-2013

 --------------------
 #p B2PLYPD3/Def2QZVP
 --------------------

 ----------
 butane_opt
 ----------
 Symbolic Z-matrix:
 Charge =  0 Multiplicity = 1

                         Standard orientation:
 ---------------------------------------------------------------------
 Center     Atomic      Atomic             Coordinates (Angstroms)
 Number     Number       Type             X           Y           Z
 ---------------------------------------------------------------------
      1          6           0        1.958800   -0.127919    0.045989
      2          6           0        0.558280    0.524509   -0.036621
      3          1           0        2.755430    0.625304    0.021000
      4          1           0        2.191306   -0.755125   -0.813026
      5          1           0        2.130010   -0.813244    0.983905
      6          6           0       -0.578033   -0.513661   -0.045759
      7          1           0        0.514161    1.350287   -1.021294
      8          1           0        0.469836    1.052226    0.719831
      9          6           0       -1.977527    0.132404    0.045436
     10          1           0       -0.440302   -1.151561    0.796511
     11          1           0       -0.552933   -1.211184   -0.960132
     12          1           0       -2.047332    0.894827    1.007269
     13          1           0       -2.754248   -0.690454   -0.076764
     14          1           0       -2.035046    0.606927   -0.711573
 ---------------------------------------------------------------------

 SCF Done:  E(RB2PLYPD3) =  -158.034240306     A.U. after   11 cycles
 E2(B2PLYPD3) =    -0.2470014916D+00 E(B2PLYPD3) =    -0.15828124179807D+03

 The electronic state is 1-A.
 Alpha  occ. eigenvalues --  -10.61010 -10.60940 -10.60808 -10.59518  -0.91093
 Alpha  occ. eigenvalues --   -0.83526  -0.73191  -0.67500  -0.53510  -0.49307
 Alpha  occ. eigenvalues --   -0.47814  -0.47272  -0.43165  -0.41118  -0.39040
 Alpha  occ. eigenvalues --   -0.37808  -0.37274
 Alpha virt. eigenvalues --    0.05693   0.06685   0.07740   0.08577   0.10856
 Alpha virt. eigenvalues --    0.12020   0.12704   0.13857   0.14583   0.15102
 Alpha virt. eigenvalues --    0.15561   0.16212   0.19512   0.19828   0.21840

 Mulliken charges:
               1
     1  C   -0.129934
     2  C   -0.087644
     3  H    0.043557
     4  H    0.043718
     5  H    0.029237
     6  C   -0.024409
     7  H   -0.007573
     8  H    0.092663
     9  C   -0.203502
    10  H    0.042862
    11  H    0.018188
    12  H    0.029458
    13  H    0.040625
    14  H    0.112754
 Sum of Mulliken charges =   0.00000

 Dipole moment (field-independent basis, Debye):
    X=              0.0507    Y=             -0.0151    Z=              0.0001  Tot=              0.0529
 Quadrupole moment (field-independent basis, Debye-Ang):
   XX=            -29.9183   YY=            -28.7716   ZZ=            -28.3949
   XY=              0.4387   XZ=              0.5418   YZ=              0.3116

 Normal termination of Gaussian 09 at Wed Aug 26 16:04:03 2020.
