 Gaussian 09, Revision D.01,
 Gaussian 09:  ES64L-G09RevD.01 24-Apr-2013

 --------------------
 #p B2PLYPD3/Def2QZVP
 --------------------

 ----------
 butane_opt
 ----------
 Symbolic Z-matrix:
 Charge =  0 Multiplicity = 1

                         Standard orientation:
 ---------------------------------------------------------------------
 Center     Atomic      Atomic             Coordinates (Angstroms)
 Number     Number       Type             X           Y           Z
 ---------------------------------------------------------------------
      1          6           0        1.921378    0.012819   -0.215611
      2          6           0        0.658880   -0.447000    0.214372
      3          1           0        2.487856   -0.515622   -0.323048
      4          1           0        2.093621    0.753418    0.523104
      5          1           0        1.907620    0.529515   -1.069511
      6          6           0       -0.536447    0.597798    0.178724
      7          1           0        0.533732   -1.379742    1.617679
      8          1           0        0.496643   -0.790796   -0.412110
      9          6           0       -1.959141   -0.157894   -0.169856
     10          1           0       -0.241863    1.157440   -0.720222
     11          1           0       -0.534918    1.457870    1.034520
     12          1           0       -2.294684   -1.172947   -1.154370
     13          1           0       -2.767581    0.484615   -0.068663
     14          1           0       -2.188448   -0.558090    0.526852
 ---------------------------------------------------------------------

 SCF Done:  E(RB2PLYPD3) =  -157.560116110     A.U. after   12 cycles
 E2(B2PLYPD3) =    -0.2517392251D+00 E(B2PLYPD3) =    -0.15781185533539D+03

 The electronic state is 1-A.
 Alpha  occ. eigenvalues --  -10.64426 -10.61010 -10.60633 -10.55139  -0.96551
 Alpha  occ. eigenvalues --   -0.86304  -0.78659  -0.70116  -0.57471  -0.53007
 Alpha  occ. eigenvalues --   -0.49228  -0.46231  -0.43142  -0.40917  -0.38970
 Alpha  occ. eigenvalues --   -0.38108  -0.33281
 Alpha virt. eigenvalues --    0.03345   0.04642   0.06070   0.07857   0.11120
 Alpha virt. eigenvalues --    0.11546   0.11871   0.13858   0.14416   0.15066
 Alpha virt. eigenvalues --    0.15985   0.16479   0.18650   0.19122   0.20044

 Mulliken charges:
               1
     1  C   -0.279922
     2  C   -0.495223
     3  H    0.207114
     4  H    0.056114
     5  H    0.026809
     6  C   -0.021931
     7  H   -0.042476
     8  H    0.506450
     9  C   -0.274712
    10  H    0.042273
    11  H    0.033868
    12  H    0.024746
    13  H    0.037611
    14  H    0.179279
 Sum of Mulliken charges =   0.00000

 Dipole moment (field-independent basis, Debye):
    X=              0.0551    Y=              0.5086    Z=             -0.5069  Tot=              0.7202
 Quadrupole moment (field-independent basis, Debye-Ang):
   XX=            -27.7628   YY=            -29.3265   ZZ=            -28.9888
   XY=              0.1913   XZ=             -2.2184   YZ=              1.3428

 Normal termination of Gaussian 09 at Wed Aug 26 11:44:18 2020.
