 Gaussian 09, Revision D.01,
 Gaussian 09:  ES64L-G09RevD.01 24-Apr-2013

 --------------------
 #p B2PLYPD3/Def2QZVP
 --------------------

 ----------
 butane_opt
 ----------
 Symbolic Z-matrix:
 Charge =  0 Multiplicity = 1

                         Standard orientation:
 ---------------------------------------------------------------------
 Center     Atomic      Atomic             Coordinates (Angstroms)
 Number     Number       Type             X           Y           Z
 ---------------------------------------------------------------------
      1          6           0        1.944024    0.021805    0.094589
      2          6           0        0.584864   -0.448859   -0.128882
      3          1           0        2.662772   -0.716488   -0.276913
      4          1           0        2.252865    0.979769    1.265871
      5          1           0        2.131778    0.543388   -0.549444
      6          6           0       -0.567647    0.603490   -0.033423
      7          1           0        0.763551   -1.184489    0.752268
      8          1           0        0.376631   -1.271420   -1.193856
      9          6           0       -2.067651   -0.133406    0.120014
     10          1           0       -0.343621    1.657674   -1.103247
     11          1           0       -0.174225    0.920583    0.461855
     12          1           0       -2.238719   -0.708371   -0.810981
     13          1           0       -2.642880    0.483678    0.012264
     14          1           0       -2.149687   -0.962508    1.128395
 ---------------------------------------------------------------------

 SCF Done:  E(RB2PLYPD3) =  -157.547884488     A.U. after   11 cycles
 E2(B2PLYPD3) =    -0.2551317688D+00 E(B2PLYPD3) =    -0.15780301625708D+03

 The electronic state is 1-A.
 Alpha  occ. eigenvalues --  -10.64006 -10.62427 -10.62114 -10.60955  -0.93972
 Alpha  occ. eigenvalues --   -0.85663  -0.79596  -0.67706  -0.53917  -0.49942
 Alpha  occ. eigenvalues --   -0.48642  -0.44425  -0.44044  -0.41049  -0.37306
 Alpha  occ. eigenvalues --   -0.36653  -0.32747
 Alpha virt. eigenvalues --    0.03269   0.04368   0.05536   0.06876   0.10213
 Alpha virt. eigenvalues --    0.11387   0.12408   0.12638   0.13655   0.14877
 Alpha virt. eigenvalues --    0.15486   0.15896   0.17623   0.19157   0.20859

 Mulliken charges:
               1
     1  C   -0.264217
     2  C   -0.013301
     3  H    0.060234
     4  H    0.013261
     5  H    0.164290
     6  C   -0.566879
     7  H    0.039920
     8  H   -0.001809
     9  C   -0.207596
    10  H   -0.017517
    11  H    0.513841
    12  H    0.050663
    13  H    0.166929
    14  H    0.062181
 Sum of Mulliken charges =   0.00000

 Dipole moment (field-independent basis, Debye):
    X=             -0.1775    Y=             -0.1780    Z=             -0.0838  Tot=              0.2650
 Quadrupole moment (field-independent basis, Debye-Ang):
   XX=            -28.2348   YY=            -29.8084   ZZ=            -29.4455
   XY=              0.1939   XZ=             -0.7058   YZ=              0.2461

 Normal termination of Gaussian 09 at Wed Aug 26 22:30:46 2020.
