 Gaussian 09, Revision D.01,
 Gaussian 09:  ES64L-G09RevD.01 24-Apr-2013

 --------------------
 #p B2PLYPD3/Def2QZVP
 --------------------

 ----------
 butane_opt
 ----------
 Symbolic Z-matrix:
 Charge =  0 Multiplicity = 1

                         Standard orientation:
 ---------------------------------------------------------------------
 Center     Atomic      Atomic             Coordinates (Angstroms)
 Number     Number       Type             X           Y           Z
 ---------------------------------------------------------------------
      1          6           0        1.898762   -0.193213   -0.095335
      2          6           0        0.535051    0.635081    0.101722
      3          1           0        2.498469    0.221934   -0.656679
      4          1           0        1.745245   -1.185649   -0.980743
      5          1           0        2.596156   -0.480625    0.864700
      6          6           0       -0.615461   -0.353968    0.292698
      7          1           0        0.382251    1.121364   -0.972795
      8          1           0        0.489142    1.325340    0.686451
      9          6           0       -1.881347    0.029760   -0.161978
     10          1           0       -0.349795   -0.929078    1.361749
     11          1           0       -0.472262   -1.000509   -0.321387
     12          1           0       -2.235840    0.775707    0.623995
     13          1           0       -2.659952   -0.878899   -0.544240
     14          1           0       -1.615442    0.324461   -0.883699
 ---------------------------------------------------------------------

 SCF Done:  E(RB2PLYPD3) =  -157.844204772     A.U. after   11 cycles
 E2(B2PLYPD3) =    -0.2491132961D+00 E(B2PLYPD3) =    -0.15809331806824D+03

 The electronic state is 1-A.
 Alpha  occ. eigenvalues --  -10.62477 -10.60938 -10.58415 -10.58302  -0.95594
 Alpha  occ. eigenvalues --   -0.85058  -0.74744  -0.69111  -0.56501  -0.50201
 Alpha  occ. eigenvalues --   -0.49655  -0.48603  -0.43190  -0.39860  -0.38514
 Alpha  occ. eigenvalues --   -0.37175  -0.35764
 Alpha virt. eigenvalues --    0.04963   0.06263   0.07866   0.08613   0.10960
 Alpha virt. eigenvalues --    0.11842   0.11980   0.12664   0.14423   0.15597
 Alpha virt. eigenvalues --    0.16718   0.17430   0.18218   0.19209   0.21704

 Mulliken charges:
               1
     1  C   -0.174518
     2  C   -0.059702
     3  H    0.093691
     4  H    0.006898
     5  H    0.046834
     6  C   -0.098989
     7  H   -0.005187
     8  H    0.083734
     9  C   -0.328922
    10  H    0.001571
    11  H    0.126017
    12  H    0.049039
    13  H    0.035174
    14  H    0.224360
 Sum of Mulliken charges =   0.00000

 Dipole moment (field-independent basis, Debye):
    X=              0.3835    Y=              0.4025    Z=             -0.4194  Tot=              0.6964
 Quadrupole moment (field-independent basis, Debye-Ang):
   XX=            -29.8296   YY=            -29.4351   ZZ=            -27.9830
   XY=              0.7395   XZ=              0.4253   YZ=              1.0925

 Normal termination of Gaussian 09 at Wed Aug 26 15:50:15 2020.
