 Gaussian 09, Revision D.01,
 Gaussian 09:  ES64L-G09RevD.01 24-Apr-2013

 --------------------
 #p B2PLYPD3/Def2QZVP
 --------------------

 ----------
 butane_opt
 ----------
 Symbolic Z-matrix:
 Charge =  0 Multiplicity = 1

                         Standard orientation:
 ---------------------------------------------------------------------
 Center     Atomic      Atomic             Coordinates (Angstroms)
 Number     Number       Type             X           Y           Z
 ---------------------------------------------------------------------
      1          6           0        2.003902   -0.198770   -0.153576
      2          6           0        0.530732    0.560384    0.090596
      3          1           0        2.853430    0.517879   -0.668979
      4          1           0        1.814916   -0.585600   -0.683219
      5          1           0        2.506200   -0.790436    0.745465
      6          6           0       -0.561436   -0.454902    0.273554
      7          1           0        0.216759    0.805185   -0.633063
      8          1           0        0.417538    1.780183    1.113444
      9          6           0       -1.930865    0.086328   -0.156349
     10          1           0       -0.497922   -1.186443    1.303642
     11          1           0       -0.736156   -1.079572   -0.557871
     12          1           0       -2.244609    0.875551    0.631489
     13          1           0       -2.781729   -0.785734   -0.445077
     14          1           0       -1.802425    0.490745   -1.131188
 ---------------------------------------------------------------------

 SCF Done:  E(RB2PLYPD3) =  -157.625214733     A.U. after   12 cycles
 E2(B2PLYPD3) =    -0.2531364599D+00 E(B2PLYPD3) =    -0.15787835119310D+03

 The electronic state is 1-A.
 Alpha  occ. eigenvalues --  -10.63447 -10.63089 -10.62394 -10.60305  -0.94365
 Alpha  occ. eigenvalues --   -0.86335  -0.76970  -0.66442  -0.54843  -0.51513
 Alpha  occ. eigenvalues --   -0.48370  -0.47093  -0.42399  -0.40481  -0.39119
 Alpha  occ. eigenvalues --   -0.37736  -0.33216
 Alpha virt. eigenvalues --    0.04240   0.05676   0.06392   0.08235   0.10577
 Alpha virt. eigenvalues --    0.11032   0.11956   0.12517   0.14287   0.15201
 Alpha virt. eigenvalues --    0.16051   0.16503   0.18024   0.19214   0.19819

 Mulliken charges:
               1
     1  C   -0.645549
     2  C   -0.260257
     3  H    0.052718
     4  H    0.507961
     5  H    0.080501
     6  C   -0.070537
     7  H    0.279411
     8  H   -0.019038
     9  C   -0.164092
    10  H    0.028236
    11  H    0.054331
    12  H    0.054892
    13  H    0.038020
    14  H    0.063404
 Sum of Mulliken charges =   0.00000

 Dipole moment (field-independent basis, Debye):
    X=             -0.1269    Y=             -0.6284    Z=             -0.9749  Tot=              1.1669
 Quadrupole moment (field-independent basis, Debye-Ang):
   XX=            -29.6932   YY=            -30.2630   ZZ=            -28.3389
   XY=             -0.2659   XZ=              0.5654   YZ=             -0.1740

 Normal termination of Gaussian 09 at Wed Aug 26 19:29:53 2020.
