 Gaussian 09, Revision D.01,
 Gaussian 09:  ES64L-G09RevD.01 24-Apr-2013

 --------------------
 #p B2PLYPD3/Def2QZVP
 --------------------

 ----------
 butane_opt
 ----------
 Symbolic Z-matrix:
 Charge =  0 Multiplicity = 1

                         Standard orientation:
 ---------------------------------------------------------------------
 Center     Atomic      Atomic             Coordinates (Angstroms)
 Number     Number       Type             X           Y           Z
 ---------------------------------------------------------------------
      1          6           0       -1.989886   -0.123809   -0.107595
      2          6           0       -0.610618    0.475669    0.095763
      3          1           0       -2.921283    0.950501   -0.000149
      4          1           0       -2.138549   -0.967359    0.886217
      5          1           0       -2.172982   -0.686495   -0.895829
      6          6           0        0.595271   -0.578390    0.120257
      7          1           0       -0.704759    1.185759    0.841075
      8          1           0       -0.270202    1.279245   -0.880928
      9          6           0        2.014466    0.179975   -0.080878
     10          1           0        0.589864   -1.241336   -0.816080
     11          1           0        0.527173   -1.234692    0.942062
     12          1           0        1.746670    0.551703   -0.778411
     13          1           0        2.769939   -0.562475   -0.359876
     14          1           0        2.518733    1.004476    0.896635
 ---------------------------------------------------------------------

 SCF Done:  E(RB2PLYPD3) =  -157.911695124     A.U. after   11 cycles
 E2(B2PLYPD3) =    -0.2514047058D+00 E(B2PLYPD3) =    -0.15816309983004D+03

 The electronic state is 1-A.
 Alpha  occ. eigenvalues --  -10.64695 -10.63400 -10.62801 -10.60524  -0.90299
 Alpha  occ. eigenvalues --   -0.83906  -0.72670  -0.67414  -0.53815  -0.48691
 Alpha  occ. eigenvalues --   -0.47824  -0.46464  -0.42435  -0.41485  -0.38130
 Alpha  occ. eigenvalues --   -0.36746  -0.34950
 Alpha virt. eigenvalues --    0.04557   0.05777   0.07282   0.08115   0.09971
 Alpha virt. eigenvalues --    0.10342   0.12085   0.12735   0.14363   0.14648
 Alpha virt. eigenvalues --    0.15577   0.16191   0.18574   0.19777   0.20547

 Mulliken charges:
               1
     1  C   -0.192090
     2  C   -0.008034
     3  H    0.024626
     4  H    0.023831
     5  H    0.088875
     6  C   -0.044257
     7  H    0.067965
     8  H   -0.026340
     9  C   -0.316659
    10  H    0.028214
    11  H    0.050606
    12  H    0.219960
    13  H    0.053028
    14  H    0.030276
 Sum of Mulliken charges =   0.00000

 Dipole moment (field-independent basis, Debye):
    X=              0.1703    Y=             -0.3828    Z=             -0.2221  Tot=              0.4742
 Quadrupole moment (field-independent basis, Debye-Ang):
   XX=            -31.4586   YY=            -28.9590   ZZ=            -29.0194
   XY=             -0.4902   XZ=             -0.1084   YZ=              0.8413

 Normal termination of Gaussian 09 at Wed Aug 26 12:24:35 2020.
