 Gaussian 09, Revision D.01,
 Gaussian 09:  ES64L-G09RevD.01 24-Apr-2013

 --------------------
 #p B2PLYPD3/Def2QZVP
 --------------------

 ----------
 butane_opt
 ----------
 Symbolic Z-matrix:
 Charge =  0 Multiplicity = 1

                         Standard orientation:
 ---------------------------------------------------------------------
 Center     Atomic      Atomic             Coordinates (Angstroms)
 Number     Number       Type             X           Y           Z
 ---------------------------------------------------------------------
      1          6           0       -1.915710   -0.145033    0.070472
      2          6           0       -0.437215    0.578479   -0.084625
      3          1           0       -2.792172    0.726098    0.211454
      4          1           0       -1.918655   -0.797762    0.935798
      5          1           0       -2.170853   -0.940430   -1.010121
      6          6           0        0.515155   -0.459781   -0.039321
      7          1           0       -0.230836    1.205274    0.825865
      8          1           0       -0.504045    1.353253   -0.957056
      9          6           0        1.871522    0.025247   -0.021671
     10          1           0        0.335557   -0.899386   -0.609089
     11          1           0        0.539949   -1.470045    1.031636
     12          1           0        1.548593    0.395457   -0.705455
     13          1           0        2.625255   -0.535928   -0.487659
     14          1           0        2.364691    0.970000    1.215496
 ---------------------------------------------------------------------

 SCF Done:  E(RB2PLYPD3) =  -157.648148119     A.U. after   12 cycles
 E2(B2PLYPD3) =    -0.2555913864D+00 E(B2PLYPD3) =    -0.15790373950532D+03

 The electronic state is 1-A.
 Alpha  occ. eigenvalues --  -10.65248 -10.63008 -10.60780 -10.60679  -0.99499
 Alpha  occ. eigenvalues --   -0.84283  -0.74317  -0.69624  -0.55998  -0.53096
 Alpha  occ. eigenvalues --   -0.49239  -0.44862  -0.42384  -0.39593  -0.38219
 Alpha  occ. eigenvalues --   -0.37371  -0.31799
 Alpha virt. eigenvalues --    0.02182   0.05162   0.05845   0.08121   0.09122
 Alpha virt. eigenvalues --    0.10582   0.12439   0.12602   0.13721   0.14672
 Alpha virt. eigenvalues --    0.15379   0.16186   0.18220   0.20056   0.20617

 Mulliken charges:
               1
     1  C   -0.188592
     2  C   -0.004150
     3  H    0.042168
     4  H    0.093894
     5  H    0.014396
     6  C   -0.387242
     7  H    0.046386
     8  H    0.036299
     9  C   -0.287395
    10  H    0.373609
    11  H   -0.037869
    12  H    0.216927
    13  H    0.060831
    14  H    0.020739
 Sum of Mulliken charges =   0.00000

 Dipole moment (field-independent basis, Debye):
    X=             -0.0427    Y=              0.2875    Z=             -0.8371  Tot=              0.8861
 Quadrupole moment (field-independent basis, Debye-Ang):
   XX=            -31.2568   YY=            -29.9752   ZZ=            -28.7210
   XY=             -1.0121   XZ=             -1.1355   YZ=              0.9502

 Normal termination of Gaussian 09 at Wed Aug 26 13:12:54 2020.
