 Gaussian 09, Revision D.01,
 Gaussian 09:  ES64L-G09RevD.01 24-Apr-2013

 --------------------
 #p B2PLYPD3/Def2QZVP
 --------------------

 ----------
 butane_opt
 ----------
 Symbolic Z-matrix:
 Charge =  0 Multiplicity = 1

                         Standard orientation:
 ---------------------------------------------------------------------
 Center     Atomic      Atomic             Coordinates (Angstroms)
 Number     Number       Type             X           Y           Z
 ---------------------------------------------------------------------
      1          6           0        2.007689    0.132867   -0.112484
      2          6           0        0.597877   -0.529202    0.134148
      3          1           0        2.799706   -0.605737   -0.218977
      4          1           0        2.273945    0.695070    0.769581
      5          1           0        1.887136    0.782335   -1.065782
      6          6           0       -0.608563    0.518859    0.115324
      7          1           0        0.440798   -1.191112    1.048528
      8          1           0        0.391489   -1.141248   -0.666337
      9          6           0       -1.975193   -0.133462   -0.130746
     10          1           0       -0.501011    0.944312   -0.546579
     11          1           0       -0.493253    1.386972    1.081666
     12          1           0       -1.828560   -0.586815   -0.894370
     13          1           0       -2.734282    0.573093   -0.324303
     14          1           0       -2.366828   -0.791237    0.779118
 ---------------------------------------------------------------------

 SCF Done:  E(RB2PLYPD3) =  -157.953421659     A.U. after   11 cycles
 E2(B2PLYPD3) =    -0.2464813368D+00 E(B2PLYPD3) =    -0.15819990299619D+03

 The electronic state is 1-A.
 Alpha  occ. eigenvalues --  -10.61117 -10.60908 -10.59292 -10.58514  -0.91938
 Alpha  occ. eigenvalues --   -0.83750  -0.74263  -0.68850  -0.53992  -0.50193
 Alpha  occ. eigenvalues --   -0.48519  -0.48167  -0.42218  -0.41803  -0.39447
 Alpha  occ. eigenvalues --   -0.38242  -0.36688
 Alpha virt. eigenvalues --    0.05685   0.06883   0.08273   0.09002   0.10914
 Alpha virt. eigenvalues --    0.12229   0.12845   0.13379   0.14976   0.15463
 Alpha virt. eigenvalues --    0.16213   0.16415   0.18938   0.19237   0.22290

 Mulliken charges:
               1
     1  C   -0.150195
     2  C   -0.050788
     3  H    0.048111
     4  H    0.055333
     5  H    0.042278
     6  C   -0.303711
     7  H    0.031347
     8  H    0.048910
     9  C   -0.167474
    10  H    0.266471
    11  H    0.004392
    12  H    0.100680
    13  H    0.040745
    14  H    0.033901
 Sum of Mulliken charges =   0.00000

 Dipole moment (field-independent basis, Debye):
    X=              0.0223    Y=             -0.0934    Z=             -0.5299  Tot=              0.5385
 Quadrupole moment (field-independent basis, Debye-Ang):
   XX=            -28.9401   YY=            -29.1787   ZZ=            -27.9766
   XY=             -0.4393   XZ=              0.6410   YZ=             -0.3429

 Normal termination of Gaussian 09 at Wed Aug 26 18:39:45 2020.
