 Gaussian 09, Revision D.01,
 Gaussian 09:  ES64L-G09RevD.01 24-Apr-2013

 --------------------
 #p B2PLYPD3/Def2QZVP
 --------------------

 ----------
 butane_opt
 ----------
 Symbolic Z-matrix:
 Charge =  0 Multiplicity = 1

                         Standard orientation:
 ---------------------------------------------------------------------
 Center     Atomic      Atomic             Coordinates (Angstroms)
 Number     Number       Type             X           Y           Z
 ---------------------------------------------------------------------
      1          6           0        1.912711   -0.100089    0.132426
      2          6           0        0.588085    0.407613   -0.262817
      3          1           0        2.694605    0.751913    0.158802
      4          1           0        2.215091   -0.367679   -0.538736
      5          1           0        1.542423   -0.823640    1.204491
      6          6           0       -0.510775   -0.582368   -0.008966
      7          1           0        0.435719    1.067571   -1.351502
      8          1           0        0.528141    1.238382    0.546940
      9          6           0       -1.887910    0.239837    0.100845
     10          1           0       -0.554412   -1.279786    0.889030
     11          1           0       -0.518777   -1.387879   -0.826038
     12          1           0       -2.278496    1.454617    1.137226
     13          1           0       -2.725985   -0.776186   -0.588093
     14          1           0       -1.950978    0.332734   -0.401049
 ---------------------------------------------------------------------

 SCF Done:  E(RB2PLYPD3) =  -156.893182450     A.U. after   13 cycles
 E2(B2PLYPD3) =    -0.2602377291D+00 E(B2PLYPD3) =    -0.15715342017869D+03

 The electronic state is 1-A.
 Alpha  occ. eigenvalues --  -10.67079 -10.63462 -10.63024 -10.59616  -0.94258
 Alpha  occ. eigenvalues --   -0.89504  -0.77924  -0.66947  -0.54372  -0.51672
 Alpha  occ. eigenvalues --   -0.48317  -0.45042  -0.40265  -0.38834  -0.38574
 Alpha  occ. eigenvalues --   -0.35459  -0.33238
 Alpha virt. eigenvalues --    0.00043   0.04353   0.05484   0.06457   0.09555
 Alpha virt. eigenvalues --    0.09872   0.11262   0.12349   0.13137   0.14578
 Alpha virt. eigenvalues --    0.15277   0.16151   0.17893   0.18454   0.20389

 Mulliken charges:
               1
     1  C   -0.378708
     2  C   -0.035208
     3  H    0.034678
     4  H    0.251872
     5  H    0.074994
     6  C    0.029585
     7  H    0.020771
     8  H    0.040168
     9  C   -1.010643
    10  H    0.035375
    11  H    0.025512
    12  H    0.086635
    13  H   -0.029634
    14  H    0.854602
 Sum of Mulliken charges =   0.00000

 Dipole moment (field-independent basis, Debye):
    X=              0.7551    Y=              0.3514    Z=             -0.3845  Tot=              0.9173
 Quadrupole moment (field-independent basis, Debye-Ang):
   XX=            -33.2720   YY=            -28.4656   ZZ=            -28.2706
   XY=             -0.8761   XZ=             -0.6939   YZ=              0.6808

 Normal termination of Gaussian 09 at Wed Aug 26 16:34:38 2020.
