 Gaussian 09, Revision D.01,
 Gaussian 09:  ES64L-G09RevD.01 24-Apr-2013

 --------------------
 #p B2PLYPD3/Def2QZVP
 --------------------

 ----------
 butane_opt
 ----------
 Symbolic Z-matrix:
 Charge =  0 Multiplicity = 1

                         Standard orientation:
 ---------------------------------------------------------------------
 Center     Atomic      Atomic             Coordinates (Angstroms)
 Number     Number       Type             X           Y           Z
 ---------------------------------------------------------------------
      1          6           0        1.906782   -0.108975    0.038276
      2          6           0        0.584008    0.491715   -0.054415
      3          1           0        2.731054    0.645988    0.014848
      4          1           0        2.106515   -0.746563   -0.806892
      5          1           0        1.944655   -0.741974    0.981965
      6          6           0       -0.539935   -0.531434    0.012318
      7          1           0        0.492255    1.266336   -1.026877
      8          1           0        0.439058    1.119275    0.756320
      9          6           0       -1.933800    0.137048    0.004621
     10          1           0       -0.440592   -1.122395    0.858587
     11          1           0       -0.396048   -1.225364   -0.876578
     12          1           0       -2.174112    0.980650    1.007252
     13          1           0       -2.752604   -0.661747   -0.164974
     14          1           0       -2.052507    0.555673   -0.748452
 ---------------------------------------------------------------------

 SCF Done:  E(RB2PLYPD3) =  -158.030275865     A.U. after   11 cycles
 E2(B2PLYPD3) =    -0.2473730733D+00 E(B2PLYPD3) =    -0.15827764893812D+03

 The electronic state is 1-A.
 Alpha  occ. eigenvalues --  -10.60715 -10.60673 -10.60407 -10.60019  -0.92049
 Alpha  occ. eigenvalues --   -0.84225  -0.73548  -0.66667  -0.54136  -0.50116
 Alpha  occ. eigenvalues --   -0.48429  -0.46859  -0.42956  -0.41140  -0.39178
 Alpha  occ. eigenvalues --   -0.37622  -0.36760
 Alpha virt. eigenvalues --    0.05630   0.06500   0.07832   0.08269   0.10758
 Alpha virt. eigenvalues --    0.11749   0.12851   0.13404   0.14833   0.15128
 Alpha virt. eigenvalues --    0.15838   0.16198   0.19528   0.19927   0.21734

 Mulliken charges:
               1
     1  C   -0.139194
     2  C   -0.038402
     3  H    0.043217
     4  H    0.043101
     5  H    0.040017
     6  C   -0.024954
     7  H   -0.003373
     8  H    0.049254
     9  C   -0.222188
    10  H    0.051385
    11  H    0.017896
    12  H    0.024114
    13  H    0.031329
    14  H    0.127797
 Sum of Mulliken charges =   0.00000

 Dipole moment (field-independent basis, Debye):
    X=              0.1052    Y=             -0.0740    Z=             -0.1419  Tot=              0.1915
 Quadrupole moment (field-independent basis, Debye-Ang):
   XX=            -30.0676   YY=            -29.0267   ZZ=            -28.3004
   XY=              0.2572   XZ=              0.5531   YZ=              0.2127

 Normal termination of Gaussian 09 at Wed Aug 26 11:26:08 2020.
