 Gaussian 09, Revision D.01,
 Gaussian 09:  ES64L-G09RevD.01 24-Apr-2013

 --------------------
 #p B2PLYPD3/Def2QZVP
 --------------------

 ----------
 butane_opt
 ----------
 Symbolic Z-matrix:
 Charge =  0 Multiplicity = 1

                         Standard orientation:
 ---------------------------------------------------------------------
 Center     Atomic      Atomic             Coordinates (Angstroms)
 Number     Number       Type             X           Y           Z
 ---------------------------------------------------------------------
      1          6           0        1.884630   -0.111908   -0.261987
      2          6           0        0.650167    0.506353    0.329239
      3          1           0        2.582447    0.720872   -0.502236
      4          1           0        1.760714   -0.488131   -0.996765
      5          1           0        2.510218   -0.723604    0.643404
      6          6           0       -0.506991   -0.636957    0.125527
      7          1           0        0.306546    1.156330   -0.411132
      8          1           0        0.671276    1.201913    1.339452
      9          6           0       -2.015007    0.172243   -0.138534
     10          1           0       -0.544946   -1.324641    0.791518
     11          1           0       -0.291385   -1.082963   -0.682290
     12          1           0       -2.038326    0.369283    0.428721
     13          1           0       -2.696067   -0.524565    0.091160
     14          1           0       -2.337267    1.117124   -1.027305
 ---------------------------------------------------------------------

 SCF Done:  E(RB2PLYPD3) =  -157.449919501     A.U. after   11 cycles
 E2(B2PLYPD3) =    -0.2490943392D+00 E(B2PLYPD3) =    -0.15769901383982D+03

 The electronic state is 1-A.
 Alpha  occ. eigenvalues --  -10.61626 -10.59399 -10.58917 -10.58138  -0.92316
 Alpha  occ. eigenvalues --   -0.88039  -0.77920  -0.69545  -0.54590  -0.50567
 Alpha  occ. eigenvalues --   -0.47953  -0.46740  -0.45044  -0.42571  -0.40483
 Alpha  occ. eigenvalues --   -0.36492  -0.34407
 Alpha virt. eigenvalues --    0.05633   0.06273   0.08176   0.08859   0.10511
 Alpha virt. eigenvalues --    0.11411   0.12501   0.13988   0.14806   0.16037
 Alpha virt. eigenvalues --    0.16203   0.16707   0.18145   0.19965   0.21141

 Mulliken charges:
               1
     1  C   -0.257197
     2  C   -0.066212
     3  H    0.028244
     4  H    0.158295
     5  H    0.031427
     6  C   -0.048883
     7  H    0.060564
     8  H    0.036032
     9  C   -0.800967
    10  H    0.050792
    11  H    0.066582
    12  H    0.618095
    13  H    0.048007
    14  H    0.075220
 Sum of Mulliken charges =   0.00000

 Dipole moment (field-independent basis, Debye):
    X=             -0.0951    Y=              0.0432    Z=              0.0648  Tot=              0.1229
 Quadrupole moment (field-independent basis, Debye-Ang):
   XX=            -29.7501   YY=            -27.8032   ZZ=            -27.5069
   XY=              0.0334   XZ=             -0.9652   YZ=             -0.4917

 Normal termination of Gaussian 09 at Wed Aug 26 12:59:06 2020.
