 Gaussian 09, Revision D.01,
 Gaussian 09:  ES64L-G09RevD.01 24-Apr-2013

 --------------------
 #p B2PLYPD3/Def2QZVP
 --------------------

 ----------
 butane_opt
 ----------
 Symbolic Z-matrix:
 Charge =  0 Multiplicity = 1

                         Standard orientation:
 ---------------------------------------------------------------------
 Center     Atomic      Atomic             Coordinates (Angstroms)
 Number     Number       Type             X           Y           Z
 ---------------------------------------------------------------------
      1          6           0        1.920720   -0.125626   -0.130348
      2          6           0        0.522933    0.514285    0.189573
      3          1           0        2.721774    0.663885   -0.597966
      4          1           0        1.703014   -0.735729   -0.982330
      5          1           0        2.484588   -0.923683    0.853771
      6          6           0       -0.574762   -0.477785    0.085600
      7          1           0        0.427355    1.119224   -0.550796
      8          1           0        0.507761    1.333136    1.169263
      9          6           0       -1.870015    0.117589   -0.089666
     10          1           0       -0.490050   -1.313396    1.025531
     11          1           0       -0.511700   -1.007729   -0.780597
     12          1           0       -2.064653    0.580506    0.689188
     13          1           0       -2.648508   -0.705287   -0.166045
     14          1           0       -2.122833    0.818299   -0.990968
 ---------------------------------------------------------------------

 SCF Done:  E(RB2PLYPD3) =  -157.989361040     A.U. after   11 cycles
 E2(B2PLYPD3) =    -0.2495795087D+00 E(B2PLYPD3) =    -0.15823894054849D+03

 The electronic state is 1-A.
 Alpha  occ. eigenvalues --  -10.64101 -10.61352 -10.60807 -10.58681  -0.93507
 Alpha  occ. eigenvalues --   -0.83901  -0.71908  -0.67085  -0.55000  -0.49728
 Alpha  occ. eigenvalues --   -0.49165  -0.46096  -0.41847  -0.40625  -0.38666
 Alpha  occ. eigenvalues --   -0.37553  -0.36164
 Alpha virt. eigenvalues --    0.05181   0.06359   0.07646   0.07859   0.10420
 Alpha virt. eigenvalues --    0.11033   0.12432   0.13154   0.14914   0.15180
 Alpha virt. eigenvalues --    0.15425   0.16488   0.18957   0.20028   0.21066

 Mulliken charges:
               1
     1  C   -0.173550
     2  C   -0.064395
     3  H    0.038963
     4  H    0.068647
     5  H    0.024385
     6  C   -0.045903
     7  H    0.084210
     8  H    0.011138
     9  C   -0.146486
    10  H    0.016221
    11  H    0.055227
    12  H    0.076647
    13  H    0.030334
    14  H    0.024560
 Sum of Mulliken charges =   0.00000

 Dipole moment (field-independent basis, Debye):
    X=             -0.4193    Y=              0.1728    Z=             -0.5524  Tot=              0.7147
 Quadrupole moment (field-independent basis, Debye-Ang):
   XX=            -30.7605   YY=            -29.1589   ZZ=            -28.5138
   XY=              0.3437   XZ=             -0.4012   YZ=             -0.2830

 Normal termination of Gaussian 09 at Wed Aug 26 21:10:58 2020.
