 Gaussian 09, Revision D.01,
 Gaussian 09:  ES64L-G09RevD.01 24-Apr-2013

 --------------------
 #p B2PLYPD3/Def2QZVP
 --------------------

 ----------
 butane_opt
 ----------
 Symbolic Z-matrix:
 Charge =  0 Multiplicity = 1

                         Standard orientation:
 ---------------------------------------------------------------------
 Center     Atomic      Atomic             Coordinates (Angstroms)
 Number     Number       Type             X           Y           Z
 ---------------------------------------------------------------------
      1          6           0        1.893301   -0.177506    0.114564
      2          6           0        0.563714    0.592536   -0.020320
      3          1           0        2.526562    0.548710   -0.491228
      4          1           0        1.784881   -0.395893   -0.423217
      5          1           0        2.375914   -1.224358    1.154847
      6          6           0       -0.565960   -0.498139   -0.204462
      7          1           0        0.345438    1.559585   -0.991596
      8          1           0        0.247591    1.043913    0.818679
      9          6           0       -1.906067    0.052436    0.101758
     10          1           0       -0.444306   -0.850363    0.378279
     11          1           0       -0.432363   -1.104368   -1.348627
     12          1           0       -1.734766    0.801362    1.201133
     13          1           0       -2.676966   -0.667444    0.222982
     14          1           0       -1.901916    0.472889   -0.470500
 ---------------------------------------------------------------------

 SCF Done:  E(RB2PLYPD3) =  -156.952874136     A.U. after   12 cycles
 E2(B2PLYPD3) =    -0.2544267774D+00 E(B2PLYPD3) =    -0.15720730091341D+03

 The electronic state is 1-A.
 Alpha  occ. eigenvalues --  -10.63309 -10.61130 -10.58125 -10.57663  -0.97290
 Alpha  occ. eigenvalues --   -0.91767  -0.78923  -0.70538  -0.56512  -0.50448
 Alpha  occ. eigenvalues --   -0.47474  -0.47183  -0.43535  -0.40411  -0.38881
 Alpha  occ. eigenvalues --   -0.37557  -0.34683
 Alpha virt. eigenvalues --    0.02201   0.05236   0.06559   0.07957   0.10458
 Alpha virt. eigenvalues --    0.11194   0.11750   0.13309   0.14528   0.14737
 Alpha virt. eigenvalues --    0.16097   0.16512   0.18701   0.18943   0.20543

 Mulliken charges:
               1
     1  C   -0.983104
     2  C    0.014257
     3  H    0.078902
     4  H    0.775325
     5  H    0.082356
     6  C   -0.621051
     7  H    0.001611
     8  H    0.072641
     9  C   -0.539089
    10  H    0.563080
    11  H    0.028478
    12  H    0.014904
    13  H    0.079007
    14  H    0.432683
 Sum of Mulliken charges =   0.00000

 Dipole moment (field-independent basis, Debye):
    X=             -0.1318    Y=             -0.5059    Z=             -0.1634  Tot=              0.5477
 Quadrupole moment (field-independent basis, Debye-Ang):
   XX=            -30.1328   YY=            -28.7539   ZZ=            -27.5473
   XY=             -0.4061   XZ=             -0.0513   YZ=             -1.0702

 Normal termination of Gaussian 09 at Wed Aug 26 19:35:05 2020.
