 Gaussian 09, Revision D.01,
 Gaussian 09:  ES64L-G09RevD.01 24-Apr-2013

 --------------------
 #p B2PLYPD3/Def2QZVP
 --------------------

 ----------
 butane_opt
 ----------
 Symbolic Z-matrix:
 Charge =  0 Multiplicity = 1

                         Standard orientation:
 ---------------------------------------------------------------------
 Center     Atomic      Atomic             Coordinates (Angstroms)
 Number     Number       Type             X           Y           Z
 ---------------------------------------------------------------------
      1          6           0        1.929329   -0.200365   -0.176247
      2          6           0        0.504331    0.576095    0.248566
      3          1           0        2.920463    0.671371   -0.541765
      4          1           0        1.763551   -0.678513   -0.953982
      5          1           0        2.288927   -1.082924    0.822815
      6          6           0       -0.601123   -0.399800    0.109735
      7          1           0        0.182005    0.993919   -0.697602
      8          1           0        0.509167    1.548615    1.335761
      9          6           0       -1.842342    0.082004   -0.194750
     10          1           0       -0.459594   -1.305751    1.173012
     11          1           0       -0.343917   -0.876183   -0.668676
     12          1           0       -2.026230    0.513549    0.629619
     13          1           0       -2.793523   -0.818229    0.102987
     14          1           0       -1.982019    0.686541   -1.125994
 ---------------------------------------------------------------------

 SCF Done:  E(RB2PLYPD3) =  -157.823128198     A.U. after   11 cycles
 E2(B2PLYPD3) =    -0.2560456171D+00 E(B2PLYPD3) =    -0.15807917381511D+03

 The electronic state is 1-A.
 Alpha  occ. eigenvalues --  -10.65367 -10.65337 -10.61376 -10.60577  -0.96102
 Alpha  occ. eigenvalues --   -0.83485  -0.73502  -0.65871  -0.56357  -0.50093
 Alpha  occ. eigenvalues --   -0.48106  -0.46437  -0.41542  -0.39707  -0.37401
 Alpha  occ. eigenvalues --   -0.36567  -0.33565
 Alpha virt. eigenvalues --    0.03946   0.05258   0.06555   0.06710   0.09508
 Alpha virt. eigenvalues --    0.10522   0.11928   0.12491   0.13686   0.14311
 Alpha virt. eigenvalues --    0.15480   0.15809   0.18019   0.19207   0.19488

 Mulliken charges:
               1
     1  C   -0.213911
     2  C   -0.074711
     3  H    0.034338
     4  H    0.128555
     5  H    0.035103
     6  C   -0.086195
     7  H    0.062859
     8  H    0.026757
     9  C   -0.177880
    10  H   -0.021339
    11  H    0.107831
    12  H    0.087074
    13  H    0.027730
    14  H    0.063791
 Sum of Mulliken charges =   0.00000

 Dipole moment (field-independent basis, Debye):
    X=             -0.3280    Y=              0.1825    Z=             -0.7223  Tot=              0.8140
 Quadrupole moment (field-independent basis, Debye-Ang):
   XX=            -31.6823   YY=            -30.7184   ZZ=            -28.4495
   XY=             -0.6966   XZ=             -0.6537   YZ=             -0.0447

 Normal termination of Gaussian 09 at Wed Aug 26 20:25:31 2020.
