 Gaussian 09, Revision D.01,
 Gaussian 09:  ES64L-G09RevD.01 24-Apr-2013

 --------------------
 #p B2PLYPD3/Def2QZVP
 --------------------

 ----------
 butane_opt
 ----------
 Symbolic Z-matrix:
 Charge =  0 Multiplicity = 1

                         Standard orientation:
 ---------------------------------------------------------------------
 Center     Atomic      Atomic             Coordinates (Angstroms)
 Number     Number       Type             X           Y           Z
 ---------------------------------------------------------------------
      1          6           0        1.971021   -0.155845    0.109829
      2          6           0        0.454823    0.569246   -0.027948
      3          1           0        2.605305    0.499748   -0.624966
      4          1           0        1.717413   -0.189293   -0.603322
      5          1           0        2.358005   -1.239323    1.263122
      6          6           0       -0.541235   -0.487314   -0.192135
      7          1           0        0.178473    1.555270   -1.011034
      8          1           0        0.431501    0.829771    0.821391
      9          6           0       -1.831579    0.060550    0.165079
     10          1           0       -0.646343   -0.825267    0.351743
     11          1           0       -0.507457   -1.108733   -1.222662
     12          1           0       -1.723830    0.962384    1.282777
     13          1           0       -2.626628   -0.755130   -0.123427
     14          1           0       -2.104612    0.350748   -0.462573
 ---------------------------------------------------------------------

 SCF Done:  E(RB2PLYPD3) =  -157.062651200     A.U. after   12 cycles
 E2(B2PLYPD3) =    -0.2609182310D+00 E(B2PLYPD3) =    -0.15732356943116D+03

 The electronic state is 1-A.
 Alpha  occ. eigenvalues --  -10.62735 -10.60933 -10.60043 -10.56754  -0.99554
 Alpha  occ. eigenvalues --   -0.90598  -0.79690  -0.72834  -0.58479  -0.50473
 Alpha  occ. eigenvalues --   -0.46159  -0.44749  -0.41174  -0.39952  -0.37697
 Alpha  occ. eigenvalues --   -0.36447  -0.31020
 Alpha virt. eigenvalues --    0.00540   0.04251   0.05397   0.07170   0.09417
 Alpha virt. eigenvalues --    0.10490   0.11828   0.12648   0.13347   0.14520
 Alpha virt. eigenvalues --    0.15691   0.17137   0.18448   0.18650   0.21178

 Mulliken charges:
               1
     1  C   -0.626467
     2  C   -0.127963
     3  H    0.038550
     4  H    0.456696
     5  H    0.100727
     6  C   -0.728691
     7  H    0.036634
     8  H    0.148295
     9  C   -0.449507
    10  H    0.668267
    11  H    0.050939
    12  H    0.066409
    13  H    0.029172
    14  H    0.336940
 Sum of Mulliken charges =   0.00000

 Dipole moment (field-independent basis, Debye):
    X=             -0.7721    Y=             -0.2776    Z=             -0.4502  Tot=              0.9358
 Quadrupole moment (field-independent basis, Debye-Ang):
   XX=            -31.9718   YY=            -29.5637   ZZ=            -26.5759
   XY=             -1.1073   XZ=              1.0504   YZ=             -0.9031

 Normal termination of Gaussian 09 at Wed Aug 26 10:18:28 2020.
