 Gaussian 09, Revision D.01,
 Gaussian 09:  ES64L-G09RevD.01 24-Apr-2013

 --------------------
 #p B2PLYPD3/Def2QZVP
 --------------------

 ----------
 butane_opt
 ----------
 Symbolic Z-matrix:
 Charge =  0 Multiplicity = 1

                         Standard orientation:
 ---------------------------------------------------------------------
 Center     Atomic      Atomic             Coordinates (Angstroms)
 Number     Number       Type             X           Y           Z
 ---------------------------------------------------------------------
      1          6           0       -1.973159    0.148203    0.000350
      2          6           0       -0.607602   -0.525485   -0.027431
      3          1           0       -2.860998   -0.735746   -0.091385
      4          1           0       -2.064957    0.585555   -0.845770
      5          1           0       -2.113124    0.800091    0.938801
      6          6           0        0.604102    0.541644    0.068538
      7          1           0       -0.357788   -1.126507   -0.916093
      8          1           0       -0.581053   -1.086092    0.800662
      9          6           0        1.980092   -0.146554   -0.034675
     10          1           0        0.407113    1.085124    0.892281
     11          1           0        0.492800    1.247374   -0.835684
     12          1           0        2.362627   -0.988107    0.936876
     13          1           0        2.739939    0.557453   -0.235301
     14          1           0        1.954844   -0.445995   -0.685075
 ---------------------------------------------------------------------

 SCF Done:  E(RB2PLYPD3) =  -157.852126363     A.U. after   11 cycles
 E2(B2PLYPD3) =    -0.2469616112D+00 E(B2PLYPD3) =    -0.15809908797471D+03

 The electronic state is 1-A.
 Alpha  occ. eigenvalues --  -10.60740 -10.60651 -10.59707 -10.58149  -0.91746
 Alpha  occ. eigenvalues --   -0.85996  -0.74788  -0.67986  -0.55010  -0.50386
 Alpha  occ. eigenvalues --   -0.48136  -0.46562  -0.44294  -0.41319  -0.40700
 Alpha  occ. eigenvalues --   -0.38172  -0.35158
 Alpha virt. eigenvalues --    0.05640   0.06488   0.08350   0.08724   0.10692
 Alpha virt. eigenvalues --    0.11697   0.12428   0.13257   0.15017   0.15321
 Alpha virt. eigenvalues --    0.16177   0.16663   0.18777   0.19861   0.21755

 Mulliken charges:
               1
     1  C   -0.168064
     2  C   -0.060291
     3  H    0.017892
     4  H    0.072612
     5  H    0.054239
     6  C   -0.023805
     7  H    0.028959
     8  H    0.064393
     9  C   -0.530009
    10  H    0.050846
    11  H    0.010915
    12  H    0.036867
    13  H    0.055689
    14  H    0.389757
 Sum of Mulliken charges =   0.00000

 Dipole moment (field-independent basis, Debye):
    X=              0.1006    Y=              0.1434    Z=             -0.2882  Tot=              0.3372
 Quadrupole moment (field-independent basis, Debye-Ang):
   XX=            -30.0906   YY=            -29.0523   ZZ=            -27.4812
   XY=              0.0016   XZ=             -0.7029   YZ=             -0.0137

 Normal termination of Gaussian 09 at Wed Aug 26 13:14:21 2020.
