 Gaussian 09, Revision D.01,
 Gaussian 09:  ES64L-G09RevD.01 24-Apr-2013

 --------------------
 #p B2PLYPD3/Def2QZVP
 --------------------

 ----------
 butane_opt
 ----------
 Symbolic Z-matrix:
 Charge =  0 Multiplicity = 1

                         Standard orientation:
 ---------------------------------------------------------------------
 Center     Atomic      Atomic             Coordinates (Angstroms)
 Number     Number       Type             X           Y           Z
 ---------------------------------------------------------------------
      1          6           0        1.914509    0.088180    0.149547
      2          6           0        0.527371   -0.479558   -0.197389
      3          1           0        2.816284   -0.912504   -0.038606
      4          1           0        1.670979    0.999720    1.328228
      5          1           0        2.200615    0.347217   -0.576927
      6          6           0       -0.505746    0.592694   -0.236719
      7          1           0        0.504319   -1.239643    0.752324
      8          1           0        0.417791   -0.816463   -0.979256
      9          6           0       -1.943251   -0.139563    0.145168
     10          1           0       -0.544956    1.638034   -1.225515
     11          1           0       -0.255708    1.046628    0.633042
     12          1           0       -2.616136   -1.039834   -0.966286
     13          1           0       -2.553301    0.430367    0.956707
     14          1           0       -1.597180   -0.824036    0.952653
 ---------------------------------------------------------------------

 SCF Done:  E(RB2PLYPD3) =  -157.690433351     A.U. after   11 cycles
 E2(B2PLYPD3) =    -0.2593427797D+00 E(B2PLYPD3) =    -0.15794977613060D+03

 The electronic state is 1-A.
 Alpha  occ. eigenvalues --  -10.66032 -10.64391 -10.63500 -10.59773  -0.93548
 Alpha  occ. eigenvalues --   -0.82629  -0.73921  -0.67421  -0.57391  -0.46974
 Alpha  occ. eigenvalues --   -0.46400  -0.44532  -0.40332  -0.38340  -0.37069
 Alpha  occ. eigenvalues --   -0.36243  -0.35127
 Alpha virt. eigenvalues --    0.02494   0.03098   0.05281   0.06928   0.09122
 Alpha virt. eigenvalues --    0.09989   0.11091   0.12143   0.13040   0.14535
 Alpha virt. eigenvalues --    0.15637   0.15882   0.17664   0.18875   0.19638

 Mulliken charges:
               1
     1  C   -0.301992
     2  C   -0.131003
     3  H    0.001697
     4  H    0.047950
     5  H    0.223189
     6  C   -0.100030
     7  H    0.045823
     8  H    0.139373
     9  C   -0.185064
    10  H    0.026548
    11  H    0.086341
    12  H    0.026679
    13  H    0.053167
    14  H    0.067320
 Sum of Mulliken charges =   0.00000

 Dipole moment (field-independent basis, Debye):
    X=              0.3289    Y=              0.0662    Z=              0.1299  Tot=              0.3598
 Quadrupole moment (field-independent basis, Debye-Ang):
   XX=            -33.4341   YY=            -30.2245   ZZ=            -28.0053
   XY=             -0.1421   XZ=             -2.2993   YZ=              0.8128

 Normal termination of Gaussian 09 at Wed Aug 26 11:09:19 2020.
