 Gaussian 09, Revision D.01,
 Gaussian 09:  ES64L-G09RevD.01 24-Apr-2013

 --------------------
 #p B2PLYPD3/Def2QZVP
 --------------------

 ----------
 butane_opt
 ----------
 Symbolic Z-matrix:
 Charge =  0 Multiplicity = 1

                         Standard orientation:
 ---------------------------------------------------------------------
 Center     Atomic      Atomic             Coordinates (Angstroms)
 Number     Number       Type             X           Y           Z
 ---------------------------------------------------------------------
      1          6           0        1.882643    0.051252   -0.077224
      2          6           0        0.543608   -0.479160    0.020153
      3          1           0        2.612585   -0.708375   -0.042059
      4          1           0        1.867648    0.868021    1.063217
      5          1           0        1.923624    0.592056   -0.970341
      6          6           0       -0.436204    0.528475    0.114897
      7          1           0        0.427373   -1.166320    0.919349
      8          1           0        0.509160   -1.064428   -0.762313
      9          6           0       -1.938211   -0.118041   -0.087116
     10          1           0       -0.395691    1.023956   -0.828919
     11          1           0       -0.388509    1.508618    1.200028
     12          1           0       -1.533985   -0.418788   -0.690817
     13          1           0       -2.629306    0.555391   -0.853607
     14          1           0       -2.703920   -1.085287    1.141198
 ---------------------------------------------------------------------

 SCF Done:  E(RB2PLYPD3) =  -157.729554476     A.U. after   12 cycles
 E2(B2PLYPD3) =    -0.2575111333D+00 E(B2PLYPD3) =    -0.15798706560922D+03

 The electronic state is 1-A.
 Alpha  occ. eigenvalues --  -10.65163 -10.63568 -10.61934 -10.59479  -0.96536
 Alpha  occ. eigenvalues --   -0.86921  -0.73856  -0.66389  -0.56260  -0.51661
 Alpha  occ. eigenvalues --   -0.49357  -0.46365  -0.41029  -0.40109  -0.36848
 Alpha  occ. eigenvalues --   -0.35908  -0.34094
 Alpha virt. eigenvalues --    0.00773   0.04900   0.06307   0.06901   0.09020
 Alpha virt. eigenvalues --    0.10565   0.10806   0.12084   0.13673   0.15275
 Alpha virt. eigenvalues --    0.16078   0.16325   0.17627   0.19634   0.19730

 Mulliken charges:
               1
     1  C   -0.158592
     2  C   -0.036409
     3  H    0.065112
     4  H    0.014803
     5  H    0.059973
     6  C   -0.071045
     7  H    0.031774
     8  H    0.057539
     9  C   -0.467890
    10  H    0.065859
    11  H    0.011698
    12  H    0.353118
    13  H    0.042840
    14  H    0.031222
 Sum of Mulliken charges =   0.00000

 Dipole moment (field-independent basis, Debye):
    X=              0.5781    Y=             -0.4900    Z=             -1.1563  Tot=              1.3825
 Quadrupole moment (field-independent basis, Debye-Ang):
   XX=            -32.5919   YY=            -30.3924   ZZ=            -28.0252
   XY=             -1.4141   XZ=             -0.2710   YZ=             -0.7557

 Normal termination of Gaussian 09 at Wed Aug 26 15:43:44 2020.
