 Gaussian 09, Revision D.01,
 Gaussian 09:  ES64L-G09RevD.01 24-Apr-2013

 --------------------
 #p B2PLYPD3/Def2QZVP
 --------------------

 ----------
 butane_opt
 ----------
 Symbolic Z-matrix:
 Charge =  0 Multiplicity = 1

                         Standard orientation:
 ---------------------------------------------------------------------
 Center     Atomic      Atomic             Coordinates (Angstroms)
 Number     Number       Type             X           Y           Z
 ---------------------------------------------------------------------
      1          6           0        2.061040   -0.180338    0.133022
      2          6           0        0.508582    0.648373   -0.222731
      3          1           0        2.829772    0.286546    0.485834
      4          1           0        2.598505   -0.579005   -0.776116
      5          1           0        1.714052   -0.926996    1.006803
      6          6           0       -0.634926   -0.486809   -0.142176
      7          1           0        0.380321    1.544102   -1.100348
      8          1           0        0.229777    1.327078    0.835656
      9          6           0       -1.922481    0.019862    0.150417
     10          1           0       -0.463493   -1.137502    0.548423
     11          1           0       -0.472104   -1.172885   -1.058896
     12          1           0       -2.013913    0.836789    1.237950
     13          1           0       -2.602669   -0.610816   -0.146796
     14          1           0       -2.273530    0.426161   -0.543707
 ---------------------------------------------------------------------

 SCF Done:  E(RB2PLYPD3) =  -157.879684485     A.U. after   11 cycles
 E2(B2PLYPD3) =    -0.2524385945D+00 E(B2PLYPD3) =    -0.15813212307916D+03

 The electronic state is 1-A.
 Alpha  occ. eigenvalues --  -10.66358 -10.61977 -10.59920 -10.57933  -0.92727
 Alpha  occ. eigenvalues --   -0.81944  -0.75974  -0.67030  -0.53288  -0.50282
 Alpha  occ. eigenvalues --   -0.47643  -0.45255  -0.42874  -0.39780  -0.37502
 Alpha  occ. eigenvalues --   -0.35696  -0.35425
 Alpha virt. eigenvalues --    0.05346   0.06242   0.07473   0.07915   0.10064
 Alpha virt. eigenvalues --    0.11520   0.12784   0.13851   0.14124   0.15468
 Alpha virt. eigenvalues --    0.15736   0.16265   0.16951   0.19376   0.20810

 Mulliken charges:
               1
     1  C   -0.161094
     2  C   -0.103021
     3  H    0.069684
     4  H    0.043700
     5  H    0.045407
     6  C    0.000417
     7  H    0.048314
     8  H   -0.000799
     9  C   -0.206464
    10  H    0.076014
    11  H   -0.000360
    12  H    0.043838
    13  H    0.043556
    14  H    0.100810
 Sum of Mulliken charges =   0.00000

 Dipole moment (field-independent basis, Debye):
    X=             -0.1767    Y=             -0.1884    Z=             -0.3157  Tot=              0.4079
 Quadrupole moment (field-independent basis, Debye-Ang):
   XX=            -27.7522   YY=            -29.5953   ZZ=            -28.6791
   XY=             -0.0162   XZ=              1.0944   YZ=              0.0062

 Normal termination of Gaussian 09 at Wed Aug 26 12:43:19 2020.
