 Gaussian 09, Revision D.01,
 Gaussian 09:  ES64L-G09RevD.01 24-Apr-2013

 --------------------
 #p B2PLYPD3/Def2QZVP
 --------------------

 ----------
 butane_opt
 ----------
 Symbolic Z-matrix:
 Charge =  0 Multiplicity = 1

                         Standard orientation:
 ---------------------------------------------------------------------
 Center     Atomic      Atomic             Coordinates (Angstroms)
 Number     Number       Type             X           Y           Z
 ---------------------------------------------------------------------
      1          6           0        2.003590   -0.180320   -0.078624
      2          6           0        0.451925    0.534201    0.009480
      3          1           0        2.814563    0.646299   -0.139282
      4          1           0        2.093664   -0.598654   -0.780750
      5          1           0        2.079420   -0.859590    0.985706
      6          6           0       -0.576678   -0.427935    0.076633
      7          1           0        0.260080    1.047151   -0.791388
      8          1           0        0.483194    1.354409    0.939317
      9          6           0       -1.908535    0.047762   -0.035333
     10          1           0       -0.672050   -1.408985    1.042960
     11          1           0       -0.380329   -0.987400   -0.711758
     12          1           0       -1.978847    1.121261    0.978595
     13          1           0       -2.692115   -0.799872   -0.457110
     14          1           0       -1.829392    0.643132   -0.899227
 ---------------------------------------------------------------------

 SCF Done:  E(RB2PLYPD3) =  -157.857856278     A.U. after   11 cycles
 E2(B2PLYPD3) =    -0.2529236120D+00 E(B2PLYPD3) =    -0.15811077989050D+03

 The electronic state is 1-A.
 Alpha  occ. eigenvalues --  -10.63905 -10.61838 -10.61098 -10.60911  -0.94960
 Alpha  occ. eigenvalues --   -0.83664  -0.75323  -0.66068  -0.54955  -0.51563
 Alpha  occ. eigenvalues --   -0.49555  -0.46933  -0.41761  -0.39928  -0.38889
 Alpha  occ. eigenvalues --   -0.36517  -0.33741
 Alpha virt. eigenvalues --    0.03682   0.05960   0.07146   0.07758   0.10232
 Alpha virt. eigenvalues --    0.10852   0.11650   0.12301   0.13247   0.15202
 Alpha virt. eigenvalues --    0.15617   0.16046   0.19055   0.19853   0.21138

 Mulliken charges:
               1
     1  C   -0.309396
     2  C   -0.063103
     3  H    0.043422
     4  H    0.187840
     5  H    0.060579
     6  C   -0.017180
     7  H    0.079874
     8  H    0.006435
     9  C   -0.154779
    10  H   -0.016440
    11  H    0.065808
    12  H    0.017208
    13  H    0.052546
    14  H    0.047186
 Sum of Mulliken charges =   0.00000

 Dipole moment (field-independent basis, Debye):
    X=              0.2967    Y=             -0.0385    Z=             -1.2238  Tot=              1.2598
 Quadrupole moment (field-independent basis, Debye-Ang):
   XX=            -31.2192   YY=            -29.5181   ZZ=            -28.8077
   XY=              1.0835   XZ=              0.7818   YZ=              0.5665

 Normal termination of Gaussian 09 at Wed Aug 26 21:51:10 2020.
