 Gaussian 09, Revision D.01,
 Gaussian 09:  ES64L-G09RevD.01 24-Apr-2013

 --------------------
 #p B2PLYPD3/Def2QZVP
 --------------------

 ----------
 butane_opt
 ----------
 Symbolic Z-matrix:
 Charge =  0 Multiplicity = 1

                         Standard orientation:
 ---------------------------------------------------------------------
 Center     Atomic      Atomic             Coordinates (Angstroms)
 Number     Number       Type             X           Y           Z
 ---------------------------------------------------------------------
      1          6           0        1.879803   -0.076493    0.056222
      2          6           0        0.547925    0.439971   -0.064181
      3          1           0        2.781476    0.978455    0.053334
      4          1           0        1.987535   -0.714701   -0.688714
      5          1           0        1.949017   -0.614862    0.807540
      6          6           0       -0.485143   -0.618621   -0.149817
      7          1           0        0.632704    0.958151   -0.677083
      8          1           0        0.324991    1.155469    0.889515
      9          6           0       -1.927976    0.149983    0.019045
     10          1           0       -0.121444   -1.226224    0.723206
     11          1           0       -0.503756   -1.084599   -0.920294
     12          1           0       -1.824504    0.639913    0.823269
     13          1           0       -2.767862   -0.502130    0.814518
     14          1           0       -2.545809    1.041487   -0.992901
 ---------------------------------------------------------------------

 SCF Done:  E(RB2PLYPD3) =  -157.787767124     A.U. after   11 cycles
 E2(B2PLYPD3) =    -0.2510179864D+00 E(B2PLYPD3) =    -0.15803878511030D+03

 The electronic state is 1-A.
 Alpha  occ. eigenvalues --  -10.64451 -10.60591 -10.59014 -10.57264  -0.95344
 Alpha  occ. eigenvalues --   -0.84080  -0.74126  -0.72059  -0.58402  -0.50901
 Alpha  occ. eigenvalues --   -0.48423  -0.45236  -0.42636  -0.40761  -0.38487
 Alpha  occ. eigenvalues --   -0.38089  -0.35115
 Alpha virt. eigenvalues --    0.03758   0.05080   0.07788   0.08421   0.10183
 Alpha virt. eigenvalues --    0.10424   0.12303   0.12603   0.14427   0.15693
 Alpha virt. eigenvalues --    0.16171   0.16427   0.18316   0.19423   0.21004

 Mulliken charges:
               1
     1  C   -0.163200
     2  C   -0.155640
     3  H    0.014491
     4  H    0.054112
     5  H    0.065337
     6  C   -0.063303
     7  H    0.173143
     8  H    0.003759
     9  C   -0.243406
    10  H    0.042122
    11  H    0.089241
    12  H    0.124408
    13  H    0.008441
    14  H    0.050494
 Sum of Mulliken charges =   0.00000

 Dipole moment (field-independent basis, Debye):
    X=              0.3682    Y=             -0.0668    Z=              0.0422  Tot=              0.3766
 Quadrupole moment (field-independent basis, Debye-Ang):
   XX=            -32.5883   YY=            -28.8218   ZZ=            -27.7378
   XY=             -1.3865   XZ=             -0.5804   YZ=             -0.4540

 Normal termination of Gaussian 09 at Wed Aug 26 21:20:38 2020.
