 Gaussian 09, Revision D.01,
 Gaussian 09:  ES64L-G09RevD.01 24-Apr-2013

 --------------------
 #p B2PLYPD3/Def2QZVP
 --------------------

 ----------
 butane_opt
 ----------
 Symbolic Z-matrix:
 Charge =  0 Multiplicity = 1

                         Standard orientation:
 ---------------------------------------------------------------------
 Center     Atomic      Atomic             Coordinates (Angstroms)
 Number     Number       Type             X           Y           Z
 ---------------------------------------------------------------------
      1          6           0        1.944131   -0.176156   -0.111988
      2          6           0        0.563353    0.581246    0.021415
      3          1           0        2.670335    0.566220   -0.224076
      4          1           0        2.106578   -1.071314   -0.895476
      5          1           0        2.314945   -0.764141    0.932097
      6          6           0       -0.589838   -0.374522    0.192224
      7          1           0        0.285875    0.738065   -0.652491
      8          1           0        0.485208    1.483502    1.003351
      9          6           0       -1.910205    0.059475   -0.149495
     10          1           0       -0.716199   -0.891077    1.225159
     11          1           0       -0.333977   -0.979144   -0.426394
     12          1           0       -2.294380    0.700803    0.504815
     13          1           0       -2.896827   -0.921114   -0.125807
     14          1           0       -1.666199    0.597941   -1.054111
 ---------------------------------------------------------------------

 SCF Done:  E(RB2PLYPD3) =  -157.804688032     A.U. after   11 cycles
 E2(B2PLYPD3) =    -0.2499033537D+00 E(B2PLYPD3) =    -0.15805459138623D+03

 The electronic state is 1-A.
 Alpha  occ. eigenvalues --  -10.63119 -10.60926 -10.60454 -10.57986  -0.96504
 Alpha  occ. eigenvalues --   -0.84216  -0.74666  -0.68968  -0.56458  -0.49741
 Alpha  occ. eigenvalues --   -0.49041  -0.48334  -0.42763  -0.40586  -0.39027
 Alpha  occ. eigenvalues --   -0.37421  -0.35091
 Alpha virt. eigenvalues --    0.04862   0.06082   0.07363   0.08912   0.10418
 Alpha virt. eigenvalues --    0.11473   0.12359   0.12909   0.14400   0.14741
 Alpha virt. eigenvalues --    0.15614   0.16235   0.19093   0.19745   0.21292

 Mulliken charges:
               1
     1  C   -0.127080
     2  C   -0.474554
     3  H    0.072990
     4  H    0.035009
     5  H    0.024997
     6  C   -0.088823
     7  H    0.423795
     8  H    0.033272
     9  C   -0.144774
    10  H    0.009026
    11  H    0.116999
    12  H    0.060514
    13  H    0.022231
    14  H    0.036398
 Sum of Mulliken charges =   0.00000

 Dipole moment (field-independent basis, Debye):
    X=              0.1995    Y=              0.1056    Z=             -0.1901  Tot=              0.2951
 Quadrupole moment (field-independent basis, Debye-Ang):
   XX=            -29.7636   YY=            -29.3041   ZZ=            -28.8009
   XY=             -0.2769   XZ=             -1.1363   YZ=              0.5293

 Normal termination of Gaussian 09 at Wed Aug 26 22:02:12 2020.
