 Gaussian 09, Revision D.01,
 Gaussian 09:  ES64L-G09RevD.01 24-Apr-2013

 --------------------
 #p B2PLYPD3/Def2QZVP
 --------------------

 ----------
 butane_opt
 ----------
 Symbolic Z-matrix:
 Charge =  0 Multiplicity = 1

                         Standard orientation:
 ---------------------------------------------------------------------
 Center     Atomic      Atomic             Coordinates (Angstroms)
 Number     Number       Type             X           Y           Z
 ---------------------------------------------------------------------
      1          6           0       -1.992771   -0.057389   -0.090718
      2          6           0       -0.641485    0.490292    0.058091
      3          1           0       -2.826890    0.875400    0.284230
      4          1           0       -2.013255   -0.765273    0.857715
      5          1           0       -2.048110   -0.756298   -1.099051
      6          6           0        0.503742   -0.620244   -0.094121
      7          1           0       -0.543634    1.191278    1.040717
      8          1           0       -0.260260    0.954347   -0.643475
      9          6           0        2.064596    0.114224   -0.023538
     10          1           0        0.416312   -1.013130   -0.768499
     11          1           0        0.412305   -1.267434    0.921653
     12          1           0        2.658359    1.190671   -1.029371
     13          1           0        2.681083   -0.440236    0.657784
     14          1           0        1.919602    0.469377    0.680012
 ---------------------------------------------------------------------

 SCF Done:  E(RB2PLYPD3) =  -157.685209420     A.U. after   11 cycles
 E2(B2PLYPD3) =    -0.2541027854D+00 E(B2PLYPD3) =    -0.15793931220514D+03

 The electronic state is 1-A.
 Alpha  occ. eigenvalues --  -10.64694 -10.61356 -10.61286 -10.60067  -0.92534
 Alpha  occ. eigenvalues --   -0.85444  -0.77315  -0.68620  -0.54533  -0.49677
 Alpha  occ. eigenvalues --   -0.46879  -0.44447  -0.41645  -0.41065  -0.39529
 Alpha  occ. eigenvalues --   -0.36677  -0.33999
 Alpha virt. eigenvalues --    0.02869   0.04527   0.07237   0.08041   0.10275
 Alpha virt. eigenvalues --    0.10598   0.11638   0.12823   0.13862   0.15048
 Alpha virt. eigenvalues --    0.15330   0.16863   0.18494   0.18557   0.19690

 Mulliken charges:
               1
     1  C   -0.162795
     2  C   -0.061552
     3  H    0.042863
     4  H    0.040639
     5  H    0.051444
     6  C   -0.259287
     7  H    0.011524
     8  H    0.106617
     9  C   -0.434891
    10  H    0.248157
    11  H    0.019089
    12  H    0.041232
    13  H    0.047812
    14  H    0.309148
 Sum of Mulliken charges =   0.00000

 Dipole moment (field-independent basis, Debye):
    X=             -0.2006    Y=              0.1273    Z=              0.4870  Tot=              0.5419
 Quadrupole moment (field-independent basis, Debye-Ang):
   XX=            -32.2884   YY=            -29.5951   ZZ=            -27.5945
   XY=              0.5846   XZ=              0.9986   YZ=              0.1292

 Normal termination of Gaussian 09 at Wed Aug 26 15:37:34 2020.
