 Gaussian 09, Revision D.01,
 Gaussian 09:  ES64L-G09RevD.01 24-Apr-2013

 --------------------
 #p B2PLYPD3/Def2QZVP
 --------------------

 ----------
 butane_opt
 ----------
 Symbolic Z-matrix:
 Charge =  0 Multiplicity = 1

                         Standard orientation:
 ---------------------------------------------------------------------
 Center     Atomic      Atomic             Coordinates (Angstroms)
 Number     Number       Type             X           Y           Z
 ---------------------------------------------------------------------
      1          6           0        1.842033   -0.111666   -0.195001
      2          6           0        0.617204    0.382961    0.183949
      3          1           0        2.805298    0.973447   -0.411105
      4          1           0        1.658183   -0.510826   -0.882472
      5          1           0        2.306670   -0.978713    0.657336
      6          6           0       -0.523533   -0.542257    0.093519
      7          1           0        0.656668    0.860869   -0.440756
      8          1           0        0.618342    1.530845    1.449239
      9          6           0       -1.958557    0.142125   -0.127796
     10          1           0       -0.405279   -1.316589    0.988971
     11          1           0       -0.392594   -0.949612   -0.685871
     12          1           0       -2.194542    0.535473    0.688149
     13          1           0       -2.748500   -0.472416   -0.061713
     14          1           0       -2.167121    1.100545   -1.029800
 ---------------------------------------------------------------------

 SCF Done:  E(RB2PLYPD3) =  -157.630703849     A.U. after   12 cycles
 E2(B2PLYPD3) =    -0.2527255326D+00 E(B2PLYPD3) =    -0.15788342938112D+03

 The electronic state is 1-A.
 Alpha  occ. eigenvalues --  -10.62880 -10.61500 -10.61139 -10.60491  -0.99709
 Alpha  occ. eigenvalues --   -0.87170  -0.76893  -0.70988  -0.57173  -0.52651
 Alpha  occ. eigenvalues --   -0.48744  -0.47948  -0.43049  -0.41203  -0.39983
 Alpha  occ. eigenvalues --   -0.36363  -0.32674
 Alpha virt. eigenvalues --    0.02283   0.05712   0.06000   0.07519   0.09812
 Alpha virt. eigenvalues --    0.10771   0.11523   0.13390   0.13850   0.14703
 Alpha virt. eigenvalues --    0.15401   0.16308   0.18280   0.19752   0.20269

 Mulliken charges:
               1
     1  C   -0.348116
     2  C   -0.265143
     3  H    0.037085
     4  H    0.233106
     5  H    0.025465
     6  C   -0.110149
     7  H    0.331355
     8  H   -0.068143
     9  C   -0.156705
    10  H    0.041486
    11  H    0.132359
    12  H    0.077904
    13  H    0.040769
    14  H    0.028727
 Sum of Mulliken charges =   0.00000

 Dipole moment (field-independent basis, Debye):
    X=             -0.5914    Y=             -0.7097    Z=             -0.9343  Tot=              1.3139
 Quadrupole moment (field-independent basis, Debye-Ang):
   XX=            -29.8185   YY=            -29.8337   ZZ=            -29.4848
   XY=              0.1353   XZ=             -1.5325   YZ=             -1.4394

 Normal termination of Gaussian 09 at Wed Aug 26 14:02:03 2020.
