 Gaussian 09, Revision D.01,
 Gaussian 09:  ES64L-G09RevD.01 24-Apr-2013

 --------------------
 #p B2PLYPD3/Def2QZVP
 --------------------

 ----------
 butane_opt
 ----------
 Symbolic Z-matrix:
 Charge =  0 Multiplicity = 1

                         Standard orientation:
 ---------------------------------------------------------------------
 Center     Atomic      Atomic             Coordinates (Angstroms)
 Number     Number       Type             X           Y           Z
 ---------------------------------------------------------------------
      1          6           0        1.858896    0.052500    0.156127
      2          6           0        0.606870   -0.381381   -0.293034
      3          1           0        2.751254   -0.871905    0.250839
      4          1           0        1.980480    0.656554    1.363116
      5          1           0        2.169148    0.567614   -0.453969
      6          6           0       -0.477590    0.535358   -0.172624
      7          1           0        0.535125   -1.213514    0.436726
      8          1           0        0.432759   -0.658353   -1.228868
      9          6           0       -1.979710   -0.195171    0.181758
     10          1           0       -0.512785    1.661719   -1.105911
     11          1           0       -0.346636    0.913742    0.706955
     12          1           0       -2.653380   -0.753750   -0.999655
     13          1           0       -2.873047    0.431563    0.996590
     14          1           0       -1.533709   -0.801512    0.800812
 ---------------------------------------------------------------------

 SCF Done:  E(RB2PLYPD3) =  -157.796716986     A.U. after   11 cycles
 E2(B2PLYPD3) =    -0.2553986282D+00 E(B2PLYPD3) =    -0.15805211561382D+03

 The electronic state is 1-A.
 Alpha  occ. eigenvalues --  -10.66249 -10.63578 -10.61571 -10.59197  -0.95936
 Alpha  occ. eigenvalues --   -0.83596  -0.73778  -0.66931  -0.59116  -0.48915
 Alpha  occ. eigenvalues --   -0.48203  -0.45748  -0.41622  -0.40623  -0.36841
 Alpha  occ. eigenvalues --   -0.36134  -0.34589
 Alpha virt. eigenvalues --    0.03983   0.05013   0.05963   0.07823   0.09374
 Alpha virt. eigenvalues --    0.10068   0.11120   0.12722   0.13494   0.15111
 Alpha virt. eigenvalues --    0.15770   0.16083   0.17231   0.19364   0.20246

 Mulliken charges:
               1
     1  C   -0.213143
     2  C   -0.028152
     3  H    0.023950
     4  H    0.023558
     5  H    0.144010
     6  C   -0.121735
     7  H    0.028507
     8  H    0.064586
     9  C   -0.214027
    10  H   -0.003742
    11  H    0.103271
    12  H    0.029877
    13  H    0.039971
    14  H    0.123069
 Sum of Mulliken charges =   0.00000

 Dipole moment (field-independent basis, Debye):
    X=              0.5230    Y=             -0.2419    Z=              0.2883  Tot=              0.6443
 Quadrupole moment (field-independent basis, Debye-Ang):
   XX=            -31.1986   YY=            -30.8052   ZZ=            -28.2602
   XY=             -0.0946   XZ=             -0.6878   YZ=              0.1103

 Normal termination of Gaussian 09 at Wed Aug 26 14:08:28 2020.
