 Gaussian 09, Revision D.01,
 Gaussian 09:  ES64L-G09RevD.01 24-Apr-2013

 --------------------
 #p B2PLYPD3/Def2QZVP
 --------------------

 ----------
 butane_opt
 ----------
 Symbolic Z-matrix:
 Charge =  0 Multiplicity = 1

                         Standard orientation:
 ---------------------------------------------------------------------
 Center     Atomic      Atomic             Coordinates (Angstroms)
 Number     Number       Type             X           Y           Z
 ---------------------------------------------------------------------
      1          6           0       -1.941382   -0.204529   -0.184417
      2          6           0       -0.548736    0.578198    0.218231
      3          1           0       -2.718966    0.410372   -0.621070
      4          1           0       -2.736722   -0.784572    0.778963
      5          1           0       -1.689673   -0.772318   -0.977399
      6          6           0        0.578440   -0.385413    0.205792
      7          1           0       -0.151411    1.715347    1.135619
      8          1           0       -0.336331    1.012183   -0.658917
      9          6           0        1.926466    0.076350   -0.208428
     10          1           0        0.253945   -0.807765   -0.304009
     11          1           0        0.613272   -1.259272    1.401311
     12          1           0        1.742777    0.553503   -1.204992
     13          1           0        2.857876   -1.026379   -0.283944
     14          1           0        2.076503    0.571260    0.547375
 ---------------------------------------------------------------------

 SCF Done:  E(RB2PLYPD3) =  -157.685863986     A.U. after   11 cycles
 E2(B2PLYPD3) =    -0.2548514937D+00 E(B2PLYPD3) =    -0.15794071547971D+03

 The electronic state is 1-A.
 Alpha  occ. eigenvalues --  -10.65373 -10.64463 -10.62170 -10.60005  -0.96353
 Alpha  occ. eigenvalues --   -0.84062  -0.76103  -0.68875  -0.55403  -0.49778
 Alpha  occ. eigenvalues --   -0.48515  -0.46929  -0.43559  -0.40126  -0.38827
 Alpha  occ. eigenvalues --   -0.35941  -0.33998
 Alpha virt. eigenvalues --    0.03217   0.05157   0.06368   0.06727   0.09720
 Alpha virt. eigenvalues --    0.10457   0.11727   0.12121   0.14505   0.15267
 Alpha virt. eigenvalues --    0.15663   0.15872   0.17893   0.18109   0.19705

 Mulliken charges:
               1
     1  C   -0.154272
     2  C   -0.086809
     3  H    0.047592
     4  H    0.038025
     5  H    0.084477
     6  C   -0.447436
     7  H   -0.003373
     8  H    0.087026
     9  C   -0.161621
    10  H    0.418796
    11  H   -0.026071
    12  H    0.059898
    13  H    0.025764
    14  H    0.118005
 Sum of Mulliken charges =   0.00000

 Dipole moment (field-independent basis, Debye):
    X=             -0.4210    Y=              0.1597    Z=             -1.2878  Tot=              1.3643
 Quadrupole moment (field-independent basis, Debye-Ang):
   XX=            -29.7531   YY=            -30.9092   ZZ=            -29.2368
   XY=              0.5632   XZ=              1.1177   YZ=              0.2143

 Normal termination of Gaussian 09 at Wed Aug 26 19:04:05 2020.
