 Gaussian 09, Revision D.01,
 Gaussian 09:  ES64L-G09RevD.01 24-Apr-2013

 --------------------
 #p B2PLYPD3/Def2QZVP
 --------------------

 ----------
 butane_opt
 ----------
 Symbolic Z-matrix:
 Charge =  0 Multiplicity = 1

                         Standard orientation:
 ---------------------------------------------------------------------
 Center     Atomic      Atomic             Coordinates (Angstroms)
 Number     Number       Type             X           Y           Z
 ---------------------------------------------------------------------
      1          6           0       -1.879971   -0.064616   -0.240917
      2          6           0       -0.573544    0.383131    0.266243
      3          1           0       -2.716718    0.977901   -0.440207
      4          1           0       -2.255473   -0.957610    0.730505
      5          1           0       -1.545928   -0.541922   -1.186120
      6          6           0        0.487146   -0.563904    0.034209
      7          1           0       -0.786436    1.265264    1.726688
      8          1           0       -0.356262    0.839047   -0.395474
      9          6           0        2.014169    0.166236   -0.067389
     10          1           0        0.252208   -0.769726   -0.648018
     11          1           0        0.251546   -1.538598    0.922622
     12          1           0        1.864718    1.364036   -1.051993
     13          1           0        2.854471   -0.609713   -0.278345
     14          1           0        2.151075    0.446240    0.667468
 ---------------------------------------------------------------------

 SCF Done:  E(RB2PLYPD3) =  -157.508407630     A.U. after   12 cycles
 E2(B2PLYPD3) =    -0.2575122750D+00 E(B2PLYPD3) =    -0.15776591990483D+03

 The electronic state is 1-A.
 Alpha  occ. eigenvalues --  -10.66204 -10.64064 -10.62128 -10.61693  -0.99006
 Alpha  occ. eigenvalues --   -0.84445  -0.77438  -0.68152  -0.56166  -0.50397
 Alpha  occ. eigenvalues --   -0.48410  -0.46637  -0.43591  -0.39609  -0.37895
 Alpha  occ. eigenvalues --   -0.35497  -0.33602
 Alpha virt. eigenvalues --    0.01983   0.03221   0.05125   0.07255   0.09290
 Alpha virt. eigenvalues --    0.10436   0.10939   0.12531   0.12925   0.14803
 Alpha virt. eigenvalues --    0.15227   0.15388   0.17140   0.18821   0.19852

 Mulliken charges:
               1
     1  C   -0.174539
     2  C   -0.238328
     3  H    0.060725
     4  H    0.034188
     5  H    0.066221
     6  C   -0.467318
     7  H   -0.045359
     8  H    0.288496
     9  C   -0.337847
    10  H    0.427381
    11  H    0.029421
    12  H    0.008350
    13  H    0.072135
    14  H    0.276475
 Sum of Mulliken charges =   0.00000

 Dipole moment (field-independent basis, Debye):
    X=              0.4448    Y=             -0.2624    Z=             -0.7972  Tot=              0.9499
 Quadrupole moment (field-independent basis, Debye-Ang):
   XX=            -30.4876   YY=            -30.7224   ZZ=            -29.7846
   XY=             -1.2043   XZ=              1.1567   YZ=             -0.9862

 Normal termination of Gaussian 09 at Wed Aug 26 23:53:05 2020.
