 Gaussian 09, Revision D.01,
 Gaussian 09:  ES64L-G09RevD.01 24-Apr-2013

 --------------------
 #p B2PLYPD3/Def2QZVP
 --------------------

 ----------
 butane_opt
 ----------
 Symbolic Z-matrix:
 Charge =  0 Multiplicity = 1

                         Standard orientation:
 ---------------------------------------------------------------------
 Center     Atomic      Atomic             Coordinates (Angstroms)
 Number     Number       Type             X           Y           Z
 ---------------------------------------------------------------------
      1          6           0        1.957909    0.128765   -0.025428
      2          6           0        0.453502   -0.539928    0.137870
      3          1           0        2.640685   -0.510174   -0.849890
      4          1           0        2.776520    0.896491    1.103609
      5          1           0        1.659025    0.593208   -0.884525
      6          6           0       -0.597259    0.386279    0.031749
      7          1           0        0.359110   -1.091224    1.001229
      8          1           0        0.403427   -1.147814   -0.736376
      9          6           0       -1.853467   -0.073028   -0.067920
     10          1           0       -0.393355    1.332615   -0.996366
     11          1           0       -0.387115    0.999274    0.996398
     12          1           0       -1.809415   -0.695321   -0.917321
     13          1           0       -2.840734    0.946269    0.008215
     14          1           0       -2.172260   -0.735855    0.817396
 ---------------------------------------------------------------------

 SCF Done:  E(RB2PLYPD3) =  -157.867036740     A.U. after   11 cycles
 E2(B2PLYPD3) =    -0.2567713697D+00 E(B2PLYPD3) =    -0.15812380810931D+03

 The electronic state is 1-A.
 Alpha  occ. eigenvalues --  -10.65466 -10.62879 -10.62599 -10.61427  -0.96097
 Alpha  occ. eigenvalues --   -0.84025  -0.72868  -0.64773  -0.56801  -0.50507
 Alpha  occ. eigenvalues --   -0.48180  -0.47631  -0.40713  -0.39486  -0.37367
 Alpha  occ. eigenvalues --   -0.35175  -0.33879
 Alpha virt. eigenvalues --    0.02630   0.04037   0.06348   0.07170   0.09198
 Alpha virt. eigenvalues --    0.09844   0.11171   0.12497   0.14271   0.15191
 Alpha virt. eigenvalues --    0.15535   0.16312   0.18304   0.18868   0.20556

 Mulliken charges:
               1
     1  C   -0.237059
     2  C   -0.048836
     3  H    0.034225
     4  H    0.058288
     5  H    0.100453
     6  C   -0.008691
     7  H    0.057677
     8  H    0.042718
     9  C   -0.149814
    10  H   -0.017443
    11  H    0.029718
    12  H    0.067598
    13  H    0.033573
    14  H    0.037592
 Sum of Mulliken charges =   0.00000

 Dipole moment (field-independent basis, Debye):
    X=             -0.2836    Y=             -0.5150    Z=             -0.0420  Tot=              0.5894
 Quadrupole moment (field-independent basis, Debye-Ang):
   XX=            -32.0406   YY=            -30.8643   ZZ=            -28.1852
   XY=              0.6429   XZ=             -0.9005   YZ=              0.6858

 Normal termination of Gaussian 09 at Wed Aug 26 19:43:33 2020.
