 Gaussian 09, Revision D.01,
 Gaussian 09:  ES64L-G09RevD.01 24-Apr-2013

 --------------------
 #p B2PLYPD3/Def2QZVP
 --------------------

 ----------
 butane_opt
 ----------
 Symbolic Z-matrix:
 Charge =  0 Multiplicity = 1

                         Standard orientation:
 ---------------------------------------------------------------------
 Center     Atomic      Atomic             Coordinates (Angstroms)
 Number     Number       Type             X           Y           Z
 ---------------------------------------------------------------------
      1          6           0       -1.944807    0.067128   -0.168367
      2          6           0       -0.582837   -0.428653    0.204473
      3          1           0       -2.817381   -0.668857   -0.029136
      4          1           0       -1.734730    0.692217   -1.121440
      5          1           0       -2.392994    0.418299    0.404645
      6          6           0        0.568153    0.588072    0.204174
      7          1           0       -0.461939   -1.344232   -0.637395
      8          1           0       -0.533029   -0.946000    1.146310
      9          6           0        2.054093   -0.148526   -0.116262
     10          1           0        0.409889    1.598959    1.082938
     11          1           0        0.016004    1.047348   -0.574654
     12          1           0        2.712033   -0.912902    0.888789
     13          1           0        2.766897    0.480256   -1.005049
     14          1           0        1.467636   -0.833215   -0.899118
 ---------------------------------------------------------------------

 SCF Done:  E(RB2PLYPD3) =  -157.816827780     A.U. after   11 cycles
 E2(B2PLYPD3) =    -0.2572249950D+00 E(B2PLYPD3) =    -0.15807405277478D+03

 The electronic state is 1-A.
 Alpha  occ. eigenvalues --  -10.67951 -10.64536 -10.62355 -10.58654  -0.92228
 Alpha  occ. eigenvalues --   -0.83187  -0.72938  -0.65702  -0.56841  -0.47977
 Alpha  occ. eigenvalues --   -0.45861  -0.45196  -0.41364  -0.39576  -0.36893
 Alpha  occ. eigenvalues --   -0.36113  -0.34454
 Alpha virt. eigenvalues --    0.04080   0.05206   0.06680   0.08419   0.09549
 Alpha virt. eigenvalues --    0.10280   0.11711   0.13304   0.14028   0.14642
 Alpha virt. eigenvalues --    0.16009   0.16204   0.17504   0.18930   0.19840

 Mulliken charges:
               1
     1  C   -0.288788
     2  C    0.001560
     3  H    0.029416
     4  H    0.050928
     5  H    0.183960
     6  C   -0.068435
     7  H    0.013780
     8  H    0.023122
     9  C   -0.201436
    10  H    0.008151
    11  H    0.054509
    12  H    0.070127
    13  H    0.056589
    14  H    0.066518
 Sum of Mulliken charges =   0.00000

 Dipole moment (field-independent basis, Debye):
    X=             -0.6513    Y=             -0.1141    Z=              0.0049  Tot=              0.6612
 Quadrupole moment (field-independent basis, Debye-Ang):
   XX=            -28.9506   YY=            -30.5810   ZZ=            -29.1711
   XY=             -0.8084   XZ=             -1.1117   YZ=             -0.9159

 Normal termination of Gaussian 09 at Wed Aug 26 09:55:09 2020.
