 Gaussian 09, Revision D.01,
 Gaussian 09:  ES64L-G09RevD.01 24-Apr-2013

 --------------------
 #p B2PLYPD3/Def2QZVP
 --------------------

 ----------
 butane_opt
 ----------
 Symbolic Z-matrix:
 Charge =  0 Multiplicity = 1

                         Standard orientation:
 ---------------------------------------------------------------------
 Center     Atomic      Atomic             Coordinates (Angstroms)
 Number     Number       Type             X           Y           Z
 ---------------------------------------------------------------------
      1          6           0       -1.982097   -0.127940   -0.158562
      2          6           0       -0.495661    0.491543    0.218842
      3          1           0       -2.825376    0.559265   -0.728426
      4          1           0       -2.213384   -0.984248    0.791135
      5          1           0       -1.818816   -0.720064   -0.946511
      6          6           0        0.622613   -0.392446    0.160330
      7          1           0       -0.508399    1.615730    1.267870
      8          1           0       -0.491652    0.695725   -0.342140
      9          6           0        1.864335    0.110076   -0.189943
     10          1           0        0.657022   -1.073406   -0.710272
     11          1           0        0.479216   -1.318347    1.256300
     12          1           0        1.806990    0.997771   -1.157279
     13          1           0        2.733628   -0.794721   -0.204766
     14          1           0        2.125633    0.534905    0.590086
 ---------------------------------------------------------------------

 SCF Done:  E(RB2PLYPD3) =  -157.367481937     A.U. after   12 cycles
 E2(B2PLYPD3) =    -0.2562010780D+00 E(B2PLYPD3) =    -0.15762368301460D+03

 The electronic state is 1-A.
 Alpha  occ. eigenvalues --  -10.63826 -10.63202 -10.61886 -10.61820  -0.98205
 Alpha  occ. eigenvalues --   -0.87470  -0.74806  -0.67358  -0.57257  -0.50172
 Alpha  occ. eigenvalues --   -0.47986  -0.46633  -0.43062  -0.39837  -0.38125
 Alpha  occ. eigenvalues --   -0.34873  -0.33586
 Alpha virt. eigenvalues --    0.04091   0.05108   0.05528   0.06220   0.10348
 Alpha virt. eigenvalues --    0.10828   0.11582   0.12093   0.13567   0.14610
 Alpha virt. eigenvalues --    0.15172   0.15828   0.17381   0.19021   0.20800

 Mulliken charges:
               1
     1  C   -0.148470
     2  C   -0.888523
     3  H    0.052823
     4  H    0.034700
     5  H    0.076467
     6  C    0.034838
     7  H    0.013631
     8  H    0.796241
     9  C   -0.168106
    10  H    0.037518
    11  H   -0.016815
    12  H    0.040254
    13  H    0.043174
    14  H    0.092268
 Sum of Mulliken charges =   0.00000

 Dipole moment (field-independent basis, Debye):
    X=              0.2991    Y=              0.0644    Z=             -0.9693  Tot=              1.0165
 Quadrupole moment (field-independent basis, Debye-Ang):
   XX=            -30.2685   YY=            -29.9653   ZZ=            -28.8806
   XY=             -0.4319   XZ=              1.5368   YZ=             -0.2874

 Normal termination of Gaussian 09 at Wed Aug 26 22:50:56 2020.
