 Gaussian 09, Revision D.01,
 Gaussian 09:  ES64L-G09RevD.01 24-Apr-2013

 --------------------
 #p B2PLYPD3/Def2QZVP
 --------------------

 ----------
 butane_opt
 ----------
 Symbolic Z-matrix:
 Charge =  0 Multiplicity = 1

                         Standard orientation:
 ---------------------------------------------------------------------
 Center     Atomic      Atomic             Coordinates (Angstroms)
 Number     Number       Type             X           Y           Z
 ---------------------------------------------------------------------
      1          6           0        1.988857    0.127156   -0.053915
      2          6           0        0.560457   -0.578459    0.066238
      3          1           0        2.672238   -0.515203   -0.081164
      4          1           0        2.129596    0.630081    0.662186
      5          1           0        2.174763    0.882134   -1.030368
      6          6           0       -0.581049    0.533487    0.098356
      7          1           0        0.523482   -1.226373    0.951459
      8          1           0        0.452819   -1.073195   -0.679843
      9          6           0       -1.954404   -0.152389   -0.119970
     10          1           0       -0.530894    1.053613   -0.602974
     11          1           0       -0.547177    1.366525    1.078378
     12          1           0       -2.060819   -0.605126   -0.915608
     13          1           0       -2.735123    0.684093   -0.093491
     14          1           0       -2.162056   -0.775324    0.767175
 ---------------------------------------------------------------------

 SCF Done:  E(RB2PLYPD3) =  -157.934630335     A.U. after   11 cycles
 E2(B2PLYPD3) =    -0.2451451340D+00 E(B2PLYPD3) =    -0.15817977546954D+03

 The electronic state is 1-A.
 Alpha  occ. eigenvalues --  -10.60044 -10.59300 -10.58469 -10.57243  -0.91192
 Alpha  occ. eigenvalues --   -0.84707  -0.75432  -0.70345  -0.54934  -0.51692
 Alpha  occ. eigenvalues --   -0.48344  -0.47228  -0.44955  -0.41022  -0.39412
 Alpha  occ. eigenvalues --   -0.39277  -0.35877
 Alpha virt. eigenvalues --    0.05733   0.06905   0.08265   0.09148   0.11262
 Alpha virt. eigenvalues --    0.12160   0.12941   0.14251   0.14740   0.15421
 Alpha virt. eigenvalues --    0.16156   0.16565   0.19236   0.20456   0.21974

 Mulliken charges:
               1
     1  C   -0.179434
     2  C   -0.098113
     3  H    0.051837
     4  H    0.095555
     5  H    0.007123
     6  C   -0.133786
     7  H    0.030841
     8  H    0.101937
     9  C   -0.155097
    10  H    0.135172
    11  H    0.004719
    12  H    0.071646
    13  H    0.025408
    14  H    0.042193
 Sum of Mulliken charges =   0.00000

 Dipole moment (field-independent basis, Debye):
    X=              0.1247    Y=             -0.2308    Z=             -0.1998  Tot=              0.3297
 Quadrupole moment (field-independent basis, Debye-Ang):
   XX=            -29.3670   YY=            -28.1206   ZZ=            -27.7680
   XY=             -0.4275   XZ=              0.8447   YZ=             -0.0285

 Normal termination of Gaussian 09 at Wed Aug 26 21:54:00 2020.
