 Gaussian 09, Revision D.01,
 Gaussian 09:  ES64L-G09RevD.01 24-Apr-2013

 --------------------
 #p B2PLYPD3/Def2QZVP
 --------------------

 ----------
 butane_opt
 ----------
 Symbolic Z-matrix:
 Charge =  0 Multiplicity = 1

                         Standard orientation:
 ---------------------------------------------------------------------
 Center     Atomic      Atomic             Coordinates (Angstroms)
 Number     Number       Type             X           Y           Z
 ---------------------------------------------------------------------
      1          6           0       -1.966374   -0.102860    0.062074
      2          6           0       -0.578682    0.507509   -0.113299
      3          1           0       -2.708043    0.556076    0.173324
      4          1           0       -1.906134   -0.951682    1.080280
      5          1           0       -2.270743   -0.595630   -0.706088
      6          6           0        0.552922   -0.507534   -0.072172
      7          1           0       -0.499849    1.045568    0.691110
      8          1           0       -0.653624    1.299520   -0.986705
      9          6           0        2.020728    0.125961    0.062516
     10          1           0        0.431654   -1.190903   -0.975895
     11          1           0        0.438307   -1.106175    0.789263
     12          1           0        2.129567    0.432228   -0.553407
     13          1           0        2.715301   -0.544676   -0.242399
     14          1           0        2.151999    0.917222    1.095803
 ---------------------------------------------------------------------

 SCF Done:  E(RB2PLYPD3) =  -157.784081078     A.U. after   11 cycles
 E2(B2PLYPD3) =    -0.2472336315D+00 E(B2PLYPD3) =    -0.15803131470988D+03

 The electronic state is 1-A.
 Alpha  occ. eigenvalues --  -10.61089 -10.59840 -10.59357 -10.57512  -0.92217
 Alpha  occ. eigenvalues --   -0.87182  -0.76874  -0.68058  -0.53960  -0.49923
 Alpha  occ. eigenvalues --   -0.49142  -0.47551  -0.42852  -0.40979  -0.39050
 Alpha  occ. eigenvalues --   -0.38039  -0.37052
 Alpha virt. eigenvalues --    0.05700   0.06579   0.08073   0.08428   0.10638
 Alpha virt. eigenvalues --    0.12016   0.12752   0.13618   0.14551   0.15536
 Alpha virt. eigenvalues --    0.15878   0.16359   0.19294   0.19731   0.22660

 Mulliken charges:
               1
     1  C   -0.131969
     2  C   -0.047782
     3  H    0.046278
     4  H    0.002032
     5  H    0.051483
     6  C   -0.011604
     7  H    0.064964
     8  H    0.004602
     9  C   -0.560174
    10  H    0.014588
    11  H    0.057355
    12  H    0.408237
    13  H    0.043034
    14  H    0.058955
 Sum of Mulliken charges =   0.00000

 Dipole moment (field-independent basis, Debye):
    X=              0.0144    Y=              0.2690    Z=             -0.4307  Tot=              0.5080
 Quadrupole moment (field-independent basis, Debye-Ang):
   XX=            -28.6950   YY=            -28.8755   ZZ=            -27.9090
   XY=             -0.6566   XZ=             -0.1831   YZ=              0.5306

 Normal termination of Gaussian 09 at Wed Aug 26 10:53:57 2020.
