 Gaussian 09, Revision D.01,
 Gaussian 09:  ES64L-G09RevD.01 24-Apr-2013

 --------------------
 #p B2PLYPD3/Def2QZVP
 --------------------

 ----------
 butane_opt
 ----------
 Symbolic Z-matrix:
 Charge =  0 Multiplicity = 1

                         Standard orientation:
 ---------------------------------------------------------------------
 Center     Atomic      Atomic             Coordinates (Angstroms)
 Number     Number       Type             X           Y           Z
 ---------------------------------------------------------------------
      1          6           0        2.008083    0.055739   -0.110243
      2          6           0        0.572819   -0.419768    0.253804
      3          1           0        2.960200   -1.027381   -0.783738
      4          1           0        2.582437    1.147987    0.779177
      5          1           0        1.482152    0.258954   -0.814900
      6          6           0       -0.569432    0.646435    0.010726
      7          1           0        0.428110   -1.058992    1.224236
      8          1           0        0.537423   -1.099191   -0.422856
      9          6           0       -2.049191   -0.149131   -0.107423
     10          1           0       -0.127591    1.101426   -0.784664
     11          1           0       -0.548840    1.165159    0.720752
     12          1           0       -2.291312   -0.953426   -0.902788
     13          1           0       -2.640557    0.498892   -0.276857
     14          1           0       -2.155696   -0.833078    0.980447
 ---------------------------------------------------------------------

 SCF Done:  E(RB2PLYPD3) =  -157.758698737     A.U. after   11 cycles
 E2(B2PLYPD3) =    -0.2549603494D+00 E(B2PLYPD3) =    -0.15801365908674D+03

 The electronic state is 1-A.
 Alpha  occ. eigenvalues --  -10.65707 -10.62521 -10.61263 -10.60241  -0.94048
 Alpha  occ. eigenvalues --   -0.84614  -0.75854  -0.67792  -0.55617  -0.50518
 Alpha  occ. eigenvalues --   -0.48003  -0.45254  -0.43711  -0.39954  -0.37403
 Alpha  occ. eigenvalues --   -0.37222  -0.34093
 Alpha virt. eigenvalues --    0.01596   0.05493   0.07145   0.08309   0.09540
 Alpha virt. eigenvalues --    0.10120   0.12236   0.13037   0.13695   0.14765
 Alpha virt. eigenvalues --    0.16083   0.16396   0.18002   0.19113   0.19907

 Mulliken charges:
               1
     1  C   -0.277635
     2  C   -0.058230
     3  H    0.014743
     4  H    0.036005
     5  H    0.154321
     6  C   -0.159462
     7  H    0.009298
     8  H    0.094241
     9  C   -0.204999
    10  H    0.062529
    11  H    0.134668
    12  H    0.036030
    13  H    0.116145
    14  H    0.042346
 Sum of Mulliken charges =   0.00000

 Dipole moment (field-independent basis, Debye):
    X=             -1.1297    Y=              0.1970    Z=             -0.3561  Tot=              1.2007
 Quadrupole moment (field-independent basis, Debye-Ang):
   XX=            -32.0348   YY=            -28.8250   ZZ=            -29.0338
   XY=             -0.0234   XZ=              0.2763   YZ=              1.0793

 Normal termination of Gaussian 09 at Wed Aug 26 19:18:02 2020.
