 Gaussian 09, Revision D.01,
 Gaussian 09:  ES64L-G09RevD.01 24-Apr-2013

 --------------------
 #p B2PLYPD3/Def2QZVP
 --------------------

 ----------
 butane_opt
 ----------
 Symbolic Z-matrix:
 Charge =  0 Multiplicity = 1

                         Standard orientation:
 ---------------------------------------------------------------------
 Center     Atomic      Atomic             Coordinates (Angstroms)
 Number     Number       Type             X           Y           Z
 ---------------------------------------------------------------------
      1          6           0        1.936284    0.036479    0.087215
      2          6           0        0.576559   -0.378278   -0.243232
      3          1           0        2.767408   -0.917808    0.317350
      4          1           0        1.748683    0.752656    1.304369
      5          1           0        1.995038    0.675497   -0.674020
      6          6           0       -0.554736    0.570413   -0.139656
      7          1           0        0.562661   -1.161592    0.452537
      8          1           0        0.514902   -0.710857   -0.967354
      9          6           0       -1.931458   -0.186983    0.109775
     10          1           0       -0.594587    1.478980   -0.981822
     11          1           0       -0.257667    0.925810    0.734869
     12          1           0       -2.719278   -0.853770   -0.964245
     13          1           0       -2.621117    0.351181    0.943959
     14          1           0       -1.555940   -0.789878    0.949744
 ---------------------------------------------------------------------

 SCF Done:  E(RB2PLYPD3) =  -157.810743648     A.U. after   11 cycles
 E2(B2PLYPD3) =    -0.2542617543D+00 E(B2PLYPD3) =    -0.15806500540268D+03

 The electronic state is 1-A.
 Alpha  occ. eigenvalues --  -10.65359 -10.63769 -10.61942 -10.55884  -0.95276
 Alpha  occ. eigenvalues --   -0.83355  -0.71967  -0.68576  -0.58135  -0.50469
 Alpha  occ. eigenvalues --   -0.46803  -0.45404  -0.42347  -0.39135  -0.37731
 Alpha  occ. eigenvalues --   -0.36040  -0.35555
 Alpha virt. eigenvalues --    0.04135   0.04668   0.07669   0.08109   0.09793
 Alpha virt. eigenvalues --    0.10437   0.11137   0.12692   0.14030   0.14388
 Alpha virt. eigenvalues --    0.15868   0.16998   0.18216   0.19316   0.20095

 Mulliken charges:
               1
     1  C   -0.163906
     2  C   -0.206983
     3  H    0.068042
     4  H   -0.010467
     5  H    0.081113
     6  C   -0.065695
     7  H    0.023821
     8  H    0.203369
     9  C   -0.197316
    10  H    0.018380
    11  H    0.093725
    12  H    0.052707
    13  H    0.040835
    14  H    0.062376
 Sum of Mulliken charges =   0.00000

 Dipole moment (field-independent basis, Debye):
    X=              0.1844    Y=             -0.4149    Z=             -0.0274  Tot=              0.4548
 Quadrupole moment (field-independent basis, Debye-Ang):
   XX=            -31.6272   YY=            -30.0805   ZZ=            -27.9898
   XY=             -1.1777   XZ=             -0.6696   YZ=             -0.3507

 Normal termination of Gaussian 09 at Wed Aug 26 18:30:57 2020.
