 Gaussian 09, Revision D.01,
 Gaussian 09:  ES64L-G09RevD.01 24-Apr-2013

 --------------------
 #p B2PLYPD3/Def2QZVP
 --------------------

 ----------
 butane_opt
 ----------
 Symbolic Z-matrix:
 Charge =  0 Multiplicity = 1

                         Standard orientation:
 ---------------------------------------------------------------------
 Center     Atomic      Atomic             Coordinates (Angstroms)
 Number     Number       Type             X           Y           Z
 ---------------------------------------------------------------------
      1          6           0        1.885200    0.016263   -0.194431
      2          6           0        0.598253   -0.418318    0.353158
      3          1           0        2.847525   -1.015909   -0.658391
      4          1           0        2.647334    1.093886    0.534179
      5          1           0        1.556330    0.326359   -0.990807
      6          6           0       -0.483892    0.644312    0.042861
      7          1           0        0.600205   -0.971769    1.550413
      8          1           0        0.376065   -1.027823   -0.257251
      9          6           0       -2.026261   -0.196113   -0.042208
     10          1           0       -0.138668    1.000971   -0.974925
     11          1           0       -0.576850    1.481091    0.791551
     12          1           0       -1.980793   -1.126472   -0.960075
     13          1           0       -2.727195    0.233641   -0.541423
     14          1           0       -2.443750   -0.270841    0.550447
 ---------------------------------------------------------------------

 SCF Done:  E(RB2PLYPD3) =  -157.659571167     A.U. after   12 cycles
 E2(B2PLYPD3) =    -0.2537466348D+00 E(B2PLYPD3) =    -0.15791331780209D+03

 The electronic state is 1-A.
 Alpha  occ. eigenvalues --  -10.65059 -10.64697 -10.61262 -10.58783  -0.94064
 Alpha  occ. eigenvalues --   -0.87116  -0.75561  -0.67916  -0.55084  -0.51386
 Alpha  occ. eigenvalues --   -0.47936  -0.45972  -0.43231  -0.39994  -0.37840
 Alpha  occ. eigenvalues --   -0.37150  -0.34832
 Alpha virt. eigenvalues --    0.03520   0.05654   0.07219   0.07977   0.08914
 Alpha virt. eigenvalues --    0.09979   0.11844   0.13717   0.13897   0.15277
 Alpha virt. eigenvalues --    0.16111   0.17195   0.17918   0.18589   0.20424

 Mulliken charges:
               1
     1  C   -0.220716
     2  C   -0.149590
     3  H    0.013311
     4  H    0.011150
     5  H    0.138889
     6  C   -0.079979
     7  H    0.019808
     8  H    0.183724
     9  C   -0.413059
    10  H    0.053757
    11  H    0.051990
    12  H    0.024939
    13  H    0.052676
    14  H    0.313101
 Sum of Mulliken charges =   0.00000

 Dipole moment (field-independent basis, Debye):
    X=             -1.0115    Y=              0.2538    Z=             -0.4484  Tot=              1.1351
 Quadrupole moment (field-independent basis, Debye-Ang):
   XX=            -30.5712   YY=            -30.0058   ZZ=            -28.3862
   XY=             -0.4130   XZ=             -0.5674   YZ=              0.8345

 Normal termination of Gaussian 09 at Wed Aug 26 13:49:00 2020.
