 Gaussian 09, Revision D.01,
 Gaussian 09:  ES64L-G09RevD.01 24-Apr-2013

 --------------------
 #p B2PLYPD3/Def2QZVP
 --------------------

 ----------
 butane_opt
 ----------
 Symbolic Z-matrix:
 Charge =  0 Multiplicity = 1

                         Standard orientation:
 ---------------------------------------------------------------------
 Center     Atomic      Atomic             Coordinates (Angstroms)
 Number     Number       Type             X           Y           Z
 ---------------------------------------------------------------------
      1          6           0        1.911068   -0.246653   -0.122671
      2          6           0        0.538172    0.560195    0.004713
      3          1           0        2.756752    0.623091   -0.233234
      4          1           0        2.238599   -0.910095   -0.797801
      5          1           0        2.016907   -0.840665    0.989000
      6          6           0       -0.566990   -0.326885    0.241261
      7          1           0        0.316845    0.976896   -0.791930
      8          1           0        0.470521    1.616564    0.847068
      9          6           0       -1.899061    0.099984   -0.149703
     10          1           0       -0.725587   -1.131128    1.369843
     11          1           0       -0.531836   -0.983012   -0.464306
     12          1           0       -2.146881    0.944457    0.669389
     13          1           0       -2.795638   -1.120202   -0.643321
     14          1           0       -1.498816    0.304248   -0.786309
 ---------------------------------------------------------------------

 SCF Done:  E(RB2PLYPD3) =  -157.716707792     A.U. after   12 cycles
 E2(B2PLYPD3) =    -0.2553749623D+00 E(B2PLYPD3) =    -0.15797208275409D+03

 The electronic state is 1-A.
 Alpha  occ. eigenvalues --  -10.63633 -10.63443 -10.61828 -10.61509  -0.98732
 Alpha  occ. eigenvalues --   -0.85747  -0.74471  -0.67152  -0.56897  -0.51478
 Alpha  occ. eigenvalues --   -0.50575  -0.45951  -0.41790  -0.40258  -0.37747
 Alpha  occ. eigenvalues --   -0.35432  -0.34264
 Alpha virt. eigenvalues --    0.02067   0.05381   0.06830   0.07354   0.09877
 Alpha virt. eigenvalues --    0.11095   0.11691   0.12038   0.13739   0.14836
 Alpha virt. eigenvalues --    0.14993   0.16295   0.18325   0.19190   0.20238

 Mulliken charges:
               1
     1  C   -0.175349
     2  C   -0.076609
     3  H    0.034033
     4  H    0.066467
     5  H    0.050419
     6  C   -0.068244
     7  H    0.108211
     8  H    0.010840
     9  C   -0.434907
    10  H   -0.015259
    11  H    0.100475
    12  H    0.064708
    13  H    0.015935
    14  H    0.319280
 Sum of Mulliken charges =   0.00000

 Dipole moment (field-independent basis, Debye):
    X=              0.5791    Y=              0.1416    Z=             -0.9012  Tot=              1.0806
 Quadrupole moment (field-independent basis, Debye-Ang):
   XX=            -32.3341   YY=            -29.2724   ZZ=            -29.3946
   XY=             -0.1146   XZ=             -1.1027   YZ=              1.0854

 Normal termination of Gaussian 09 at Wed Aug 26 16:34:18 2020.
