 Gaussian 09, Revision D.01,
 Gaussian 09:  ES64L-G09RevD.01 24-Apr-2013

 --------------------
 #p B2PLYPD3/Def2QZVP
 --------------------

 ----------
 butane_opt
 ----------
 Symbolic Z-matrix:
 Charge =  0 Multiplicity = 1

                         Standard orientation:
 ---------------------------------------------------------------------
 Center     Atomic      Atomic             Coordinates (Angstroms)
 Number     Number       Type             X           Y           Z
 ---------------------------------------------------------------------
      1          6           0       -1.954676   -0.141534   -0.079843
      2          6           0       -0.494265    0.541953    0.079118
      3          1           0       -2.724016    0.569719   -0.186079
      4          1           0       -2.192796   -0.717429    0.842591
      5          1           0       -1.982969   -0.767478   -0.871738
      6          6           0        0.558704   -0.487806    0.123269
      7          1           0       -0.518767    1.221559    0.955492
      8          1           0       -0.233853    1.128667   -0.819882
      9          6           0        1.864418    0.127330   -0.091981
     10          1           0        0.520350   -1.204040   -0.764871
     11          1           0        0.525040   -1.035894    0.900307
     12          1           0        1.881765    0.617993   -0.970621
     13          1           0        2.697775   -0.707658   -0.028006
     14          1           0        2.182380    0.654900    0.759428
 ---------------------------------------------------------------------

 SCF Done:  E(RB2PLYPD3) =  -158.081920084     A.U. after   11 cycles
 E2(B2PLYPD3) =    -0.2457917904D+00 E(B2PLYPD3) =    -0.15832771187472D+03

 The electronic state is 1-A.
 Alpha  occ. eigenvalues --  -10.60837 -10.58936 -10.58521 -10.58130  -0.92790
 Alpha  occ. eigenvalues --   -0.83072  -0.73612  -0.67731  -0.56405  -0.49531
 Alpha  occ. eigenvalues --   -0.48758  -0.47948  -0.43928  -0.42760  -0.39288
 Alpha  occ. eigenvalues --   -0.37021  -0.36527
 Alpha virt. eigenvalues --    0.05877   0.07003   0.08249   0.08843   0.10915
 Alpha virt. eigenvalues --    0.12101   0.13072   0.13922   0.14941   0.15546
 Alpha virt. eigenvalues --    0.16150   0.16751   0.19668   0.20092   0.22128

 Mulliken charges:
               1
     1  C   -0.143222
     2  C   -0.067260
     3  H    0.041659
     4  H    0.033459
     5  H    0.058517
     6  C   -0.033743
     7  H    0.036641
     8  H    0.029144
     9  C   -0.130029
    10  H    0.013837
    11  H    0.051096
    12  H    0.062193
    13  H    0.012421
    14  H    0.035287
 Sum of Mulliken charges =   0.00000

 Dipole moment (field-independent basis, Debye):
    X=             -0.0253    Y=             -0.0183    Z=              0.1002  Tot=              0.1050
 Quadrupole moment (field-independent basis, Debye-Ang):
   XX=            -29.8499   YY=            -28.9398   ZZ=            -27.5787
   XY=             -0.2435   XZ=              0.2054   YZ=             -0.1632

 Normal termination of Gaussian 09 at Wed Aug 26 19:20:00 2020.
