 Gaussian 09, Revision D.01,
 Gaussian 09:  ES64L-G09RevD.01 24-Apr-2013

 --------------------
 #p B2PLYPD3/Def2QZVP
 --------------------

 ----------
 butane_opt
 ----------
 Symbolic Z-matrix:
 Charge =  0 Multiplicity = 1

                         Standard orientation:
 ---------------------------------------------------------------------
 Center     Atomic      Atomic             Coordinates (Angstroms)
 Number     Number       Type             X           Y           Z
 ---------------------------------------------------------------------
      1          6           0        1.963009    0.148475   -0.050292
      2          6           0        0.482545   -0.619426    0.026565
      3          1           0        2.708323   -0.394279   -0.035575
      4          1           0        2.166881    0.210820    0.546921
      5          1           0        1.927318    1.611082   -1.094825
      6          6           0       -0.566512    0.427235    0.317728
      7          1           0        0.338960   -1.383893    0.754303
      8          1           0        0.415368   -1.110052   -1.020359
      9          6           0       -1.906751   -0.007701   -0.212608
     10          1           0       -0.111230    0.865526   -0.173135
     11          1           0       -0.562924    1.020947    1.408879
     12          1           0       -1.428173   -0.512049   -1.060652
     13          1           0       -2.751308    1.000379   -0.390214
     14          1           0       -2.536957   -0.999984    0.576299
 ---------------------------------------------------------------------

 SCF Done:  E(RB2PLYPD3) =  -157.355922168     A.U. after   12 cycles
 E2(B2PLYPD3) =    -0.2567217191D+00 E(B2PLYPD3) =    -0.15761264388668D+03

 The electronic state is 1-A.
 Alpha  occ. eigenvalues --  -10.65312 -10.63452 -10.61184 -10.58670  -0.96421
 Alpha  occ. eigenvalues --   -0.91413  -0.75516  -0.69033  -0.55201  -0.49893
 Alpha  occ. eigenvalues --   -0.48796  -0.43523  -0.42540  -0.39376  -0.39015
 Alpha  occ. eigenvalues --   -0.36119  -0.34498
 Alpha virt. eigenvalues --   -0.00125   0.04723   0.06786   0.07473   0.09676
 Alpha virt. eigenvalues --    0.10311   0.11455   0.14008   0.14455   0.15211
 Alpha virt. eigenvalues --    0.15675   0.15729   0.17827   0.19115   0.20872

 Mulliken charges:
               1
     1  C   -0.666621
     2  C   -0.057409
     3  H    0.055000
     4  H    0.534221
     5  H    0.015844
     6  C   -0.276298
     7  H    0.052531
     8  H    0.040652
     9  C   -0.163720
    10  H    0.302488
    11  H    0.023592
    12  H    0.076594
    13  H    0.047230
    14  H    0.015894
 Sum of Mulliken charges =   0.00000

 Dipole moment (field-independent basis, Debye):
    X=              0.7178    Y=             -0.2988    Z=              0.3505  Tot=              0.8529
 Quadrupole moment (field-independent basis, Debye-Ang):
   XX=            -30.1087   YY=            -29.1927   ZZ=            -29.2823
   XY=             -1.4178   XZ=              1.0336   YZ=             -0.5614

 Normal termination of Gaussian 09 at Wed Aug 26 11:43:55 2020.
