 Gaussian 09, Revision D.01,
 Gaussian 09:  ES64L-G09RevD.01 24-Apr-2013

 --------------------
 #p B2PLYPD3/Def2QZVP
 --------------------

 ----------
 butane_opt
 ----------
 Symbolic Z-matrix:
 Charge =  0 Multiplicity = 1

                         Standard orientation:
 ---------------------------------------------------------------------
 Center     Atomic      Atomic             Coordinates (Angstroms)
 Number     Number       Type             X           Y           Z
 ---------------------------------------------------------------------
      1          6           0       -1.906935    0.059811   -0.067787
      2          6           0       -0.545457   -0.361199    0.155635
      3          1           0       -2.808565   -0.846936   -0.107758
      4          1           0       -1.767402    0.673211   -0.944079
      5          1           0       -1.991403    0.452492    0.480501
      6          6           0        0.502009    0.554335    0.078722
      7          1           0       -0.485970   -1.118587   -0.794726
      8          1           0       -0.478497   -0.868522    1.002817
      9          6           0        1.966410   -0.151330   -0.092201
     10          1           0        0.605985    1.481780    0.932527
     11          1           0        0.081344    0.951660   -0.585355
     12          1           0        2.281859   -0.877054    1.060950
     13          1           0        2.593273    0.353423   -0.668741
     14          1           0        1.873210   -0.811170   -0.822348
 ---------------------------------------------------------------------

 SCF Done:  E(RB2PLYPD3) =  -157.647073065     A.U. after   11 cycles
 E2(B2PLYPD3) =    -0.2500413657D+00 E(B2PLYPD3) =    -0.15789711443090D+03

 The electronic state is 1-A.
 Alpha  occ. eigenvalues --  -10.61515 -10.59811 -10.58868 -10.57097  -0.97391
 Alpha  occ. eigenvalues --   -0.86378  -0.78172  -0.68403  -0.59130  -0.51063
 Alpha  occ. eigenvalues --   -0.49637  -0.46565  -0.42883  -0.41885  -0.39509
 Alpha  occ. eigenvalues --   -0.37038  -0.34353
 Alpha virt. eigenvalues --    0.05066   0.06034   0.07513   0.08640   0.10630
 Alpha virt. eigenvalues --    0.11432   0.12575   0.13083   0.14711   0.15310
 Alpha virt. eigenvalues --    0.15862   0.16993   0.18839   0.19491   0.21291

 Mulliken charges:
               1
     1  C   -0.631068
     2  C    0.020149
     3  H    0.054100
     4  H    0.061242
     5  H    0.460796
     6  C   -0.148343
     7  H    0.003658
     8  H    0.034192
     9  C   -0.153227
    10  H    0.002863
    11  H    0.133057
    12  H    0.042719
    13  H    0.056905
    14  H    0.062958
 Sum of Mulliken charges =   0.00000

 Dipole moment (field-independent basis, Debye):
    X=             -0.1615    Y=              0.0012    Z=             -0.3212  Tot=              0.3595
 Quadrupole moment (field-independent basis, Debye-Ang):
   XX=            -29.6048   YY=            -29.3703   ZZ=            -27.6539
   XY=              0.0209   XZ=             -1.3093   YZ=             -0.3879

 Normal termination of Gaussian 09 at Wed Aug 26 18:46:24 2020.
