 Gaussian 09, Revision D.01,
 Gaussian 09:  ES64L-G09RevD.01 24-Apr-2013

 --------------------
 #p B2PLYPD3/Def2QZVP
 --------------------

 ----------
 butane_opt
 ----------
 Symbolic Z-matrix:
 Charge =  0 Multiplicity = 1

                         Standard orientation:
 ---------------------------------------------------------------------
 Center     Atomic      Atomic             Coordinates (Angstroms)
 Number     Number       Type             X           Y           Z
 ---------------------------------------------------------------------
      1          6           0       -2.001910    0.002209    0.132142
      2          6           0       -0.632760   -0.355681   -0.306757
      3          1           0       -2.736162   -0.963558    0.461114
      4          1           0       -2.372796    0.728912   -0.638778
      5          1           0       -1.498720    0.639545    1.314504
      6          6           0        0.545144    0.613794   -0.065273
      7          1           0       -0.644781   -0.935976   -1.108551
      8          1           0       -0.254931   -0.918108    0.326412
      9          6           0        2.005446   -0.200182    0.096288
     10          1           0        0.349896    1.010579    0.865224
     11          1           0        0.457408    1.468893   -0.809536
     12          1           0        1.971458   -1.236869    0.989487
     13          1           0        2.710967    0.494189    0.193014
     14          1           0        2.522138   -0.648444   -0.731299
 ---------------------------------------------------------------------

 SCF Done:  E(RB2PLYPD3) =  -157.936357859     A.U. after   11 cycles
 E2(B2PLYPD3) =    -0.2520153748D+00 E(B2PLYPD3) =    -0.15818837323345D+03

 The electronic state is 1-A.
 Alpha  occ. eigenvalues --  -10.64935 -10.62807 -10.62528 -10.56695  -0.92259
 Alpha  occ. eigenvalues --   -0.82046  -0.73522  -0.67765  -0.54961  -0.48628
 Alpha  occ. eigenvalues --   -0.48198  -0.46385  -0.43170  -0.40207  -0.38034
 Alpha  occ. eigenvalues --   -0.36204  -0.35246
 Alpha virt. eigenvalues --    0.04544   0.05649   0.08256   0.08444   0.10227
 Alpha virt. eigenvalues --    0.10986   0.11475   0.13459   0.14484   0.14774
 Alpha virt. eigenvalues --    0.15211   0.16152   0.18677   0.19405   0.20718

 Mulliken charges:
               1
     1  C   -0.185360
     2  C   -0.060838
     3  H    0.064129
     4  H    0.066849
     5  H   -0.008408
     6  C   -0.048028
     7  H    0.029619
     8  H    0.085566
     9  C   -0.160283
    10  H    0.071609
    11  H    0.020608
    12  H    0.024096
    13  H    0.067656
    14  H    0.032785
 Sum of Mulliken charges =   0.00000

 Dipole moment (field-independent basis, Debye):
    X=              0.4235    Y=             -0.2487    Z=             -0.4397  Tot=              0.6592
 Quadrupole moment (field-independent basis, Debye-Ang):
   XX=            -29.4421   YY=            -28.9016   ZZ=            -29.6201
   XY=              1.0917   XZ=              0.5992   YZ=             -0.7600

 Normal termination of Gaussian 09 at Wed Aug 26 19:31:16 2020.
