 Gaussian 09, Revision D.01,
 Gaussian 09:  ES64L-G09RevD.01 24-Apr-2013

 --------------------
 #p B2PLYPD3/Def2QZVP
 --------------------

 ----------
 butane_opt
 ----------
 Symbolic Z-matrix:
 Charge =  0 Multiplicity = 1

                         Standard orientation:
 ---------------------------------------------------------------------
 Center     Atomic      Atomic             Coordinates (Angstroms)
 Number     Number       Type             X           Y           Z
 ---------------------------------------------------------------------
      1          6           0       -1.899970    0.127442    0.042521
      2          6           0       -0.547184   -0.506050    0.013982
      3          1           0       -2.714423   -0.726936   -0.291742
      4          1           0       -2.007323    0.357539   -0.647742
      5          1           0       -2.211828    1.016759    1.119059
      6          6           0        0.559515    0.510343   -0.079313
      7          1           0       -0.497648   -1.211589   -0.904112
      8          1           0       -0.336128   -1.101130    0.825472
      9          6           0        1.909046   -0.104251    0.032156
     10          1           0        0.410885    1.016092    0.599582
     11          1           0        0.334935    1.328644   -1.065969
     12          1           0        2.181181   -0.695506    0.996190
     13          1           0        2.619776    0.489619    0.026252
     14          1           0        2.092132   -0.638395   -0.713072
 ---------------------------------------------------------------------

 SCF Done:  E(RB2PLYPD3) =  -157.759710177     A.U. after   11 cycles
 E2(B2PLYPD3) =    -0.2478857217D+00 E(B2PLYPD3) =    -0.15800759589913D+03

 The electronic state is 1-A.
 Alpha  occ. eigenvalues --  -10.60291 -10.60173 -10.59242 -10.56646  -0.94062
 Alpha  occ. eigenvalues --   -0.87323  -0.77711  -0.69280  -0.55182  -0.50834
 Alpha  occ. eigenvalues --   -0.49280  -0.47404  -0.43105  -0.42264  -0.39601
 Alpha  occ. eigenvalues --   -0.37017  -0.36263
 Alpha virt. eigenvalues --    0.05072   0.06447   0.07332   0.07928   0.10623
 Alpha virt. eigenvalues --    0.11708   0.12762   0.13443   0.15059   0.15291
 Alpha virt. eigenvalues --    0.16264   0.16848   0.19294   0.19605   0.21456

 Mulliken charges:
               1
     1  C   -0.530698
     2  C    0.035434
     3  H    0.027761
     4  H    0.383045
     5  H    0.047038
     6  C   -0.146131
     7  H    0.001869
     8  H    0.052105
     9  C   -0.118283
    10  H    0.144773
    11  H   -0.008824
    12  H    0.014087
    13  H    0.044926
    14  H    0.052899
 Sum of Mulliken charges =   0.00000

 Dipole moment (field-independent basis, Debye):
    X=              0.4376    Y=              0.0416    Z=             -0.1173  Tot=              0.4549
 Quadrupole moment (field-independent basis, Debye-Ang):
   XX=            -29.2057   YY=            -29.1022   ZZ=            -27.7578
   XY=             -0.2611   XZ=              1.1285   YZ=              0.7424

 Normal termination of Gaussian 09 at Wed Aug 26 22:58:25 2020.
