 Gaussian 09, Revision D.01,
 Gaussian 09:  ES64L-G09RevD.01 24-Apr-2013

 --------------------
 #p B2PLYPD3/Def2QZVP
 --------------------

 ----------
 butane_opt
 ----------
 Symbolic Z-matrix:
 Charge =  0 Multiplicity = 1

                         Standard orientation:
 ---------------------------------------------------------------------
 Center     Atomic      Atomic             Coordinates (Angstroms)
 Number     Number       Type             X           Y           Z
 ---------------------------------------------------------------------
      1          6           0        1.984871    0.096228   -0.143903
      2          6           0        0.592214   -0.538396    0.072573
      3          1           0        2.729301   -0.609103   -0.082680
      4          1           0        2.059685    0.499066    0.559498
      5          1           0        1.948422    0.968033   -1.217012
      6          6           0       -0.533556    0.524861    0.278481
      7          1           0        0.719335   -1.374966    1.002820
      8          1           0        0.504992   -0.693841   -0.596289
      9          6           0       -2.073377   -0.116170   -0.177171
     10          1           0       -0.482711    0.907943   -0.405966
     11          1           0       -0.164835    1.398578    1.340887
     12          1           0       -1.746501   -0.623960   -1.012745
     13          1           0       -2.732949    0.651618   -0.504606
     14          1           0       -2.655652   -0.922507    0.736212
 ---------------------------------------------------------------------

 SCF Done:  E(RB2PLYPD3) =  -157.523334725     A.U. after   11 cycles
 E2(B2PLYPD3) =    -0.2512116029D+00 E(B2PLYPD3) =    -0.15777454632830D+03

 The electronic state is 1-A.
 Alpha  occ. eigenvalues --  -10.63671 -10.61778 -10.58841 -10.58693  -0.95105
 Alpha  occ. eigenvalues --   -0.84898  -0.76586  -0.71340  -0.55601  -0.50086
 Alpha  occ. eigenvalues --   -0.49289  -0.45751  -0.43305  -0.40500  -0.38970
 Alpha  occ. eigenvalues --   -0.37691  -0.35094
 Alpha virt. eigenvalues --    0.05073   0.05897   0.07259   0.08056   0.10594
 Alpha virt. eigenvalues --    0.11225   0.11722   0.12906   0.14144   0.15427
 Alpha virt. eigenvalues --    0.15794   0.16278   0.17986   0.19346   0.19922

 Mulliken charges:
               1
     1  C   -0.293164
     2  C   -0.637877
     3  H    0.061868
     4  H    0.224418
     5  H    0.012142
     6  C   -0.370402
     7  H    0.045597
     8  H    0.573234
     9  C   -0.174234
    10  H    0.356458
    11  H    0.017383
    12  H    0.082421
    13  H    0.065922
    14  H    0.036234
 Sum of Mulliken charges =   0.00000

 Dipole moment (field-independent basis, Debye):
    X=              0.1607    Y=             -0.1097    Z=             -0.4684  Tot=              0.5072
 Quadrupole moment (field-independent basis, Debye-Ang):
   XX=            -29.3001   YY=            -29.4358   ZZ=            -28.1297
   XY=             -0.9572   XZ=              1.9020   YZ=             -0.8281

 Normal termination of Gaussian 09 at Wed Aug 26 15:20:30 2020.
