 Gaussian 09, Revision D.01,
 Gaussian 09:  ES64L-G09RevD.01 24-Apr-2013

 --------------------
 #p B2PLYPD3/Def2QZVP
 --------------------

 ----------
 butane_opt
 ----------
 Symbolic Z-matrix:
 Charge =  0 Multiplicity = 1

                         Standard orientation:
 ---------------------------------------------------------------------
 Center     Atomic      Atomic             Coordinates (Angstroms)
 Number     Number       Type             X           Y           Z
 ---------------------------------------------------------------------
      1          6           0       -1.993538   -0.163925    0.117476
      2          6           0       -0.538177    0.579388   -0.118415
      3          1           0       -2.768872    0.559546   -0.246526
      4          1           0       -2.240948   -0.908710    1.110053
      5          1           0       -2.159512   -0.641631   -0.669876
      6          6           0        0.572249   -0.490663   -0.094578
      7          1           0       -0.337921    1.214820    0.692902
      8          1           0       -0.431713    1.309416   -1.087811
      9          6           0        1.922261    0.081894    0.065600
     10          1           0        0.728485   -1.162426   -0.928802
     11          1           0        0.518092   -1.227240    0.811877
     12          1           0        1.983263    0.370580   -0.547019
     13          1           0        2.799528   -0.673488   -0.260232
     14          1           0        2.132834    1.118961    1.304938
 ---------------------------------------------------------------------

 SCF Done:  E(RB2PLYPD3) =  -157.674455717     A.U. after   11 cycles
 E2(B2PLYPD3) =    -0.2525599741D+00 E(B2PLYPD3) =    -0.15792701569114D+03

 The electronic state is 1-A.
 Alpha  occ. eigenvalues --  -10.63315 -10.61569 -10.61128 -10.60795  -0.93836
 Alpha  occ. eigenvalues --   -0.85158  -0.75777  -0.68034  -0.52853  -0.49050
 Alpha  occ. eigenvalues --   -0.48634  -0.45740  -0.42481  -0.40206  -0.37573
 Alpha  occ. eigenvalues --   -0.37308  -0.35781
 Alpha virt. eigenvalues --    0.03398   0.05855   0.06621   0.07367   0.10294
 Alpha virt. eigenvalues --    0.11122   0.12302   0.12603   0.13945   0.15408
 Alpha virt. eigenvalues --    0.15946   0.16186   0.18329   0.19269   0.20501

 Mulliken charges:
               1
     1  C   -0.182734
     2  C   -0.054121
     3  H    0.027730
     4  H    0.060400
     5  H    0.081090
     6  C    0.024572
     7  H    0.063689
     8  H    0.014508
     9  C   -0.664460
    10  H    0.035266
    11  H    0.024732
    12  H    0.511453
    13  H    0.054225
    14  H    0.003650
 Sum of Mulliken charges =   0.00000

 Dipole moment (field-independent basis, Debye):
    X=             -0.2925    Y=             -0.2478    Z=             -0.9160  Tot=              0.9930
 Quadrupole moment (field-independent basis, Debye-Ang):
   XX=            -30.7228   YY=            -29.1430   ZZ=            -28.2802
   XY=             -0.2486   XZ=             -1.0950   YZ=             -0.1648

 Normal termination of Gaussian 09 at Wed Aug 26 11:06:02 2020.
