 Gaussian 09, Revision D.01,
 Gaussian 09:  ES64L-G09RevD.01 24-Apr-2013

 --------------------
 #p B2PLYPD3/Def2QZVP
 --------------------

 ----------
 butane_opt
 ----------
 Symbolic Z-matrix:
 Charge =  0 Multiplicity = 1

                         Standard orientation:
 ---------------------------------------------------------------------
 Center     Atomic      Atomic             Coordinates (Angstroms)
 Number     Number       Type             X           Y           Z
 ---------------------------------------------------------------------
      1          6           0       -2.005938    0.156873   -0.145457
      2          6           0       -0.550726   -0.569176    0.265524
      3          1           0       -2.726420   -0.583971   -0.671254
      4          1           0       -1.803961    0.394769   -0.857691
      5          1           0       -2.450020    1.156055    0.834661
      6          6           0        0.615575    0.500167    0.013009
      7          1           0       -0.574351   -1.052951   -0.454308
      8          1           0       -0.726873   -1.235178    1.154209
      9          6           0        1.983445   -0.168284   -0.138215
     10          1           0        0.527790    1.346698    0.865498
     11          1           0        0.393535    0.983551   -0.733091
     12          1           0        2.019812   -0.519134    0.581180
     13          1           0        2.954640    0.703285    0.114642
     14          1           0        2.131714   -0.710606   -0.803006
 ---------------------------------------------------------------------

 SCF Done:  E(RB2PLYPD3) =  -157.658639874     A.U. after   11 cycles
 E2(B2PLYPD3) =    -0.2492261372D+00 E(B2PLYPD3) =    -0.15790786601109D+03

 The electronic state is 1-A.
 Alpha  occ. eigenvalues --  -10.61133 -10.60770 -10.60023 -10.56712  -0.92862
 Alpha  occ. eigenvalues --   -0.87166  -0.77126  -0.71520  -0.57701  -0.51619
 Alpha  occ. eigenvalues --   -0.48030  -0.46112  -0.43118  -0.41568  -0.41092
 Alpha  occ. eigenvalues --   -0.36371  -0.35182
 Alpha virt. eigenvalues --    0.04630   0.05769   0.08318   0.08772   0.10387
 Alpha virt. eigenvalues --    0.10939   0.12405   0.13242   0.14604   0.15270
 Alpha virt. eigenvalues --    0.16184   0.16542   0.18469   0.19591   0.20921

 Mulliken charges:
               1
     1  C   -0.470687
     2  C   -0.192474
     3  H    0.037170
     4  H    0.333738
     5  H    0.041103
     6  C   -0.041265
     7  H    0.173911
     8  H    0.054731
     9  C   -0.385569
    10  H    0.016916
    11  H    0.087634
    12  H    0.240823
    13  H    0.014802
    14  H    0.089169
 Sum of Mulliken charges =   0.00000

 Dipole moment (field-independent basis, Debye):
    X=              0.1791    Y=             -0.4860    Z=             -0.5652  Tot=              0.7666
 Quadrupole moment (field-independent basis, Debye-Ang):
   XX=            -31.5925   YY=            -28.3784   ZZ=            -27.3429
   XY=             -0.1361   XZ=              1.0524   YZ=              0.7391

 Normal termination of Gaussian 09 at Wed Aug 26 23:23:43 2020.
