 Gaussian 09, Revision D.01,
 Gaussian 09:  ES64L-G09RevD.01 24-Apr-2013

 --------------------
 #p B2PLYPD3/Def2QZVP
 --------------------

 ----------
 butane_opt
 ----------
 Symbolic Z-matrix:
 Charge =  0 Multiplicity = 1

                         Standard orientation:
 ---------------------------------------------------------------------
 Center     Atomic      Atomic             Coordinates (Angstroms)
 Number     Number       Type             X           Y           Z
 ---------------------------------------------------------------------
      1          6           0       -1.995784   -0.154982   -0.152629
      2          6           0       -0.622851    0.658604    0.091533
      3          1           0       -2.434177    0.142048   -0.834328
      4          1           0       -2.688972   -1.000711    1.082125
      5          1           0       -1.934459   -0.583697   -0.636271
      6          6           0        0.619891   -0.448200    0.195785
      7          1           0       -0.722182    1.614655    1.017225
      8          1           0       -0.160893    0.810679   -0.465775
      9          6           0        1.952882    0.051350   -0.136504
     10          1           0        0.409491   -1.235457   -0.743668
     11          1           0        0.741946   -0.960202    1.122422
     12          1           0        1.919668    0.595279   -1.099475
     13          1           0        2.850198   -0.680521   -0.052169
     14          1           0        2.294550    0.657294    0.620805
 ---------------------------------------------------------------------

 SCF Done:  E(RB2PLYPD3) =  -157.343538429     A.U. after   12 cycles
 E2(B2PLYPD3) =    -0.2533927050D+00 E(B2PLYPD3) =    -0.15759693113433D+03

 The electronic state is 1-A.
 Alpha  occ. eigenvalues --  -10.62581 -10.61644 -10.60035 -10.59337  -0.97299
 Alpha  occ. eigenvalues --   -0.91015  -0.81013  -0.67052  -0.55951  -0.51511
 Alpha  occ. eigenvalues --   -0.47580  -0.46562  -0.41787  -0.41322  -0.37810
 Alpha  occ. eigenvalues --   -0.37225  -0.33729
 Alpha virt. eigenvalues --    0.02485   0.05668   0.07349   0.08154   0.09440
 Alpha virt. eigenvalues --    0.10789   0.12123   0.12838   0.14266   0.15451
 Alpha virt. eigenvalues --    0.16679   0.16968   0.17916   0.18841   0.20711

 Mulliken charges:
               1
     1  C   -0.664386
     2  C   -0.493774
     3  H    0.072292
     4  H    0.031580
     5  H    0.560520
     6  C   -0.055637
     7  H    0.049298
     8  H    0.448277
     9  C   -0.129323
    10  H    0.009347
    11  H    0.048104
    12  H    0.040877
    13  H    0.039851
    14  H    0.042974
 Sum of Mulliken charges =   0.00000

 Dipole moment (field-independent basis, Debye):
    X=              0.5631    Y=             -0.1948    Z=             -0.5866  Tot=              0.8361
 Quadrupole moment (field-independent basis, Debye-Ang):
   XX=            -29.6115   YY=            -29.7941   ZZ=            -27.1067
   XY=              0.6681   XZ=              1.9949   YZ=              0.0427

 Normal termination of Gaussian 09 at Wed Aug 26 14:48:34 2020.
