 Gaussian 09, Revision D.01,
 Gaussian 09:  ES64L-G09RevD.01 24-Apr-2013

 --------------------
 #p B2PLYPD3/Def2QZVP
 --------------------

 ----------
 butane_opt
 ----------
 Symbolic Z-matrix:
 Charge =  0 Multiplicity = 1

                         Standard orientation:
 ---------------------------------------------------------------------
 Center     Atomic      Atomic             Coordinates (Angstroms)
 Number     Number       Type             X           Y           Z
 ---------------------------------------------------------------------
      1          6           0       -1.916227   -0.096643    0.091079
      2          6           0       -0.654538    0.478712   -0.094087
      3          1           0       -2.670586    0.669719   -0.064166
      4          1           0       -2.066803   -1.011253    1.122248
      5          1           0       -1.978907   -0.416420   -0.593851
      6          6           0        0.515136   -0.618855   -0.127146
      7          1           0       -0.437495    1.007536    0.667484
      8          1           0       -0.812287    1.502586   -0.987084
      9          6           0        2.080893    0.154433    0.073940
     10          1           0        0.491297   -1.152912   -0.915854
     11          1           0        0.446429   -1.262345    0.754408
     12          1           0        1.979558    0.347331   -0.378228
     13          1           0        2.627837   -0.296507   -0.528348
     14          1           0        2.269378    1.106388    1.260672
 ---------------------------------------------------------------------

 SCF Done:  E(RB2PLYPD3) =  -156.788607065     A.U. after   12 cycles
 E2(B2PLYPD3) =    -0.2539096071D+00 E(B2PLYPD3) =    -0.15704251667221D+03

 The electronic state is 1-A.
 Alpha  occ. eigenvalues --  -10.62713 -10.61608 -10.61190 -10.57839  -0.96843
 Alpha  occ. eigenvalues --   -0.93283  -0.78957  -0.69940  -0.52698  -0.51123
 Alpha  occ. eigenvalues --   -0.48919  -0.46547  -0.42806  -0.42311  -0.37974
 Alpha  occ. eigenvalues --   -0.36120  -0.35329
 Alpha virt. eigenvalues --    0.03765   0.05630   0.06049   0.07491   0.10093
 Alpha virt. eigenvalues --    0.10725   0.12511   0.12813   0.13801   0.15755
 Alpha virt. eigenvalues --    0.15914   0.16751   0.18055   0.19097   0.20352

 Mulliken charges:
               1
     1  C   -0.431152
     2  C   -0.053935
     3  H    0.049384
     4  H    0.031830
     5  H    0.321187
     6  C   -0.066020
     7  H    0.073032
     8  H   -0.012988
     9  C   -1.024951
    10  H    0.072178
    11  H    0.051496
    12  H    0.905931
    13  H    0.000278
    14  H    0.083730
 Sum of Mulliken charges =   0.00000

 Dipole moment (field-independent basis, Debye):
    X=             -0.1631    Y=              0.1518    Z=             -0.5490  Tot=              0.5925
 Quadrupole moment (field-independent basis, Debye-Ang):
   XX=            -30.4457   YY=            -28.2663   ZZ=            -27.0924
   XY=              0.1444   XZ=             -0.3789   YZ=              0.8912

 Normal termination of Gaussian 09 at Wed Aug 26 22:49:06 2020.
