 Gaussian 09, Revision D.01,
 Gaussian 09:  ES64L-G09RevD.01 24-Apr-2013

 --------------------
 #p B2PLYPD3/Def2QZVP
 --------------------

 ----------
 butane_opt
 ----------
 Symbolic Z-matrix:
 Charge =  0 Multiplicity = 1

                         Standard orientation:
 ---------------------------------------------------------------------
 Center     Atomic      Atomic             Coordinates (Angstroms)
 Number     Number       Type             X           Y           Z
 ---------------------------------------------------------------------
      1          6           0        1.943906   -0.245658   -0.137298
      2          6           0        0.497422    0.576498    0.145007
      3          1           0        2.756050    0.481520   -0.561574
      4          1           0        1.660459   -0.764116   -0.774478
      5          1           0        2.618741   -0.595982    0.706092
      6          6           0       -0.580966   -0.343347    0.270847
      7          1           0       -0.084234    0.923526   -0.792310
      8          1           0        0.489836    1.585487    0.899338
      9          6           0       -1.847278    0.015835   -0.148362
     10          1           0       -0.553383   -0.844446    1.383569
     11          1           0       -0.412608   -1.121998   -0.559565
     12          1           0       -2.471954    0.571791    0.579547
     13          1           0       -2.580039   -0.951270   -0.387620
     14          1           0       -1.501370    0.695522   -1.274164
 ---------------------------------------------------------------------

 SCF Done:  E(RB2PLYPD3) =  -157.919625317     A.U. after   11 cycles
 E2(B2PLYPD3) =    -0.2548031597D+00 E(B2PLYPD3) =    -0.15817442847675D+03

 The electronic state is 1-A.
 Alpha  occ. eigenvalues --  -10.63787 -10.63302 -10.61496 -10.60543  -0.95120
 Alpha  occ. eigenvalues --   -0.83551  -0.74183  -0.62985  -0.56476  -0.53017
 Alpha  occ. eigenvalues --   -0.49588  -0.46362  -0.41640  -0.39245  -0.37885
 Alpha  occ. eigenvalues --   -0.35707  -0.34474
 Alpha virt. eigenvalues --    0.05089   0.06548   0.07083   0.07609   0.10105
 Alpha virt. eigenvalues --    0.10475   0.12075   0.12951   0.14629   0.15205
 Alpha virt. eigenvalues --    0.15928   0.16649   0.17841   0.19213   0.20516

 Mulliken charges:
               1
     1  C   -0.209249
     2  C   -0.081247
     3  H    0.023414
     4  H    0.151442
     5  H    0.059389
     6  C   -0.022659
     7  H    0.028846
     8  H    0.022695
     9  C   -0.155622
    10  H    0.014391
    11  H    0.053482
    12  H    0.053378
    13  H    0.048887
    14  H    0.012853
 Sum of Mulliken charges =   0.00000

 Dipole moment (field-independent basis, Debye):
    X=              0.0652    Y=             -0.3101    Z=              0.1013  Tot=              0.3327
 Quadrupole moment (field-independent basis, Debye-Ang):
   XX=            -28.8598   YY=            -30.3840   ZZ=            -29.4068
   XY=              0.1571   XZ=             -0.2239   YZ=              0.9171

 Normal termination of Gaussian 09 at Wed Aug 26 23:45:36 2020.
