 Gaussian 09, Revision D.01,
 Gaussian 09:  ES64L-G09RevD.01 24-Apr-2013

 --------------------
 #p B2PLYPD3/Def2QZVP
 --------------------

 ----------
 butane_opt
 ----------
 Symbolic Z-matrix:
 Charge =  0 Multiplicity = 1

                         Standard orientation:
 ---------------------------------------------------------------------
 Center     Atomic      Atomic             Coordinates (Angstroms)
 Number     Number       Type             X           Y           Z
 ---------------------------------------------------------------------
      1          6           0        1.953057    0.106933   -0.168885
      2          6           0        0.604491   -0.491518    0.249992
      3          1           0        2.873877   -0.842106   -0.465223
      4          1           0        2.466070    1.014284    0.710723
      5          1           0        1.741819    0.425850   -0.959519
      6          6           0       -0.573192    0.553358    0.047554
      7          1           0        0.654505   -1.182762    1.142812
      8          1           0        0.383564   -0.989856   -0.446846
      9          6           0       -2.065142   -0.194060   -0.131512
     10          1           0       -0.172976    0.847942   -0.675852
     11          1           0       -0.293274    1.467148    0.955226
     12          1           0       -2.071034   -0.541537   -0.898173
     13          1           0       -2.813200    0.555341   -0.156118
     14          1           0       -2.284636   -0.602589    0.810074
 ---------------------------------------------------------------------

 SCF Done:  E(RB2PLYPD3) =  -157.809866799     A.U. after   11 cycles
 E2(B2PLYPD3) =    -0.2496581009D+00 E(B2PLYPD3) =    -0.15805952490023D+03

 The electronic state is 1-A.
 Alpha  occ. eigenvalues --  -10.62774 -10.61613 -10.58780 -10.58704  -0.93159
 Alpha  occ. eigenvalues --   -0.84989  -0.75988  -0.69294  -0.56671  -0.52807
 Alpha  occ. eigenvalues --   -0.47723  -0.45530  -0.43853  -0.40327  -0.39779
 Alpha  occ. eigenvalues --   -0.37988  -0.34649
 Alpha virt. eigenvalues --    0.04928   0.06411   0.08587   0.08950   0.10392
 Alpha virt. eigenvalues --    0.10660   0.12463   0.13558   0.14999   0.15203
 Alpha virt. eigenvalues --    0.15791   0.16478   0.18318   0.19410   0.20707

 Mulliken charges:
               1
     1  C   -0.249394
     2  C   -0.141271
     3  H    0.020466
     4  H    0.032831
     5  H    0.148800
     6  C   -0.213034
     7  H    0.037421
     8  H    0.146891
     9  C   -0.217163
    10  H    0.159071
    11  H    0.013263
    12  H    0.147840
    13  H    0.038775
    14  H    0.075503
 Sum of Mulliken charges =   0.00000

 Dipole moment (field-independent basis, Debye):
    X=             -0.6791    Y=             -0.3240    Z=             -0.6317  Tot=              0.9825
 Quadrupole moment (field-independent basis, Debye-Ang):
   XX=            -29.5122   YY=            -29.7660   ZZ=            -27.7459
   XY=              0.2955   XZ=             -0.0619   YZ=              0.2048

 Normal termination of Gaussian 09 at Wed Aug 26 15:37:09 2020.
