 Gaussian 09, Revision D.01,
 Gaussian 09:  ES64L-G09RevD.01 24-Apr-2013

 --------------------
 #p B2PLYPD3/Def2QZVP
 --------------------

 ----------
 butane_opt
 ----------
 Symbolic Z-matrix:
 Charge =  0 Multiplicity = 1

                         Standard orientation:
 ---------------------------------------------------------------------
 Center     Atomic      Atomic             Coordinates (Angstroms)
 Number     Number       Type             X           Y           Z
 ---------------------------------------------------------------------
      1          6           0        2.007387    0.092236   -0.042454
      2          6           0        0.579445   -0.507293    0.052226
      3          1           0        2.752424   -0.614540   -0.189936
      4          1           0        2.228245    0.674909    0.812640
      5          1           0        1.910659    0.815472   -0.956300
      6          6           0       -0.602044    0.510476    0.112412
      7          1           0        0.633932   -1.097200    0.888941
      8          1           0        0.322293   -1.182631   -0.821321
      9          6           0       -1.979336   -0.105200   -0.102949
     10          1           0       -0.243371    1.190873   -0.788968
     11          1           0       -0.553861    1.247930    1.141142
     12          1           0       -1.943109   -0.563636   -0.792450
     13          1           0       -2.713875    0.560448   -0.302894
     14          1           0       -2.426054   -0.972937    0.893734
 ---------------------------------------------------------------------

 SCF Done:  E(RB2PLYPD3) =  -157.981691439     A.U. after   11 cycles
 E2(B2PLYPD3) =    -0.2481082254D+00 E(B2PLYPD3) =    -0.15822979966479D+03

 The electronic state is 1-A.
 Alpha  occ. eigenvalues --  -10.63852 -10.60621 -10.60054 -10.59399  -0.90989
 Alpha  occ. eigenvalues --   -0.84895  -0.74142  -0.65879  -0.54023  -0.50645
 Alpha  occ. eigenvalues --   -0.50513  -0.45870  -0.43642  -0.40726  -0.38777
 Alpha  occ. eigenvalues --   -0.37610  -0.35968
 Alpha virt. eigenvalues --    0.05498   0.06325   0.07952   0.08419   0.10395
 Alpha virt. eigenvalues --    0.11851   0.12756   0.13180   0.14516   0.15229
 Alpha virt. eigenvalues --    0.16134   0.16529   0.19234   0.19676   0.21182

 Mulliken charges:
               1
     1  C   -0.138283
     2  C   -0.032878
     3  H    0.057294
     4  H    0.057204
     5  H    0.018406
     6  C   -0.035458
     7  H    0.042859
     8  H    0.020671
     9  C   -0.267251
    10  H    0.022322
    11  H    0.012181
    12  H    0.178569
    13  H    0.055249
    14  H    0.009115
 Sum of Mulliken charges =   0.00000

 Dipole moment (field-independent basis, Debye):
    X=              0.0966    Y=             -0.1461    Z=             -0.3008  Tot=              0.3481
 Quadrupole moment (field-independent basis, Debye-Ang):
   XX=            -29.0370   YY=            -29.5367   ZZ=            -28.4681
   XY=             -0.7016   XZ=              1.3923   YZ=              0.0825

 Normal termination of Gaussian 09 at Wed Aug 26 23:46:59 2020.
