 Gaussian 09, Revision D.01,
 Gaussian 09:  ES64L-G09RevD.01 24-Apr-2013

 --------------------
 #p B2PLYPD3/Def2QZVP
 --------------------

 ----------
 butane_opt
 ----------
 Symbolic Z-matrix:
 Charge =  0 Multiplicity = 1

                         Standard orientation:
 ---------------------------------------------------------------------
 Center     Atomic      Atomic             Coordinates (Angstroms)
 Number     Number       Type             X           Y           Z
 ---------------------------------------------------------------------
      1          6           0        1.908708   -0.058654    0.134119
      2          6           0        0.663437    0.480055   -0.180993
      3          1           0        2.621501    0.628239   -0.154287
      4          1           0        2.056882   -0.570614   -0.654457
      5          1           0        2.145957   -0.933748    1.265497
      6          6           0       -0.533458   -0.613851   -0.056328
      7          1           0        0.660814    1.207611   -1.211311
      8          1           0        0.379516    1.074165    0.592886
      9          6           0       -1.978239    0.174932    0.089074
     10          1           0       -0.431825   -1.200013    0.868104
     11          1           0       -0.366123   -0.848971   -0.740835
     12          1           0       -2.505468    1.382833    1.346718
     13          1           0       -2.790711   -0.729380   -0.807583
     14          1           0       -2.133235    0.094987   -0.419960
 ---------------------------------------------------------------------

 SCF Done:  E(RB2PLYPD3) =  -156.804308784     A.U. after   15 cycles
 E2(B2PLYPD3) =    -0.2651580207D+00 E(B2PLYPD3) =    -0.15706946680524D+03

 The electronic state is 1-A.
 Alpha  occ. eigenvalues --  -10.67550 -10.61167 -10.60153 -10.59791  -0.95854
 Alpha  occ. eigenvalues --   -0.91065  -0.81132  -0.68532  -0.57766  -0.50983
 Alpha  occ. eigenvalues --   -0.48742  -0.46028  -0.42083  -0.38374  -0.37613
 Alpha  occ. eigenvalues --   -0.35261  -0.28590
 Alpha virt. eigenvalues --   -0.03835   0.00758   0.04980   0.06186   0.09622
 Alpha virt. eigenvalues --    0.10010   0.11602   0.12502   0.13276   0.15232
 Alpha virt. eigenvalues --    0.15630   0.16786   0.18027   0.18829   0.19456

 Mulliken charges:
               1
     1  C   -0.160482
     2  C   -0.061196
     3  H    0.050154
     4  H    0.059897
     5  H    0.036025
     6  C   -0.452927
     7  H    0.017023
     8  H    0.053380
     9  C   -0.930188
    10  H    0.079190
    11  H    0.439265
    12  H    0.110031
    13  H   -0.037282
    14  H    0.797111
 Sum of Mulliken charges =   0.00000

 Dipole moment (field-independent basis, Debye):
    X=              0.8150    Y=              0.7782    Z=             -0.4198  Tot=              1.2025
 Quadrupole moment (field-independent basis, Debye-Ang):
   XX=            -33.0205   YY=            -29.6464   ZZ=            -26.8880
   XY=             -2.7103   XZ=             -1.1767   YZ=              0.6955

 Normal termination of Gaussian 09 at Wed Aug 26 13:20:09 2020.
