 Gaussian 09, Revision D.01,
 Gaussian 09:  ES64L-G09RevD.01 24-Apr-2013

 --------------------
 #p B2PLYPD3/Def2QZVP
 --------------------

 ----------
 butane_opt
 ----------
 Symbolic Z-matrix:
 Charge =  0 Multiplicity = 1

                         Standard orientation:
 ---------------------------------------------------------------------
 Center     Atomic      Atomic             Coordinates (Angstroms)
 Number     Number       Type             X           Y           Z
 ---------------------------------------------------------------------
      1          6           0       -1.924591    0.052959   -0.217890
      2          6           0       -0.598420   -0.430500    0.247103
      3          1           0       -2.828117   -0.889582   -0.068976
      4          1           0       -1.989081    0.890710   -1.334957
      5          1           0       -2.213662    0.593000    0.507479
      6          6           0        0.538418    0.629527    0.198908
      7          1           0       -0.411553   -1.255326   -0.634653
      8          1           0       -0.706841   -1.254794    1.191492
      9          6           0        2.003797   -0.113827   -0.173146
     10          1           0        0.399976    1.757028    1.268022
     11          1           0        0.344723    0.713022   -0.420175
     12          1           0        2.607200   -1.032438    0.917419
     13          1           0        2.472346    0.318125   -0.802565
     14          1           0        2.209788   -0.668700   -0.952933
 ---------------------------------------------------------------------

 SCF Done:  E(RB2PLYPD3) =  -157.404210443     A.U. after   11 cycles
 E2(B2PLYPD3) =    -0.2588981613D+00 E(B2PLYPD3) =    -0.15766310860383D+03

 The electronic state is 1-A.
 Alpha  occ. eigenvalues --  -10.64396 -10.63889 -10.63509 -10.62066  -0.95561
 Alpha  occ. eigenvalues --   -0.86875  -0.80949  -0.65895  -0.53302  -0.49383
 Alpha  occ. eigenvalues --   -0.46263  -0.44560  -0.41398  -0.40315  -0.36813
 Alpha  occ. eigenvalues --   -0.35057  -0.33321
 Alpha virt. eigenvalues --    0.03028   0.04227   0.04644   0.06833   0.08749
 Alpha virt. eigenvalues --    0.10341   0.11328   0.11835   0.13118   0.15107
 Alpha virt. eigenvalues --    0.16062   0.16336   0.17211   0.18920   0.20174

 Mulliken charges:
               1
     1  C   -0.181386
     2  C   -0.010259
     3  H    0.037039
     4  H    0.027672
     5  H    0.093126
     6  C   -0.830926
     7  H    0.023610
     8  H    0.025572
     9  C   -0.234161
    10  H    0.048504
    11  H    0.762236
    12  H    0.021751
    13  H    0.122506
    14  H    0.094716
 Sum of Mulliken charges =   0.00000

 Dipole moment (field-independent basis, Debye):
    X=             -0.2486    Y=              0.0463    Z=             -0.6284  Tot=              0.6774
 Quadrupole moment (field-independent basis, Debye-Ang):
   XX=            -31.1240   YY=            -29.6679   ZZ=            -28.1788
   XY=             -0.6473   XZ=             -3.3364   YZ=             -0.3255

 Normal termination of Gaussian 09 at Wed Aug 26 22:47:01 2020.
