 Gaussian 09, Revision D.01,
 Gaussian 09:  ES64L-G09RevD.01 24-Apr-2013

 --------------------
 #p B2PLYPD3/Def2QZVP
 --------------------

 ----------
 butane_opt
 ----------
 Symbolic Z-matrix:
 Charge =  0 Multiplicity = 1

                         Standard orientation:
 ---------------------------------------------------------------------
 Center     Atomic      Atomic             Coordinates (Angstroms)
 Number     Number       Type             X           Y           Z
 ---------------------------------------------------------------------
      1          6           0        2.058491    0.183233    0.139116
      2          6           0        0.504098   -0.644291   -0.113099
      3          1           0        2.827653   -0.496096   -0.593129
      4          1           0        2.383395    1.110332    1.283696
      5          1           0        2.202021    0.296467   -0.535156
      6          6           0       -0.664589    0.486496   -0.118539
      7          1           0        0.438407   -1.228040    0.703670
      8          1           0        0.289736   -1.291068   -1.025413
      9          6           0       -1.922707   -0.100198    0.158396
     10          1           0       -0.666371    1.681253   -1.267158
     11          1           0       -0.279539    0.960898    0.628992
     12          1           0       -2.152427   -0.468125   -0.654538
     13          1           0       -2.708681    0.743942   -0.021214
     14          1           0       -2.185954   -0.861002    1.085003
 ---------------------------------------------------------------------

 SCF Done:  E(RB2PLYPD3) =  -157.518705910     A.U. after   12 cycles
 E2(B2PLYPD3) =    -0.2592449638D+00 E(B2PLYPD3) =    -0.15777795087402D+03

 The electronic state is 1-A.
 Alpha  occ. eigenvalues --  -10.63608 -10.63301 -10.62773 -10.59914  -0.92431
 Alpha  occ. eigenvalues --   -0.88767  -0.77605  -0.67774  -0.52973  -0.49149
 Alpha  occ. eigenvalues --   -0.47787  -0.46755  -0.43624  -0.38161  -0.35585
 Alpha  occ. eigenvalues --   -0.34472  -0.32452
 Alpha virt. eigenvalues --    0.02091   0.02478   0.05826   0.06744   0.09750
 Alpha virt. eigenvalues --    0.10746   0.11835   0.12309   0.13490   0.15231
 Alpha virt. eigenvalues --    0.16133   0.16537   0.17351   0.17913   0.19782

 Mulliken charges:
               1
     1  C   -0.695089
     2  C   -0.100769
     3  H    0.031048
     4  H    0.100563
     5  H    0.549738
     6  C   -0.066933
     7  H    0.079130
     8  H    0.046111
     9  C   -0.168505
    10  H   -0.027238
    11  H    0.077352
    12  H    0.088242
    13  H    0.029972
    14  H    0.056378
 Sum of Mulliken charges =   0.00000

 Dipole moment (field-independent basis, Debye):
    X=             -0.2187    Y=             -0.1840    Z=              0.0405  Tot=              0.2887
 Quadrupole moment (field-independent basis, Debye-Ang):
   XX=            -30.2661   YY=            -30.0128   ZZ=            -27.9982
   XY=              2.2944   XZ=             -0.7768   YZ=              1.1746

 Normal termination of Gaussian 09 at Wed Aug 26 15:42:16 2020.
