 Gaussian 09, Revision D.01,
 Gaussian 09:  ES64L-G09RevD.01 24-Apr-2013

 --------------------
 #p B2PLYPD3/Def2QZVP
 --------------------

 ----------
 butane_opt
 ----------
 Symbolic Z-matrix:
 Charge =  0 Multiplicity = 1

                         Standard orientation:
 ---------------------------------------------------------------------
 Center     Atomic      Atomic             Coordinates (Angstroms)
 Number     Number       Type             X           Y           Z
 ---------------------------------------------------------------------
      1          6           0        1.907852    0.069139   -0.139250
      2          6           0        0.565414   -0.422702    0.234220
      3          1           0        2.726134   -0.800034   -0.409599
      4          1           0        2.280892    0.906339    0.658155
      5          1           0        1.659905    0.442148   -1.013716
      6          6           0       -0.505780    0.535306    0.021076
      7          1           0        0.606924   -0.978582    1.247856
      8          1           0        0.456808   -1.048327   -0.483565
      9          6           0       -1.944306   -0.129080   -0.069910
     10          1           0       -0.317176    0.920346   -0.844659
     11          1           0       -0.388596    1.320264    0.863289
     12          1           0       -2.250303   -1.041293   -0.981120
     13          1           0       -2.806736    0.574521   -0.165384
     14          1           0       -2.106933   -0.611366    0.851933
 ---------------------------------------------------------------------

 SCF Done:  E(RB2PLYPD3) =  -158.017209035     A.U. after   11 cycles
 E2(B2PLYPD3) =    -0.2483591386D+00 E(B2PLYPD3) =    -0.15826556817380D+03

 The electronic state is 1-A.
 Alpha  occ. eigenvalues --  -10.62503 -10.60892 -10.60441 -10.58496  -0.94289
 Alpha  occ. eigenvalues --   -0.82946  -0.72791  -0.67105  -0.56545  -0.49636
 Alpha  occ. eigenvalues --   -0.48826  -0.46233  -0.42211  -0.40517  -0.39496
 Alpha  occ. eigenvalues --   -0.38109  -0.36650
 Alpha virt. eigenvalues --    0.05607   0.06116   0.08233   0.08544   0.10865
 Alpha virt. eigenvalues --    0.11281   0.12727   0.13419   0.14112   0.14862
 Alpha virt. eigenvalues --    0.15967   0.16662   0.19193   0.20232   0.21213

 Mulliken charges:
               1
     1  C   -0.161610
     2  C   -0.070895
     3  H    0.037377
     4  H    0.028079
     5  H    0.067901
     6  C   -0.065834
     7  H    0.019216
     8  H    0.083931
     9  C   -0.153147
    10  H    0.072633
    11  H    0.023719
    12  H    0.013633
    13  H    0.044715
    14  H    0.060281
 Sum of Mulliken charges =   0.00000

 Dipole moment (field-independent basis, Debye):
    X=             -0.1389    Y=              0.0199    Z=             -0.1708  Tot=              0.2211
 Quadrupole moment (field-independent basis, Debye-Ang):
   XX=            -30.2579   YY=            -29.4943   ZZ=            -28.1950
   XY=             -0.5725   XZ=             -0.2842   YZ=              0.5055

 Normal termination of Gaussian 09 at Wed Aug 26 10:28:44 2020.
