 Gaussian 09, Revision D.01,
 Gaussian 09:  ES64L-G09RevD.01 24-Apr-2013

 --------------------
 #p B2PLYPD3/Def2QZVP
 --------------------

 ----------
 butane_opt
 ----------
 Symbolic Z-matrix:
 Charge =  0 Multiplicity = 1

                         Standard orientation:
 ---------------------------------------------------------------------
 Center     Atomic      Atomic             Coordinates (Angstroms)
 Number     Number       Type             X           Y           Z
 ---------------------------------------------------------------------
      1          6           0       -1.911406   -0.182897   -0.203501
      2          6           0       -0.543677    0.641919    0.278159
      3          1           0       -2.385019    0.318599   -1.009654
      4          1           0       -2.781685   -0.898747    0.800696
      5          1           0       -1.582049   -0.667222   -0.877308
      6          6           0        0.612379   -0.382968    0.236462
      7          1           0       -0.657092    1.402748    1.107904
      8          1           0       -0.302418    1.101839   -0.693755
      9          6           0        1.855778    0.042943   -0.167861
     10          1           0        0.307289   -1.345263   -0.617843
     11          1           0        0.489171   -1.028994    1.328276
     12          1           0        2.056544    0.712083   -1.238253
     13          1           0        2.705896   -0.823804   -0.149653
     14          1           0        2.070923    0.514772    0.490039
 ---------------------------------------------------------------------

 SCF Done:  E(RB2PLYPD3) =  -157.821896047     A.U. after   11 cycles
 E2(B2PLYPD3) =    -0.2542134828D+00 E(B2PLYPD3) =    -0.15807610953024D+03

 The electronic state is 1-A.
 Alpha  occ. eigenvalues --  -10.64201 -10.63271 -10.61652 -10.59649  -0.93601
 Alpha  occ. eigenvalues --   -0.85784  -0.74976  -0.64840  -0.53821  -0.50861
 Alpha  occ. eigenvalues --   -0.49097  -0.44738  -0.43014  -0.41336  -0.37264
 Alpha  occ. eigenvalues --   -0.35659  -0.33394
 Alpha virt. eigenvalues --    0.04737   0.05339   0.06902   0.07567   0.08941
 Alpha virt. eigenvalues --    0.11041   0.11619   0.12787   0.14054   0.15072
 Alpha virt. eigenvalues --    0.16224   0.17361   0.17879   0.19064   0.20002

 Mulliken charges:
               1
     1  C   -0.251549
     2  C   -0.084613
     3  H    0.044397
     4  H    0.037016
     5  H    0.157082
     6  C   -0.021231
     7  H    0.059502
     8  H    0.048793
     9  C   -0.248522
    10  H   -0.011708
    11  H    0.016169
    12  H    0.030775
    13  H    0.042958
    14  H    0.180931
 Sum of Mulliken charges =   0.00000

 Dipole moment (field-independent basis, Debye):
    X=              0.5150    Y=              0.4274    Z=             -0.1795  Tot=              0.6929
 Quadrupole moment (field-independent basis, Debye-Ang):
   XX=            -30.9772   YY=            -30.1998   ZZ=            -27.7133
   XY=              0.3999   XZ=              0.5522   YZ=              0.0938

 Normal termination of Gaussian 09 at Wed Aug 26 09:51:36 2020.
