 Gaussian 09, Revision D.01,
 Gaussian 09:  ES64L-G09RevD.01 24-Apr-2013

 --------------------
 #p B2PLYPD3/Def2QZVP
 --------------------

 ----------
 butane_opt
 ----------
 Symbolic Z-matrix:
 Charge =  0 Multiplicity = 1

                         Standard orientation:
 ---------------------------------------------------------------------
 Center     Atomic      Atomic             Coordinates (Angstroms)
 Number     Number       Type             X           Y           Z
 ---------------------------------------------------------------------
      1          6           0        2.006481   -0.165749   -0.168664
      2          6           0        0.588540    0.570101    0.244670
      3          1           0        2.722131    0.559770   -0.462820
      4          1           0        1.680813   -0.839277   -0.963812
      5          1           0        2.641512   -0.765039    0.738403
      6          6           0       -0.614263   -0.484982    0.169093
      7          1           0        0.523246    1.158193   -0.662744
      8          1           0        0.241806    1.138435    1.011931
      9          6           0       -1.980352    0.091482   -0.150304
     10          1           0       -0.635094   -1.212925    1.021454
     11          1           0       -0.336229   -0.984999   -0.458890
     12          1           0       -2.164400    0.833369    0.769407
     13          1           0       -2.982266   -0.846673   -0.426544
     14          1           0       -1.693961    0.894040   -1.135154
 ---------------------------------------------------------------------

 SCF Done:  E(RB2PLYPD3) =  -157.943302097     A.U. after   11 cycles
 E2(B2PLYPD3) =    -0.2516087654D+00 E(B2PLYPD3) =    -0.15819491086249D+03

 The electronic state is 1-A.
 Alpha  occ. eigenvalues --  -10.66064 -10.63267 -10.61257 -10.58099  -0.91109
 Alpha  occ. eigenvalues --   -0.81588  -0.71662  -0.68684  -0.54166  -0.49402
 Alpha  occ. eigenvalues --   -0.46410  -0.45551  -0.43010  -0.40783  -0.38097
 Alpha  occ. eigenvalues --   -0.37137  -0.35657
 Alpha virt. eigenvalues --    0.04491   0.05935   0.08062   0.09023   0.09999
 Alpha virt. eigenvalues --    0.11134   0.12225   0.12565   0.14614   0.15169
 Alpha virt. eigenvalues --    0.15592   0.16071   0.17909   0.19462   0.20771

 Mulliken charges:
               1
     1  C   -0.157654
     2  C   -0.083982
     3  H    0.064361
     4  H    0.076097
     5  H    0.026343
     6  C   -0.136598
     7  H    0.036040
     8  H    0.062111
     9  C   -0.185622
    10  H    0.016749
    11  H    0.154506
    12  H    0.045982
    13  H    0.052049
    14  H    0.029618
 Sum of Mulliken charges =   0.00000

 Dipole moment (field-independent basis, Debye):
    X=              0.4212    Y=             -0.0608    Z=             -0.2061  Tot=              0.4728
 Quadrupole moment (field-independent basis, Debye-Ang):
   XX=            -30.5497   YY=            -29.1187   ZZ=            -29.1088
   XY=              1.0299   XZ=             -0.8776   YZ=              0.3673

 Normal termination of Gaussian 09 at Wed Aug 26 23:49:16 2020.
