 Gaussian 09, Revision D.01,
 Gaussian 09:  ES64L-G09RevD.01 24-Apr-2013

 --------------------
 #p B2PLYPD3/Def2QZVP
 --------------------

 ----------
 butane_opt
 ----------
 Symbolic Z-matrix:
 Charge =  0 Multiplicity = 1

                         Standard orientation:
 ---------------------------------------------------------------------
 Center     Atomic      Atomic             Coordinates (Angstroms)
 Number     Number       Type             X           Y           Z
 ---------------------------------------------------------------------
      1          6           0       -1.961597    0.106764   -0.160511
      2          6           0       -0.605123   -0.457666    0.335260
      3          1           0       -2.984681   -1.070068   -0.648970
      4          1           0       -1.556893    0.463777   -1.006478
      5          1           0       -2.576793    1.067662    0.543110
      6          6           0        0.584760    0.522344   -0.028690
      7          1           0       -0.374261   -0.893766   -0.291933
      8          1           0       -0.645097   -1.148921    1.492384
      9          6           0        1.988811   -0.150106   -0.109083
     10          1           0        0.409488    1.755306    1.004790
     11          1           0        0.372692    0.892230   -0.884625
     12          1           0        2.514454   -0.571840    0.783057
     13          1           0        2.778519    0.530818   -0.157008
     14          1           0        2.021464   -1.153217   -1.056183
 ---------------------------------------------------------------------

 SCF Done:  E(RB2PLYPD3) =  -157.721422504     A.U. after   11 cycles
 E2(B2PLYPD3) =    -0.2577808025D+00 E(B2PLYPD3) =    -0.15797920330675D+03

 The electronic state is 1-A.
 Alpha  occ. eigenvalues --  -10.66721 -10.66402 -10.64492 -10.61772  -0.94470
 Alpha  occ. eigenvalues --   -0.83670  -0.73199  -0.68791  -0.53196  -0.49940
 Alpha  occ. eigenvalues --   -0.47946  -0.44932  -0.42321  -0.40259  -0.39001
 Alpha  occ. eigenvalues --   -0.35457  -0.32787
 Alpha virt. eigenvalues --    0.02104   0.03936   0.05007   0.07459   0.08428
 Alpha virt. eigenvalues --    0.09549   0.11244   0.12684   0.13725   0.14533
 Alpha virt. eigenvalues --    0.15175   0.15594   0.17887   0.18799   0.19072

 Mulliken charges:
               1
     1  C   -0.176494
     2  C   -0.356628
     3  H   -0.001816
     4  H    0.093790
     5  H    0.057709
     6  C   -0.097706
     7  H    0.361478
     8  H    0.040935
     9  C   -0.131147
    10  H   -0.042771
    11  H    0.121034
    12  H    0.041407
    13  H    0.067474
    14  H    0.022735
 Sum of Mulliken charges =   0.00000

 Dipole moment (field-independent basis, Debye):
    X=              0.9606    Y=             -0.1552    Z=             -0.5318  Tot=              1.1089
 Quadrupole moment (field-independent basis, Debye-Ang):
   XX=            -30.6779   YY=            -31.0443   ZZ=            -29.7684
   XY=             -1.0176   XZ=             -0.0190   YZ=             -0.1449

 Normal termination of Gaussian 09 at Wed Aug 26 12:59:30 2020.
