 Gaussian 09, Revision D.01,
 Gaussian 09:  ES64L-G09RevD.01 24-Apr-2013

 --------------------
 #p B2PLYPD3/Def2QZVP
 --------------------

 ----------
 butane_opt
 ----------
 Symbolic Z-matrix:
 Charge =  0 Multiplicity = 1

                         Standard orientation:
 ---------------------------------------------------------------------
 Center     Atomic      Atomic             Coordinates (Angstroms)
 Number     Number       Type             X           Y           Z
 ---------------------------------------------------------------------
      1          6           0        1.900660   -0.057434    0.092325
      2          6           0        0.547612    0.391623   -0.000760
      3          1           0        2.698337    0.733857   -0.466810
      4          1           0        1.797648   -0.625962   -0.755877
      5          1           0        2.103235   -0.683225    0.985168
      6          6           0       -0.475524   -0.551517    0.022821
      7          1           0        0.336422    1.383018   -1.147475
      8          1           0        0.417400    1.022714    0.751746
      9          6           0       -1.908318    0.140093    0.000237
     10          1           0       -0.595088   -1.170252    0.837214
     11          1           0       -0.439622   -1.163418   -0.867676
     12          1           0       -2.401824    1.121366    1.198800
     13          1           0       -2.529065   -0.396867   -0.612981
     14          1           0       -1.774020    0.242180   -0.609853
 ---------------------------------------------------------------------

 SCF Done:  E(RB2PLYPD3) =  -157.456401693     A.U. after   12 cycles
 E2(B2PLYPD3) =    -0.2558101282D+00 E(B2PLYPD3) =    -0.15771221182161D+03

 The electronic state is 1-A.
 Alpha  occ. eigenvalues --  -10.61842 -10.60763 -10.60534 -10.59739  -0.98259
 Alpha  occ. eigenvalues --   -0.91306  -0.77945  -0.67095  -0.56643  -0.50990
 Alpha  occ. eigenvalues --   -0.49759  -0.47831  -0.41550  -0.40232  -0.37552
 Alpha  occ. eigenvalues --   -0.34646  -0.33825
 Alpha virt. eigenvalues --    0.02659   0.04146   0.06503   0.07008   0.10252
 Alpha virt. eigenvalues --    0.10609   0.11453   0.12930   0.13902   0.15303
 Alpha virt. eigenvalues --    0.15414   0.17691   0.18252   0.19456   0.20536

 Mulliken charges:
               1
     1  C   -0.183785
     2  C   -0.016447
     3  H    0.058515
     4  H    0.049316
     5  H    0.068214
     6  C    0.006529
     7  H   -0.051710
     8  H    0.061736
     9  C   -0.838413
    10  H    0.043204
    11  H    0.021248
    12  H    0.064066
    13  H    0.040405
    14  H    0.677122
 Sum of Mulliken charges =   0.00000

 Dipole moment (field-independent basis, Debye):
    X=              0.1044    Y=             -0.5252    Z=             -0.0336  Tot=              0.5366
 Quadrupole moment (field-independent basis, Debye-Ang):
   XX=            -30.7888   YY=            -30.2068   ZZ=            -27.2423
   XY=             -0.2535   XZ=              0.7924   YZ=              0.8915

 Normal termination of Gaussian 09 at Wed Aug 26 12:17:28 2020.
