 Gaussian 09, Revision D.01,
 Gaussian 09:  ES64L-G09RevD.01 24-Apr-2013

 --------------------
 #p B2PLYPD3/Def2QZVP
 --------------------

 ----------
 butane_opt
 ----------
 Symbolic Z-matrix:
 Charge =  0 Multiplicity = 1

                         Standard orientation:
 ---------------------------------------------------------------------
 Center     Atomic      Atomic             Coordinates (Angstroms)
 Number     Number       Type             X           Y           Z
 ---------------------------------------------------------------------
      1          6           0       -1.945080    0.158659   -0.099161
      2          6           0       -0.497069   -0.499876    0.212842
      3          1           0       -2.758819   -0.896888   -0.347875
      4          1           0       -1.798602    0.583740   -0.978759
      5          1           0       -2.499023    0.880715    0.756791
      6          6           0        0.602010    0.439917   -0.014149
      7          1           0       -0.490078   -0.932938   -0.575935
      8          1           0       -0.427962   -0.916457    1.074210
      9          6           0        1.860840   -0.115471   -0.068299
     10          1           0        0.497853    1.393055    0.909710
     11          1           0        0.615648    0.871811   -0.817856
     12          1           0        2.085537   -0.725565    0.869132
     13          1           0        2.726791    0.713996   -0.062229
     14          1           0        1.924449   -0.870843   -1.014590
 ---------------------------------------------------------------------

 SCF Done:  E(RB2PLYPD3) =  -157.927630731     A.U. after   11 cycles
 E2(B2PLYPD3) =    -0.2494379515D+00 E(B2PLYPD3) =    -0.15817706868267D+03

 The electronic state is 1-A.
 Alpha  occ. eigenvalues --  -10.63499 -10.62110 -10.59276 -10.57630  -0.95737
 Alpha  occ. eigenvalues --   -0.84677  -0.72268  -0.67541  -0.58519  -0.51613
 Alpha  occ. eigenvalues --   -0.48922  -0.46964  -0.44590  -0.40046  -0.38351
 Alpha  occ. eigenvalues --   -0.37136  -0.34502
 Alpha virt. eigenvalues --    0.05254   0.06127   0.07347   0.08679   0.10147
 Alpha virt. eigenvalues --    0.10767   0.12562   0.12914   0.14562   0.15096
 Alpha virt. eigenvalues --    0.15466   0.15941   0.19116   0.19841   0.21365

 Mulliken charges:
               1
     1  C   -0.188568
     2  C   -0.123924
     3  H    0.009892
     4  H    0.086269
     5  H    0.048931
     6  C   -0.063747
     7  H    0.125628
     8  H    0.066696
     9  C   -0.145821
    10  H   -0.020630
    11  H    0.092695
    12  H    0.031230
    13  H    0.049889
    14  H    0.031459
 Sum of Mulliken charges =   0.00000

 Dipole moment (field-independent basis, Debye):
    X=              0.2804    Y=             -0.1016    Z=             -0.3576  Tot=              0.4656
 Quadrupole moment (field-independent basis, Debye-Ang):
   XX=            -31.4816   YY=            -29.7548   ZZ=            -27.9216
   XY=              0.2075   XZ=             -0.1911   YZ=             -0.1891

 Normal termination of Gaussian 09 at Wed Aug 26 12:33:12 2020.
