 Gaussian 09, Revision D.01,
 Gaussian 09:  ES64L-G09RevD.01 24-Apr-2013

 --------------------
 #p B2PLYPD3/Def2QZVP
 --------------------

 ----------
 butane_opt
 ----------
 Symbolic Z-matrix:
 Charge =  0 Multiplicity = 1

                         Standard orientation:
 ---------------------------------------------------------------------
 Center     Atomic      Atomic             Coordinates (Angstroms)
 Number     Number       Type             X           Y           Z
 ---------------------------------------------------------------------
      1          6           0        2.012691   -0.191819   -0.148233
      2          6           0        0.525687    0.608897    0.157717
      3          1           0        2.842921    0.452229   -0.472699
      4          1           0        1.995338   -0.670131   -0.896748
      5          1           0        2.440763   -0.913235    0.927477
      6          6           0       -0.635123   -0.435622    0.086291
      7          1           0        0.308244    0.918984   -0.418683
      8          1           0        0.473914    1.539256    1.150482
      9          6           0       -2.014610    0.048605   -0.149402
     10          1           0       -0.362683   -1.169687    1.163312
     11          1           0       -0.412148   -0.847660   -0.704998
     12          1           0       -2.080140    0.434078    0.560127
     13          1           0       -2.864682   -0.711247    0.071805
     14          1           0       -1.673392    0.787043   -1.058308
 ---------------------------------------------------------------------

 SCF Done:  E(RB2PLYPD3) =  -157.562262289     A.U. after   11 cycles
 E2(B2PLYPD3) =    -0.2515142539D+00 E(B2PLYPD3) =    -0.15781377654308D+03

 The electronic state is 1-A.
 Alpha  occ. eigenvalues --  -10.62095 -10.61062 -10.60780 -10.59100  -0.95141
 Alpha  occ. eigenvalues --   -0.85832  -0.78271  -0.70036  -0.55461  -0.49952
 Alpha  occ. eigenvalues --   -0.49045  -0.46346  -0.43273  -0.40247  -0.39315
 Alpha  occ. eigenvalues --   -0.37692  -0.34476
 Alpha virt. eigenvalues --    0.04776   0.06083   0.07863   0.08259   0.10284
 Alpha virt. eigenvalues --    0.11347   0.11981   0.13335   0.14254   0.14874
 Alpha virt. eigenvalues --    0.15229   0.16447   0.18292   0.19166   0.21044

 Mulliken charges:
               1
     1  C   -0.183016
     2  C   -0.633238
     3  H    0.039857
     4  H    0.120761
     5  H    0.032856
     6  C   -0.093505
     7  H    0.555121
     8  H    0.030493
     9  C   -0.331163
    10  H   -0.005636
    11  H    0.117380
    12  H    0.244530
    13  H    0.059273
    14  H    0.046286
 Sum of Mulliken charges =   0.00000

 Dipole moment (field-independent basis, Debye):
    X=             -0.1099    Y=              0.1874    Z=             -0.6118  Tot=              0.6493
 Quadrupole moment (field-independent basis, Debye-Ang):
   XX=            -28.9627   YY=            -30.0468   ZZ=            -27.9423
   XY=              0.1463   XZ=             -1.9264   YZ=             -0.1428

 Normal termination of Gaussian 09 at Wed Aug 26 11:24:06 2020.
