 Gaussian 09, Revision D.01,
 Gaussian 09:  ES64L-G09RevD.01 24-Apr-2013

 --------------------
 #p B2PLYPD3/Def2QZVP
 --------------------

 ----------
 butane_opt
 ----------
 Symbolic Z-matrix:
 Charge =  0 Multiplicity = 1

                         Standard orientation:
 ---------------------------------------------------------------------
 Center     Atomic      Atomic             Coordinates (Angstroms)
 Number     Number       Type             X           Y           Z
 ---------------------------------------------------------------------
      1          6           0        1.985240    0.169580   -0.112852
      2          6           0        0.607454   -0.557003    0.190010
      3          1           0        2.665905   -0.445702   -0.320867
      4          1           0        2.332504    0.838426    0.712534
      5          1           0        2.118772    0.701515   -0.997657
      6          6           0       -0.613129    0.411434    0.044407
      7          1           0        0.502279   -1.181645    1.124365
      8          1           0        0.374151   -1.004816   -0.505460
      9          6           0       -1.976040   -0.088429   -0.116701
     10          1           0       -0.343495    0.800536   -0.724561
     11          1           0       -0.903511    1.350682    1.192207
     12          1           0       -1.994430   -0.716095   -1.085815
     13          1           0       -2.912562    0.628184   -0.092834
     14          1           0       -1.860761   -0.584580    0.668903
 ---------------------------------------------------------------------

 SCF Done:  E(RB2PLYPD3) =  -157.887940365     A.U. after   11 cycles
 E2(B2PLYPD3) =    -0.2485255144D+00 E(B2PLYPD3) =    -0.15813646587967D+03

 The electronic state is 1-A.
 Alpha  occ. eigenvalues --  -10.61712 -10.60157 -10.59345 -10.58881  -0.94158
 Alpha  occ. eigenvalues --   -0.85753  -0.77045  -0.68068  -0.55676  -0.52193
 Alpha  occ. eigenvalues --   -0.48763  -0.47294  -0.44301  -0.43126  -0.40372
 Alpha  occ. eigenvalues --   -0.37980  -0.32344
 Alpha virt. eigenvalues --    0.05042   0.06581   0.07435   0.08765   0.10743
 Alpha virt. eigenvalues --    0.12103   0.12584   0.13216   0.14683   0.15007
 Alpha virt. eigenvalues --    0.16128   0.16947   0.19089   0.19857   0.21648

 Mulliken charges:
               1
     1  C   -0.117675
     2  C   -0.210309
     3  H    0.056199
     4  H    0.050924
     5  H    0.020617
     6  C   -0.119127
     7  H    0.042504
     8  H    0.196142
     9  C   -0.170172
    10  H    0.125474
    11  H   -0.049638
    12  H    0.016183
    13  H    0.064261
    14  H    0.094618
 Sum of Mulliken charges =   0.00000

 Dipole moment (field-independent basis, Debye):
    X=              0.4150    Y=             -0.5492    Z=             -0.7027  Tot=              0.9836
 Quadrupole moment (field-independent basis, Debye-Ang):
   XX=            -28.1558   YY=            -30.2047   ZZ=            -28.1114
   XY=             -0.4149   XZ=             -0.6219   YZ=             -0.4999

 Normal termination of Gaussian 09 at Wed Aug 26 10:10:31 2020.
