 Gaussian 09, Revision D.01,
 Gaussian 09:  ES64L-G09RevD.01 24-Apr-2013

 --------------------
 #p B2PLYPD3/Def2QZVP
 --------------------

 ----------
 butane_opt
 ----------
 Symbolic Z-matrix:
 Charge =  0 Multiplicity = 1

                         Standard orientation:
 ---------------------------------------------------------------------
 Center     Atomic      Atomic             Coordinates (Angstroms)
 Number     Number       Type             X           Y           Z
 ---------------------------------------------------------------------
      1          6           0        1.985918    0.132305   -0.218828
      2          6           0        0.514713   -0.594513    0.211221
      3          1           0        2.695925   -0.492359   -0.332630
      4          1           0        2.387262    1.033920    0.762401
      5          1           0        1.742554    0.384815   -0.940976
      6          6           0       -0.612940    0.509058    0.155926
      7          1           0        0.319987   -1.408097    1.212116
      8          1           0        0.220309   -0.816339   -0.334456
      9          6           0       -1.839192   -0.089705   -0.182884
     10          1           0       -0.371362    0.948925   -0.635198
     11          1           0       -0.585449    1.365267    1.228118
     12          1           0       -1.794248   -0.715426   -1.010060
     13          1           0       -2.677991    0.596230   -0.352076
     14          1           0       -2.227986   -0.639806    0.610149
 ---------------------------------------------------------------------

 SCF Done:  E(RB2PLYPD3) =  -157.557769124     A.U. after   11 cycles
 E2(B2PLYPD3) =    -0.2494408445D+00 E(B2PLYPD3) =    -0.15780720996838D+03

 The electronic state is 1-A.
 Alpha  occ. eigenvalues --  -10.60891 -10.59838 -10.59720 -10.58237  -0.96443
 Alpha  occ. eigenvalues --   -0.86213  -0.78940  -0.69158  -0.55425  -0.52701
 Alpha  occ. eigenvalues --   -0.50089  -0.48302  -0.43795  -0.41282  -0.38830
 Alpha  occ. eigenvalues --   -0.37348  -0.34929
 Alpha virt. eigenvalues --    0.05286   0.06521   0.07721   0.08438   0.10728
 Alpha virt. eigenvalues --    0.11600   0.12504   0.13050   0.15125   0.15741
 Alpha virt. eigenvalues --    0.16239   0.16905   0.18628   0.19537   0.21282

 Mulliken charges:
               1
     1  C   -0.321908
     2  C   -0.754721
     3  H    0.068120
     4  H    0.038690
     5  H    0.246454
     6  C   -0.091842
     7  H    0.050755
     8  H    0.653555
     9  C   -0.117052
    10  H    0.105461
    11  H    0.005085
    12  H    0.041858
    13  H    0.035208
    14  H    0.040337
 Sum of Mulliken charges =   0.00000

 Dipole moment (field-independent basis, Debye):
    X=             -0.2011    Y=             -0.2685    Z=             -0.8158  Tot=              0.8820
 Quadrupole moment (field-independent basis, Debye-Ang):
   XX=            -28.3366   YY=            -29.6270   ZZ=            -27.6443
   XY=             -0.0919   XZ=             -0.3434   YZ=              0.0952

 Normal termination of Gaussian 09 at Wed Aug 26 15:15:41 2020.
