 Gaussian 09, Revision D.01,
 Gaussian 09:  ES64L-G09RevD.01 24-Apr-2013

 --------------------
 #p B2PLYPD3/Def2QZVP
 --------------------

 ----------
 butane_opt
 ----------
 Symbolic Z-matrix:
 Charge =  0 Multiplicity = 1

                         Standard orientation:
 ---------------------------------------------------------------------
 Center     Atomic      Atomic             Coordinates (Angstroms)
 Number     Number       Type             X           Y           Z
 ---------------------------------------------------------------------
      1          6           0        1.867937   -0.176780   -0.167416
      2          6           0        0.467034    0.631184    0.082458
      3          1           0        2.723956    0.385416   -0.636940
      4          1           0        1.998272   -0.914237   -0.925927
      5          1           0        2.459536   -0.616483    0.907743
      6          6           0       -0.570043   -0.437270    0.265533
      7          1           0        0.082901    0.881037   -0.558164
      8          1           0        0.496147    1.612861    1.105474
      9          6           0       -1.892298    0.059890   -0.162898
     10          1           0       -0.292545   -1.158410    1.421031
     11          1           0       -0.349334   -0.915755   -0.348183
     12          1           0       -2.197591    0.618643    0.502392
     13          1           0       -2.691190   -0.813727   -0.527142
     14          1           0       -1.465933    0.458509   -1.046346
 ---------------------------------------------------------------------

 SCF Done:  E(RB2PLYPD3) =  -157.737642363     A.U. after   11 cycles
 E2(B2PLYPD3) =    -0.2516916392D+00 E(B2PLYPD3) =    -0.15798933400263D+03

 The electronic state is 1-A.
 Alpha  occ. eigenvalues --  -10.63308 -10.62037 -10.59747 -10.59570  -0.97646
 Alpha  occ. eigenvalues --   -0.83335  -0.75292  -0.71031  -0.57225  -0.50806
 Alpha  occ. eigenvalues --   -0.48421  -0.46101  -0.42687  -0.40338  -0.38850
 Alpha  occ. eigenvalues --   -0.37513  -0.35525
 Alpha virt. eigenvalues --    0.04682   0.06343   0.07114   0.08175   0.11109
 Alpha virt. eigenvalues --    0.11647   0.12088   0.12696   0.14888   0.14964
 Alpha virt. eigenvalues --    0.16281   0.16861   0.18315   0.18811   0.20652

 Mulliken charges:
               1
     1  C   -0.124380
     2  C   -0.322968
     3  H    0.026017
     4  H    0.044628
     5  H    0.034942
     6  C   -0.312438
     7  H    0.333073
     8  H    0.017831
     9  C   -0.169430
    10  H   -0.000377
    11  H    0.287296
    12  H    0.092801
    13  H    0.037889
    14  H    0.055115
 Sum of Mulliken charges =   0.00000

 Dipole moment (field-independent basis, Debye):
    X=             -0.0522    Y=              0.0047    Z=             -0.8605  Tot=              0.8621
 Quadrupole moment (field-independent basis, Debye-Ang):
   XX=            -29.1963   YY=            -30.1956   ZZ=            -28.3908
   XY=             -0.7220   XZ=             -0.4835   YZ=              1.0739

 Normal termination of Gaussian 09 at Wed Aug 26 19:06:00 2020.
