 Gaussian 09, Revision D.01,
 Gaussian 09:  ES64L-G09RevD.01 24-Apr-2013

 --------------------
 #p B2PLYPD3/Def2QZVP
 --------------------

 ----------
 butane_opt
 ----------
 Symbolic Z-matrix:
 Charge =  0 Multiplicity = 1

                         Standard orientation:
 ---------------------------------------------------------------------
 Center     Atomic      Atomic             Coordinates (Angstroms)
 Number     Number       Type             X           Y           Z
 ---------------------------------------------------------------------
      1          6           0        2.047541   -0.151097   -0.212456
      2          6           0        0.545781    0.626558    0.227983
      3          1           0        2.752562    0.445830   -0.084022
      4          1           0        2.060602   -0.734216   -1.035087
      5          1           0        2.443380   -0.644219    0.626396
      6          6           0       -0.605107   -0.541484    0.254028
      7          1           0        0.059304    1.072503   -0.706016
      8          1           0        0.406046    1.267120    1.079560
      9          6           0       -1.962162    0.083278   -0.196804
     10          1           0       -0.713196   -1.200340    1.145815
     11          1           0       -0.411085   -1.116693   -0.498448
     12          1           0       -2.436588    0.588335    0.708515
     13          1           0       -2.677172   -0.556291   -0.482421
     14          1           0       -1.640168    0.774437   -1.190796
 ---------------------------------------------------------------------

 SCF Done:  E(RB2PLYPD3) =  -157.999446356     A.U. after   11 cycles
 E2(B2PLYPD3) =    -0.2491937906D+00 E(B2PLYPD3) =    -0.15824864014693D+03

 The electronic state is 1-A.
 Alpha  occ. eigenvalues --  -10.62973 -10.60885 -10.59605 -10.58417  -0.89027
 Alpha  occ. eigenvalues --   -0.83246  -0.74381  -0.67507  -0.54431  -0.51162
 Alpha  occ. eigenvalues --   -0.49198  -0.44131  -0.44059  -0.40028  -0.38800
 Alpha  occ. eigenvalues --   -0.36873  -0.35817
 Alpha virt. eigenvalues --    0.05702   0.06760   0.08722   0.08894   0.10541
 Alpha virt. eigenvalues --    0.12040   0.12627   0.14358   0.15170   0.15725
 Alpha virt. eigenvalues --    0.15948   0.16813   0.18607   0.18970   0.20965

 Mulliken charges:
               1
     1  C   -0.136296
     2  C   -0.128083
     3  H    0.058035
     4  H    0.070203
     5  H    0.025696
     6  C   -0.071514
     7  H    0.043948
     8  H    0.068582
     9  C   -0.144802
    10  H    0.025786
    11  H    0.074690
    12  H    0.036146
    13  H    0.053485
    14  H    0.024124
 Sum of Mulliken charges =   0.00000

 Dipole moment (field-independent basis, Debye):
    X=              0.2217    Y=             -0.3553    Z=              0.0815  Tot=              0.4266
 Quadrupole moment (field-independent basis, Debye-Ang):
   XX=            -28.0226   YY=            -29.5532   ZZ=            -27.8140
   XY=              0.4157   XZ=              0.0584   YZ=              0.9400

 Normal termination of Gaussian 09 at Wed Aug 26 13:07:55 2020.
