 Gaussian 09, Revision D.01,
 Gaussian 09:  ES64L-G09RevD.01 24-Apr-2013

 --------------------
 #p B2PLYPD3/Def2QZVP
 --------------------

 ----------
 butane_opt
 ----------
 Symbolic Z-matrix:
 Charge =  0 Multiplicity = 1

                         Standard orientation:
 ---------------------------------------------------------------------
 Center     Atomic      Atomic             Coordinates (Angstroms)
 Number     Number       Type             X           Y           Z
 ---------------------------------------------------------------------
      1          6           0        1.937278   -0.039487    0.063866
      2          6           0        0.619147    0.477154   -0.154593
      3          1           0        2.694682    0.725446    0.061445
      4          1           0        2.108901   -0.373031   -0.704809
      5          1           0        2.197869   -1.000199    1.392723
      6          6           0       -0.531475   -0.547801   -0.029739
      7          1           0        0.768771    1.047358   -1.103237
      8          1           0        0.344808    1.113483    0.536726
      9          6           0       -2.087803    0.080818    0.074946
     10          1           0       -0.191327   -1.254773    1.051071
     11          1           0       -0.330737   -1.314680   -1.033178
     12          1           0       -2.590510    1.429330    1.279375
     13          1           0       -2.728786   -0.537220   -0.580688
     14          1           0       -1.896552    0.340181   -0.626312
 ---------------------------------------------------------------------

 SCF Done:  E(RB2PLYPD3) =  -157.583626387     A.U. after   12 cycles
 E2(B2PLYPD3) =    -0.2606518115D+00 E(B2PLYPD3) =    -0.15784427819857D+03

 The electronic state is 1-A.
 Alpha  occ. eigenvalues --  -10.67371 -10.63415 -10.61465 -10.60365  -0.94168
 Alpha  occ. eigenvalues --   -0.88845  -0.76521  -0.65723  -0.54335  -0.50221
 Alpha  occ. eigenvalues --   -0.47982  -0.45023  -0.42392  -0.38390  -0.36089
 Alpha  occ. eigenvalues --   -0.35161  -0.34990
 Alpha virt. eigenvalues --   -0.03022   0.03444   0.05482   0.07014   0.09017
 Alpha virt. eigenvalues --    0.09797   0.11059   0.12039   0.13743   0.15244
 Alpha virt. eigenvalues --    0.15632   0.16322   0.16807   0.19024   0.20417

 Mulliken charges:
               1
     1  C   -0.223608
     2  C   -0.023768
     3  H    0.054300
     4  H    0.148764
     5  H   -0.012412
     6  C   -0.081526
     7  H    0.016177
     8  H    0.070312
     9  C   -0.524795
    10  H    0.031193
    11  H    0.015285
    12  H    0.048021
    13  H    0.066361
    14  H    0.415697
 Sum of Mulliken charges =   0.00000

 Dipole moment (field-independent basis, Debye):
    X=              0.2599    Y=              0.8665    Z=             -1.4089  Tot=              1.6743
 Quadrupole moment (field-independent basis, Debye-Ang):
   XX=            -31.3228   YY=            -30.3360   ZZ=            -28.4487
   XY=              0.3810   XZ=             -0.1089   YZ=              1.1426

 Normal termination of Gaussian 09 at Wed Aug 26 18:30:58 2020.
