 Gaussian 09, Revision D.01,
 Gaussian 09:  ES64L-G09RevD.01 24-Apr-2013

 --------------------
 #p B2PLYPD3/Def2QZVP
 --------------------

 ----------
 butane_opt
 ----------
 Symbolic Z-matrix:
 Charge =  0 Multiplicity = 1

                         Standard orientation:
 ---------------------------------------------------------------------
 Center     Atomic      Atomic             Coordinates (Angstroms)
 Number     Number       Type             X           Y           Z
 ---------------------------------------------------------------------
      1          6           0        1.951128   -0.198927   -0.156198
      2          6           0        0.484118    0.636064    0.058309
      3          1           0        2.686863    0.444924   -0.642282
      4          1           0        1.823805   -0.931015   -0.849946
      5          1           0        2.360000   -0.837042    0.934940
      6          6           0       -0.580224   -0.364568    0.296158
      7          1           0        0.112241    0.757723   -0.543123
      8          1           0        0.895544    1.570362    0.869299
      9          6           0       -1.838239    0.037521   -0.169948
     10          1           0       -0.665190   -0.928629    1.410373
     11          1           0       -0.423224   -1.162310   -0.424669
     12          1           0       -2.275626    0.831954    0.702675
     13          1           0       -2.632367   -0.908276   -0.459965
     14          1           0       -1.982748    0.501768   -1.167228
 ---------------------------------------------------------------------

 SCF Done:  E(RB2PLYPD3) =  -157.769318917     A.U. after   11 cycles
 E2(B2PLYPD3) =    -0.2525598535D+00 E(B2PLYPD3) =    -0.15802187877044D+03

 The electronic state is 1-A.
 Alpha  occ. eigenvalues --  -10.63158 -10.62373 -10.61877 -10.60326  -0.96855
 Alpha  occ. eigenvalues --   -0.82670  -0.75279  -0.66101  -0.55084  -0.51828
 Alpha  occ. eigenvalues --   -0.48630  -0.44509  -0.42712  -0.40546  -0.39091
 Alpha  occ. eigenvalues --   -0.36410  -0.33824
 Alpha virt. eigenvalues --    0.04865   0.05871   0.07440   0.08078   0.10357
 Alpha virt. eigenvalues --    0.11091   0.11948   0.12395   0.13139   0.15651
 Alpha virt. eigenvalues --    0.15955   0.16990   0.18574   0.19205   0.20694

 Mulliken charges:
               1
     1  C   -0.151826
     2  C   -0.559079
     3  H    0.053852
     4  H    0.060546
     5  H    0.038695
     6  C   -0.013392
     7  H    0.489864
     8  H    0.058796
     9  C   -0.171844
    10  H    0.032196
    11  H    0.048221
    12  H    0.033803
    13  H    0.031526
    14  H    0.048642
 Sum of Mulliken charges =   0.00000

 Dipole moment (field-independent basis, Debye):
    X=              0.0295    Y=             -0.1568    Z=             -0.6630  Tot=              0.6820
 Quadrupole moment (field-independent basis, Debye-Ang):
   XX=            -30.9464   YY=            -29.5758   ZZ=            -28.2359
   XY=              0.5959   XZ=              0.7079   YZ=              0.4400

 Normal termination of Gaussian 09 at Wed Aug 26 10:58:18 2020.
