 Gaussian 09, Revision D.01,
 Gaussian 09:  ES64L-G09RevD.01 24-Apr-2013

 --------------------
 #p B2PLYPD3/Def2QZVP
 --------------------

 ----------
 butane_opt
 ----------
 Symbolic Z-matrix:
 Charge =  0 Multiplicity = 1

                         Standard orientation:
 ---------------------------------------------------------------------
 Center     Atomic      Atomic             Coordinates (Angstroms)
 Number     Number       Type             X           Y           Z
 ---------------------------------------------------------------------
      1          6           0       -1.937548    0.064077   -0.092476
      2          6           0       -0.667567   -0.480319    0.159508
      3          1           0       -2.745931   -0.750365   -0.298809
      4          1           0       -1.702898    0.813816   -1.100577
      5          1           0       -2.349597    0.582377    0.533911
      6          6           0        0.508714    0.543379    0.125493
      7          1           0       -0.314249   -1.187853   -0.714309
      8          1           0       -0.538820   -0.902912    0.910794
      9          6           0        2.109799   -0.166078   -0.067023
     10          1           0        0.368534    1.539259    1.124341
     11          1           0        0.215048    1.071809   -0.553614
     12          1           0        2.411736   -0.844053    0.939752
     13          1           0        2.796350    0.485815   -0.854683
     14          1           0        1.779439   -0.574248   -0.739815
 ---------------------------------------------------------------------

 SCF Done:  E(RB2PLYPD3) =  -157.809752463     A.U. after   11 cycles
 E2(B2PLYPD3) =    -0.2516811066D+00 E(B2PLYPD3) =    -0.15806143356940D+03

 The electronic state is 1-A.
 Alpha  occ. eigenvalues --  -10.62709 -10.62560 -10.60344 -10.58882  -0.93400
 Alpha  occ. eigenvalues --   -0.84225  -0.75742  -0.69934  -0.56409  -0.49461
 Alpha  occ. eigenvalues --   -0.48782  -0.47950  -0.42276  -0.40876  -0.39086
 Alpha  occ. eigenvalues --   -0.36449  -0.34185
 Alpha virt. eigenvalues --    0.04785   0.05816   0.07259   0.08756   0.10378
 Alpha virt. eigenvalues --    0.11377   0.11898   0.12602   0.13894   0.15320
 Alpha virt. eigenvalues --    0.16516   0.16915   0.17518   0.19247   0.20350

 Mulliken charges:
               1
     1  C   -0.157487
     2  C   -0.069958
     3  H    0.041721
     4  H    0.009212
     5  H    0.084844
     6  C   -0.136792
     7  H    0.013378
     8  H    0.115281
     9  C   -0.335625
    10  H   -0.031344
    11  H    0.114792
    12  H    0.079682
    13  H    0.050351
    14  H    0.221946
 Sum of Mulliken charges =   0.00000

 Dipole moment (field-independent basis, Debye):
    X=             -0.2866    Y=             -0.6843    Z=             -0.3022  Tot=              0.8010
 Quadrupole moment (field-independent basis, Debye-Ang):
   XX=            -29.4468   YY=            -29.9570   ZZ=            -28.3152
   XY=             -0.7321   XZ=             -1.7667   YZ=             -1.2462

 Normal termination of Gaussian 09 at Wed Aug 26 20:02:26 2020.
