 Gaussian 09, Revision D.01,
 Gaussian 09:  ES64L-G09RevD.01 24-Apr-2013

 --------------------
 #p B2PLYPD3/Def2QZVP
 --------------------

 ----------
 butane_opt
 ----------
 Symbolic Z-matrix:
 Charge =  0 Multiplicity = 1

                         Standard orientation:
 ---------------------------------------------------------------------
 Center     Atomic      Atomic             Coordinates (Angstroms)
 Number     Number       Type             X           Y           Z
 ---------------------------------------------------------------------
      1          6           0       -1.901198   -0.014840    0.117860
      2          6           0       -0.628107    0.485413   -0.239195
      3          1           0       -2.702280    0.633216   -0.116703
      4          1           0       -2.279098   -0.800001    1.213472
      5          1           0       -1.876767   -0.466675   -0.508289
      6          6           0        0.492174   -0.703595   -0.049534
      7          1           0       -0.572185    0.990683    0.515740
      8          1           0       -0.630587    1.080357   -1.145026
      9          6           0        2.047899    0.163239    0.071828
     10          1           0        0.605529   -1.080056   -0.701354
     11          1           0        0.364725   -1.305560    1.074703
     12          1           0        1.787181    0.262825   -0.415957
     13          1           0        2.726086   -0.568628   -0.706215
     14          1           0        2.512793    1.672541    1.383879
 ---------------------------------------------------------------------

 SCF Done:  E(RB2PLYPD3) =  -156.841670314     A.U. after   14 cycles
 E2(B2PLYPD3) =    -0.2632415853D+00 E(B2PLYPD3) =    -0.15710491189908D+03

 The electronic state is 1-A.
 Alpha  occ. eigenvalues --  -10.65019 -10.63305 -10.59364 -10.57750  -0.96894
 Alpha  occ. eigenvalues --   -0.92237  -0.78560  -0.72453  -0.56276  -0.54072
 Alpha  occ. eigenvalues --   -0.48278  -0.45801  -0.41260  -0.38629  -0.37468
 Alpha  occ. eigenvalues --   -0.35306  -0.32179
 Alpha virt. eigenvalues --   -0.05732   0.05463   0.06215   0.07219   0.08979
 Alpha virt. eigenvalues --    0.09915   0.11637   0.12290   0.13878   0.15450
 Alpha virt. eigenvalues --    0.15733   0.16640   0.17599   0.18471   0.19949

 Mulliken charges:
               1
     1  C   -0.447070
     2  C   -0.121556
     3  H    0.048952
     4  H    0.034573
     5  H    0.331403
     6  C   -0.360417
     7  H    0.143628
     8  H    0.047559
     9  C   -0.996955
    10  H    0.324302
    11  H    0.070116
    12  H    0.828485
    13  H    0.051487
    14  H    0.045491
 Sum of Mulliken charges =   0.00000

 Dipole moment (field-independent basis, Debye):
    X=             -1.0043    Y=              0.1465    Z=             -1.0614  Tot=              1.4686
 Quadrupole moment (field-independent basis, Debye-Ang):
   XX=            -32.9042   YY=            -28.4800   ZZ=            -26.9677
   XY=             -0.2215   XZ=             -0.6423   YZ=              0.8940

 Normal termination of Gaussian 09 at Wed Aug 26 09:41:02 2020.
