 Gaussian 09, Revision D.01,
 Gaussian 09:  ES64L-G09RevD.01 24-Apr-2013

 --------------------
 #p B2PLYPD3/Def2QZVP
 --------------------

 ----------
 butane_opt
 ----------
 Symbolic Z-matrix:
 Charge =  0 Multiplicity = 1

                         Standard orientation:
 ---------------------------------------------------------------------
 Center     Atomic      Atomic             Coordinates (Angstroms)
 Number     Number       Type             X           Y           Z
 ---------------------------------------------------------------------
      1          6           0        1.911866    0.123748   -0.099088
      2          6           0        0.510856   -0.515223    0.116451
      3          1           0        2.789229   -0.848419    0.010596
      4          1           0        2.234212    0.535481    0.733174
      5          1           0        2.258195    1.113928   -1.253674
      6          6           0       -0.548500    0.494934    0.237486
      7          1           0        0.290680   -1.190848    1.026114
      8          1           0        0.337612   -1.072756   -0.782193
      9          6           0       -1.876129   -0.117912   -0.199552
     10          1           0       -0.513640    1.045837   -0.437579
     11          1           0       -0.686892    1.251797    1.301879
     12          1           0       -1.407878   -0.651860   -1.049559
     13          1           0       -2.608490    0.612847   -0.596458
     14          1           0       -2.681589   -0.709291    0.715923
 ---------------------------------------------------------------------

 SCF Done:  E(RB2PLYPD3) =  -157.884081639     A.U. after   11 cycles
 E2(B2PLYPD3) =    -0.2540826503D+00 E(B2PLYPD3) =    -0.15813816428974D+03

 The electronic state is 1-A.
 Alpha  occ. eigenvalues --  -10.65404 -10.62874 -10.62232 -10.60075  -0.94093
 Alpha  occ. eigenvalues --   -0.82762  -0.71631  -0.67497  -0.55384  -0.51166
 Alpha  occ. eigenvalues --   -0.47154  -0.44907  -0.40925  -0.38739  -0.37874
 Alpha  occ. eigenvalues --   -0.37024  -0.36251
 Alpha virt. eigenvalues --    0.03052   0.05141   0.07101   0.07425   0.10019
 Alpha virt. eigenvalues --    0.10526   0.11942   0.12683   0.13401   0.15228
 Alpha virt. eigenvalues --    0.15843   0.16179   0.17745   0.19745   0.21265

 Mulliken charges:
               1
     1  C   -0.189405
     2  C   -0.033498
     3  H    0.017141
     4  H    0.085820
     5  H    0.032767
     6  C   -0.182458
     7  H    0.055615
     8  H    0.055082
     9  C   -0.147749
    10  H    0.170741
    11  H    0.011296
    12  H    0.063685
    13  H    0.040148
    14  H    0.020814
 Sum of Mulliken charges =   0.00000

 Dipole moment (field-independent basis, Debye):
    X=             -0.0437    Y=              0.2237    Z=              0.0090  Tot=              0.2281
 Quadrupole moment (field-independent basis, Debye-Ang):
   XX=            -31.1412   YY=            -30.0430   ZZ=            -28.8635
   XY=             -0.6575   XZ=              0.6781   YZ=             -0.6903

 Normal termination of Gaussian 09 at Wed Aug 26 13:15:33 2020.
