 Gaussian 09, Revision D.01,
 Gaussian 09:  ES64L-G09RevD.01 24-Apr-2013

 --------------------
 #p B2PLYPD3/Def2QZVP
 --------------------

 ----------
 butane_opt
 ----------
 Symbolic Z-matrix:
 Charge =  0 Multiplicity = 1

                         Standard orientation:
 ---------------------------------------------------------------------
 Center     Atomic      Atomic             Coordinates (Angstroms)
 Number     Number       Type             X           Y           Z
 ---------------------------------------------------------------------
      1          6           0       -1.813220    0.021358   -0.099929
      2          6           0       -0.588643   -0.422211    0.139055
      3          1           0       -2.606942   -0.851087   -0.248384
      4          1           0       -1.983050    0.411103   -0.893237
      5          1           0       -2.088030    1.207747    0.937635
      6          6           0        0.545135    0.565893   -0.023991
      7          1           0       -0.463056   -0.921355   -0.679582
      8          1           0       -0.724641   -1.285928    1.232065
      9          6           0        1.889796   -0.168912   -0.053558
     10          1           0        0.167287    1.292466    0.788677
     11          1           0        0.322918    1.239355   -1.044092
     12          1           0        2.170263   -0.620713    0.734100
     13          1           0        2.762965    0.581925    0.303604
     14          1           0        2.243873   -1.030278   -0.900243
 ---------------------------------------------------------------------

 SCF Done:  E(RB2PLYPD3) =  -157.834432943     A.U. after   11 cycles
 E2(B2PLYPD3) =    -0.2548681949D+00 E(B2PLYPD3) =    -0.15808930113755D+03

 The electronic state is 1-A.
 Alpha  occ. eigenvalues --  -10.64327 -10.62210 -10.62204 -10.61060  -0.96164
 Alpha  occ. eigenvalues --   -0.85574  -0.74483  -0.66706  -0.57166  -0.51393
 Alpha  occ. eigenvalues --   -0.49345  -0.46865  -0.43790  -0.38749  -0.37690
 Alpha  occ. eigenvalues --   -0.35506  -0.32685
 Alpha virt. eigenvalues --    0.03412   0.05343   0.06007   0.07619   0.09588
 Alpha virt. eigenvalues --    0.10393   0.11786   0.12905   0.13953   0.14043
 Alpha virt. eigenvalues --    0.15333   0.16304   0.18766   0.19189   0.20055

 Mulliken charges:
               1
     1  C   -0.148524
     2  C   -0.049086
     3  H    0.047089
     4  H    0.091093
     5  H   -0.066973
     6  C   -0.040827
     7  H    0.083514
     8  H    0.020597
     9  C   -0.154577
    10  H    0.050431
    11  H    0.028663
    12  H    0.074679
    13  H    0.020235
    14  H    0.043686
 Sum of Mulliken charges =   0.00000

 Dipole moment (field-independent basis, Debye):
    X=              0.4778    Y=             -0.7892    Z=             -0.7470  Tot=              1.1871
 Quadrupole moment (field-independent basis, Debye-Ang):
   XX=            -31.1679   YY=            -30.0771   ZZ=            -29.1622
   XY=              0.6641   XZ=              2.9599   YZ=              0.2419

 Normal termination of Gaussian 09 at Wed Aug 26 11:36:17 2020.
