 Gaussian 09, Revision D.01,
 Gaussian 09:  ES64L-G09RevD.01 24-Apr-2013

 --------------------
 #p B2PLYPD3/Def2QZVP
 --------------------

 ----------
 butane_opt
 ----------
 Symbolic Z-matrix:
 Charge =  0 Multiplicity = 1

                         Standard orientation:
 ---------------------------------------------------------------------
 Center     Atomic      Atomic             Coordinates (Angstroms)
 Number     Number       Type             X           Y           Z
 ---------------------------------------------------------------------
      1          6           0       -1.969899   -0.165003    0.097945
      2          6           0       -0.660395    0.531264   -0.033377
      3          1           0       -2.666245    0.556935    0.018753
      4          1           0       -1.984030   -1.137257    1.035799
      5          1           0       -2.131632   -0.345513   -0.751683
      6          6           0        0.579924   -0.528433   -0.275194
      7          1           0       -0.349583    1.168574    1.041087
      8          1           0       -0.664186    1.351615   -0.819128
      9          6           0        2.023219    0.123273    0.123562
     10          1           0        0.293042   -0.957175   -1.217426
     11          1           0        0.583440   -1.193176    0.572093
     12          1           0        2.590582    0.960620   -0.748951
     13          1           0        2.859812   -0.763069    0.405308
     14          1           0        1.631700    0.591836    0.986528
 ---------------------------------------------------------------------

 SCF Done:  E(RB2PLYPD3) =  -157.937970220     A.U. after   11 cycles
 E2(B2PLYPD3) =    -0.2523838137D+00 E(B2PLYPD3) =    -0.15819035403379D+03

 The electronic state is 1-A.
 Alpha  occ. eigenvalues --  -10.64449 -10.63573 -10.62013 -10.59384  -0.91144
 Alpha  occ. eigenvalues --   -0.83986  -0.71685  -0.65379  -0.53529  -0.49759
 Alpha  occ. eigenvalues --   -0.48094  -0.46173  -0.41768  -0.40226  -0.37982
 Alpha  occ. eigenvalues --   -0.36638  -0.34895
 Alpha virt. eigenvalues --    0.05063   0.06071   0.07566   0.08354   0.10308
 Alpha virt. eigenvalues --    0.10725   0.11923   0.13461   0.13931   0.15327
 Alpha virt. eigenvalues --    0.15785   0.15871   0.17980   0.18671   0.20896

 Mulliken charges:
               1
     1  C   -0.221514
     2  C   -0.026777
     3  H    0.055691
     4  H    0.061049
     5  H    0.107322
     6  C   -0.080220
     7  H   -0.019073
     8  H    0.035691
     9  C   -0.186849
    10  H    0.055552
    11  H    0.052696
    12  H    0.026131
    13  H    0.042171
    14  H    0.098129
 Sum of Mulliken charges =   0.00000

 Dipole moment (field-independent basis, Debye):
    X=             -0.5472    Y=             -0.1608    Z=             -0.2962  Tot=              0.6426
 Quadrupole moment (field-independent basis, Debye-Ang):
   XX=            -30.3064   YY=            -29.7063   ZZ=            -28.5803
   XY=             -0.8879   XZ=              1.3933   YZ=             -1.2879

 Normal termination of Gaussian 09 at Wed Aug 26 15:37:31 2020.
