 Gaussian 09, Revision D.01,
 Gaussian 09:  ES64L-G09RevD.01 24-Apr-2013

 --------------------
 #p B2PLYPD3/Def2QZVP
 --------------------

 ----------
 butane_opt
 ----------
 Symbolic Z-matrix:
 Charge =  0 Multiplicity = 1

                         Standard orientation:
 ---------------------------------------------------------------------
 Center     Atomic      Atomic             Coordinates (Angstroms)
 Number     Number       Type             X           Y           Z
 ---------------------------------------------------------------------
      1          6           0        1.876234   -0.160160    0.054247
      2          6           0        0.523600    0.544424   -0.197804
      3          1           0        2.557676    0.634446    0.934160
      4          1           0        2.715249   -0.906066   -0.900230
      5          1           0        1.713748   -0.678504    0.926952
      6          6           0       -0.613545   -0.470009   -0.067569
      7          1           0        0.532556    1.368867   -1.053357
      8          1           0        0.313666    1.280013    0.642285
      9          6           0       -1.887256    0.118083    0.036525
     10          1           0       -0.330204   -1.267123    0.942355
     11          1           0       -0.353246   -1.098918   -0.961489
     12          1           0       -1.908069    0.769570    0.985798
     13          1           0       -2.732334   -0.804650    0.046159
     14          1           0       -1.903240    0.508337   -0.515031
 ---------------------------------------------------------------------

 SCF Done:  E(RB2PLYPD3) =  -157.682991765     A.U. after   11 cycles
 E2(B2PLYPD3) =    -0.2546482957D+00 E(B2PLYPD3) =    -0.15793764006086D+03

 The electronic state is 1-A.
 Alpha  occ. eigenvalues --  -10.65404 -10.63208 -10.62623 -10.58209  -0.95152
 Alpha  occ. eigenvalues --   -0.85587  -0.72376  -0.66154  -0.56582  -0.51045
 Alpha  occ. eigenvalues --   -0.48244  -0.45878  -0.42099  -0.39424  -0.38673
 Alpha  occ. eigenvalues --   -0.37113  -0.32998
 Alpha virt. eigenvalues --    0.03978   0.05231   0.06921   0.07380   0.09297
 Alpha virt. eigenvalues --    0.10508   0.11956   0.13002   0.14557   0.15262
 Alpha virt. eigenvalues --    0.15687   0.16113   0.18654   0.19322   0.19630

 Mulliken charges:
               1
     1  C   -0.222645
     2  C   -0.012583
     3  H    0.004849
     4  H    0.062677
     5  H    0.097957
     6  C    0.023013
     7  H    0.027565
     8  H    0.019420
     9  C   -0.639933
    10  H   -0.005402
    11  H    0.041102
    12  H    0.069079
    13  H    0.060302
    14  H    0.474600
 Sum of Mulliken charges =   0.00000

 Dipole moment (field-independent basis, Debye):
    X=             -0.4770    Y=              0.1065    Z=              0.0195  Tot=              0.4891
 Quadrupole moment (field-independent basis, Debye-Ang):
   XX=            -31.9373   YY=            -29.4367   ZZ=            -28.4080
   XY=             -1.0188   XZ=              0.2075   YZ=              0.3245

 Normal termination of Gaussian 09 at Wed Aug 26 20:26:28 2020.
