 Gaussian 09, Revision D.01,
 Gaussian 09:  ES64L-G09RevD.01 24-Apr-2013

 --------------------
 #p B2PLYPD3/Def2QZVP
 --------------------

 ----------
 butane_opt
 ----------
 Symbolic Z-matrix:
 Charge =  0 Multiplicity = 1

                         Standard orientation:
 ---------------------------------------------------------------------
 Center     Atomic      Atomic             Coordinates (Angstroms)
 Number     Number       Type             X           Y           Z
 ---------------------------------------------------------------------
      1          6           0        1.934195    0.132974   -0.127240
      2          6           0        0.523473   -0.513214    0.181686
      3          1           0        2.652529   -0.533954   -0.460174
      4          1           0        2.588261    1.111267    0.833548
      5          1           0        1.758533    0.533332   -0.884233
      6          6           0       -0.653360    0.388604   -0.005885
      7          1           0        0.506779   -1.312222    1.227528
      8          1           0        0.383453   -1.000703   -0.456480
      9          6           0       -1.908472   -0.059213   -0.056305
     10          1           0       -0.344642    0.932763   -0.859739
     11          1           0       -0.445143    1.410383    1.045858
     12          1           0       -1.660280   -0.943206   -1.166783
     13          1           0       -2.930334    0.811770   -0.082577
     14          1           0       -1.884172   -0.704331    0.849517
 ---------------------------------------------------------------------

 SCF Done:  E(RB2PLYPD3) =  -157.743891385     A.U. after   12 cycles
 E2(B2PLYPD3) =    -0.2552893908D+00 E(B2PLYPD3) =    -0.15799918077601D+03

 The electronic state is 1-A.
 Alpha  occ. eigenvalues --  -10.65875 -10.63177 -10.61744 -10.61268  -0.96405
 Alpha  occ. eigenvalues --   -0.86990  -0.75934  -0.65573  -0.54820  -0.50978
 Alpha  occ. eigenvalues --   -0.50656  -0.45238  -0.44432  -0.40792  -0.38082
 Alpha  occ. eigenvalues --   -0.37046  -0.31474
 Alpha virt. eigenvalues --    0.03573   0.04481   0.05187   0.07371   0.09385
 Alpha virt. eigenvalues --    0.09920   0.11751   0.12279   0.14008   0.14333
 Alpha virt. eigenvalues --    0.15619   0.15814   0.18417   0.19585   0.20781

 Mulliken charges:
               1
     1  C   -0.227241
     2  C   -0.249875
     3  H    0.054083
     4  H    0.019649
     5  H    0.145454
     6  C    0.001837
     7  H    0.008417
     8  H    0.261611
     9  C   -0.162509
    10  H    0.052826
    11  H   -0.055862
    12  H   -0.007940
    13  H    0.084243
    14  H    0.075306
 Sum of Mulliken charges =   0.00000

 Dipole moment (field-independent basis, Debye):
    X=             -0.0752    Y=             -0.3891    Z=             -0.8972  Tot=              0.9808
 Quadrupole moment (field-independent basis, Debye-Ang):
   XX=            -29.8195   YY=            -30.8571   ZZ=            -29.5473
   XY=             -1.5876   XZ=             -1.6448   YZ=             -0.5227

 Normal termination of Gaussian 09 at Wed Aug 26 13:47:21 2020.
