 Gaussian 09, Revision D.01,
 Gaussian 09:  ES64L-G09RevD.01 24-Apr-2013

 --------------------
 #p B2PLYPD3/Def2QZVP
 --------------------

 ----------
 butane_opt
 ----------
 Symbolic Z-matrix:
 Charge =  0 Multiplicity = 1

                         Standard orientation:
 ---------------------------------------------------------------------
 Center     Atomic      Atomic             Coordinates (Angstroms)
 Number     Number       Type             X           Y           Z
 ---------------------------------------------------------------------
      1          6           0       -1.904905    0.127822   -0.105780
      2          6           0       -0.552995   -0.501431    0.113532
      3          1           0       -2.717451   -0.616530   -0.056777
      4          1           0       -1.932715    0.752021   -1.048754
      5          1           0       -2.110231    0.602407    0.650187
      6          6           0        0.518895    0.525191    0.089478
      7          1           0       -0.466941   -1.099956   -0.812834
      8          1           0       -0.538897   -1.256990    1.040817
      9          6           0        1.939865   -0.143040   -0.081430
     10          1           0        0.332833    1.395918    1.125928
     11          1           0        0.429333    0.928319   -0.621873
     12          1           0        2.162807   -0.740836    0.801728
     13          1           0        2.746469    0.695688   -0.275690
     14          1           0        2.089632   -0.711293   -0.897532
 ---------------------------------------------------------------------

 SCF Done:  E(RB2PLYPD3) =  -157.965871215     A.U. after   11 cycles
 E2(B2PLYPD3) =    -0.2472206729D+00 E(B2PLYPD3) =    -0.15821309188785D+03

 The electronic state is 1-A.
 Alpha  occ. eigenvalues --  -10.61131 -10.60283 -10.60143 -10.58026  -0.92974
 Alpha  occ. eigenvalues --   -0.84143  -0.74530  -0.67771  -0.55210  -0.49758
 Alpha  occ. eigenvalues --   -0.49300  -0.46925  -0.43052  -0.42049  -0.39464
 Alpha  occ. eigenvalues --   -0.37086  -0.36493
 Alpha virt. eigenvalues --    0.05597   0.06888   0.07539   0.08387   0.10781
 Alpha virt. eigenvalues --    0.12010   0.12692   0.14052   0.14787   0.15382
 Alpha virt. eigenvalues --    0.15644   0.16762   0.19316   0.20005   0.21257

 Mulliken charges:
               1
     1  C   -0.149547
     2  C   -0.025562
     3  H    0.028804
     4  H    0.040342
     5  H    0.072959
     6  C   -0.256254
     7  H    0.036167
     8  H    0.020855
     9  C   -0.131364
    10  H    0.005411
    11  H    0.224941
    12  H    0.054410
    13  H    0.024809
    14  H    0.054030
 Sum of Mulliken charges =   0.00000

 Dipole moment (field-independent basis, Debye):
    X=             -0.1630    Y=             -0.1176    Z=             -0.3571  Tot=              0.4098
 Quadrupole moment (field-independent basis, Debye-Ang):
   XX=            -29.7025   YY=            -29.2281   ZZ=            -27.8666
   XY=             -0.1761   XZ=             -1.0770   YZ=             -0.5404

 Normal termination of Gaussian 09 at Wed Aug 26 14:35:19 2020.
