 Gaussian 09, Revision D.01,
 Gaussian 09:  ES64L-G09RevD.01 24-Apr-2013

 --------------------
 #p B2PLYPD3/Def2QZVP
 --------------------

 ----------
 butane_opt
 ----------
 Symbolic Z-matrix:
 Charge =  0 Multiplicity = 1

                         Standard orientation:
 ---------------------------------------------------------------------
 Center     Atomic      Atomic             Coordinates (Angstroms)
 Number     Number       Type             X           Y           Z
 ---------------------------------------------------------------------
      1          6           0       -1.979564    0.109007   -0.103982
      2          6           0       -0.536267   -0.530510    0.189929
      3          1           0       -2.757839   -0.647755   -0.440203
      4          1           0       -1.754864    0.532393   -0.930546
      5          1           0       -2.495656    0.948422    0.854509
      6          6           0        0.570690    0.546347    0.056203
      7          1           0       -0.398884   -1.205854   -0.634998
      8          1           0       -0.540276   -1.176640    1.092500
      9          6           0        1.983436   -0.103037   -0.066480
     10          1           0        0.610420    1.249750    0.877038
     11          1           0        0.332218    1.132049   -0.930953
     12          1           0        2.201779   -0.548630    0.743161
     13          1           0        2.562075    0.443179   -0.152124
     14          1           0        2.011257   -0.857759   -0.932398
 ---------------------------------------------------------------------

 SCF Done:  E(RB2PLYPD3) =  -157.953113235     A.U. after   11 cycles
 E2(B2PLYPD3) =    -0.2472240477D+00 E(B2PLYPD3) =    -0.15820033728277D+03

 The electronic state is 1-A.
 Alpha  occ. eigenvalues --  -10.61738 -10.61635 -10.61363 -10.55666  -0.90981
 Alpha  occ. eigenvalues --   -0.84809  -0.74402  -0.66846  -0.53613  -0.52560
 Alpha  occ. eigenvalues --   -0.48640  -0.46583  -0.42255  -0.40938  -0.39131
 Alpha  occ. eigenvalues --   -0.38144  -0.37130
 Alpha virt. eigenvalues --    0.05564   0.06668   0.08192   0.08736   0.10479
 Alpha virt. eigenvalues --    0.11663   0.12786   0.13909   0.15029   0.15294
 Alpha virt. eigenvalues --    0.16178   0.17026   0.19085   0.19786   0.21662

 Mulliken charges:
               1
     1  C   -0.196973
     2  C   -0.053116
     3  H    0.040179
     4  H    0.095035
     5  H    0.023866
     6  C   -0.019784
     7  H    0.046115
     8  H    0.034790
     9  C   -0.281781
    10  H    0.038337
    11  H    0.016828
    12  H    0.045827
    13  H    0.184240
    14  H    0.026438
 Sum of Mulliken charges =   0.00000

 Dipole moment (field-independent basis, Debye):
    X=              0.4953    Y=             -0.1078    Z=             -0.1325  Tot=              0.5240
 Quadrupole moment (field-independent basis, Debye-Ang):
   XX=            -29.4876   YY=            -28.9496   ZZ=            -27.8710
   XY=              0.8451   XZ=              0.9000   YZ=              0.4205

 Normal termination of Gaussian 09 at Wed Aug 26 20:58:03 2020.
