 Gaussian 09, Revision D.01,
 Gaussian 09:  ES64L-G09RevD.01 24-Apr-2013

 --------------------
 #p B2PLYPD3/Def2QZVP
 --------------------

 ----------
 butane_opt
 ----------
 Symbolic Z-matrix:
 Charge =  0 Multiplicity = 1

                         Standard orientation:
 ---------------------------------------------------------------------
 Center     Atomic      Atomic             Coordinates (Angstroms)
 Number     Number       Type             X           Y           Z
 ---------------------------------------------------------------------
      1          6           0       -1.928849   -0.251887   -0.139644
      2          6           0       -0.495930    0.587180    0.255558
      3          1           0       -2.718071    0.460788   -0.882022
      4          1           0       -2.510924   -0.755298    0.819433
      5          1           0       -1.648834   -0.717452   -0.923217
      6          6           0        0.599026   -0.405245    0.222731
      7          1           0       -0.521618    1.420227    1.265946
      8          1           0       -0.486423    1.209952   -0.744096
      9          6           0        1.864243    0.109824   -0.208715
     10          1           0        0.270357   -1.169748   -0.648513
     11          1           0        0.745440   -0.972748    1.153183
     12          1           0        1.926170    0.629828   -1.283230
     13          1           0        2.870909   -0.946830    0.047951
     14          1           0        1.842047    0.602054    0.414984
 ---------------------------------------------------------------------

 SCF Done:  E(RB2PLYPD3) =  -157.825967659     A.U. after   11 cycles
 E2(B2PLYPD3) =    -0.2543641327D+00 E(B2PLYPD3) =    -0.15808033179178D+03

 The electronic state is 1-A.
 Alpha  occ. eigenvalues --  -10.65317 -10.63494 -10.61739 -10.60649  -0.94887
 Alpha  occ. eigenvalues --   -0.83606  -0.72904  -0.64993  -0.55806  -0.50375
 Alpha  occ. eigenvalues --   -0.48099  -0.46032  -0.43054  -0.39803  -0.36541
 Alpha  occ. eigenvalues --   -0.36240  -0.34565
 Alpha virt. eigenvalues --    0.04302   0.05444   0.06896   0.07512   0.09553
 Alpha virt. eigenvalues --    0.10903   0.12094   0.12273   0.14305   0.14887
 Alpha virt. eigenvalues --    0.15826   0.16308   0.17532   0.18537   0.20427

 Mulliken charges:
               1
     1  C   -0.191447
     2  C   -0.098597
     3  H    0.008942
     4  H    0.069677
     5  H    0.115014
     6  C   -0.013159
     7  H    0.033649
     8  H    0.046660
     9  C   -0.388665
    10  H    0.007757
    11  H    0.055075
    12  H    0.060924
    13  H    0.004132
    14  H    0.290036
 Sum of Mulliken charges =   0.00000

 Dipole moment (field-independent basis, Debye):
    X=             -0.1822    Y=              0.0604    Z=             -0.0003  Tot=              0.1920
 Quadrupole moment (field-independent basis, Debye-Ang):
   XX=            -33.0145   YY=            -30.3104   ZZ=            -27.4852
   XY=              0.5301   XZ=              0.4779   YZ=             -0.5787

 Normal termination of Gaussian 09 at Wed Aug 26 09:48:45 2020.
