 Gaussian 09, Revision D.01,
 Gaussian 09:  ES64L-G09RevD.01 24-Apr-2013

 --------------------
 #p B2PLYPD3/Def2QZVP
 --------------------

 ----------
 butane_opt
 ----------
 Symbolic Z-matrix:
 Charge =  0 Multiplicity = 1

                         Standard orientation:
 ---------------------------------------------------------------------
 Center     Atomic      Atomic             Coordinates (Angstroms)
 Number     Number       Type             X           Y           Z
 ---------------------------------------------------------------------
      1          6           0       -2.056546   -0.193291   -0.034602
      2          6           0       -0.562448    0.549134   -0.029213
      3          1           0       -2.919952    0.540901   -0.187273
      4          1           0       -2.075338   -0.405065    0.634398
      5          1           0       -2.032410   -0.990702   -1.005505
      6          6           0        0.560106   -0.426137    0.254952
      7          1           0       -0.409443    1.557339    0.875435
      8          1           0       -0.301276    0.945999   -0.809498
      9          6           0        1.961421    0.132033   -0.119842
     10          1           0        0.536794   -1.143534   -0.469278
     11          1           0        0.696194   -1.269859    1.536597
     12          1           0        1.727776    0.366029   -0.966385
     13          1           0        2.802731   -0.876983   -0.767863
     14          1           0        2.559719    0.905444    0.731599
 ---------------------------------------------------------------------

 SCF Done:  E(RB2PLYPD3) =  -157.635550003     A.U. after   11 cycles
 E2(B2PLYPD3) =    -0.2545243693D+00 E(B2PLYPD3) =    -0.15789007437220D+03

 The electronic state is 1-A.
 Alpha  occ. eigenvalues --  -10.64591 -10.64241 -10.63350 -10.60621  -0.92942
 Alpha  occ. eigenvalues --   -0.86122  -0.76512  -0.66522  -0.54770  -0.51664
 Alpha  occ. eigenvalues --   -0.48057  -0.45976  -0.45045  -0.40314  -0.37193
 Alpha  occ. eigenvalues --   -0.35149  -0.34429
 Alpha virt. eigenvalues --    0.03367   0.05573   0.06133   0.07201   0.09683
 Alpha virt. eigenvalues --    0.09890   0.11713   0.13426   0.13479   0.15271
 Alpha virt. eigenvalues --    0.15464   0.16065   0.17772   0.19097   0.19550

 Mulliken charges:
               1
     1  C   -0.535205
     2  C   -0.120731
     3  H    0.064819
     4  H    0.435804
     5  H    0.056646
     6  C   -0.064209
     7  H   -0.001098
     8  H    0.126034
     9  C   -0.245979
    10  H    0.090193
    11  H   -0.017095
    12  H    0.140862
    13  H   -0.003289
    14  H    0.073248
 Sum of Mulliken charges =   0.00000

 Dipole moment (field-independent basis, Debye):
    X=             -0.5478    Y=              0.3562    Z=             -0.8755  Tot=              1.0925
 Quadrupole moment (field-independent basis, Debye-Ang):
   XX=            -30.6435   YY=            -30.4640   ZZ=            -28.7049
   XY=              0.7463   XZ=             -0.1067   YZ=              1.0443

 Normal termination of Gaussian 09 at Wed Aug 26 22:39:05 2020.
