 Gaussian 09, Revision D.01,
 Gaussian 09:  ES64L-G09RevD.01 24-Apr-2013

 --------------------
 #p B2PLYPD3/Def2QZVP
 --------------------

 ----------
 butane_opt
 ----------
 Symbolic Z-matrix:
 Charge =  0 Multiplicity = 1

                         Standard orientation:
 ---------------------------------------------------------------------
 Center     Atomic      Atomic             Coordinates (Angstroms)
 Number     Number       Type             X           Y           Z
 ---------------------------------------------------------------------
      1          6           0       -1.895540   -0.155386   -0.061000
      2          6           0       -0.498503    0.569404    0.022975
      3          1           0       -2.763233    0.693687   -0.358098
      4          1           0       -1.957010   -0.733537    0.797617
      5          1           0       -1.966499   -0.791495   -0.897976
      6          6           0        0.543438   -0.519840    0.176075
      7          1           0       -0.407128    1.388062    1.093640
      8          1           0       -0.578972    0.795309   -0.505619
      9          6           0        1.879878    0.081854   -0.135929
     10          1           0        0.509499   -1.054401   -0.629171
     11          1           0        0.486205   -1.225448    1.196139
     12          1           0        1.548551    0.699635   -1.095883
     13          1           0        2.634216   -0.491226   -0.533641
     14          1           0        2.318736    0.863229    0.920262
 ---------------------------------------------------------------------

 SCF Done:  E(RB2PLYPD3) =  -157.456892525     A.U. after   11 cycles
 E2(B2PLYPD3) =    -0.2511260308D+00 E(B2PLYPD3) =    -0.15770801855587D+03

 The electronic state is 1-A.
 Alpha  occ. eigenvalues --  -10.62997 -10.61141 -10.60702 -10.60445  -0.95707
 Alpha  occ. eigenvalues --   -0.85459  -0.74128  -0.69371  -0.56836  -0.50608
 Alpha  occ. eigenvalues --   -0.49457  -0.45957  -0.44198  -0.39620  -0.38588
 Alpha  occ. eigenvalues --   -0.36301  -0.35717
 Alpha virt. eigenvalues --    0.04783   0.06516   0.07514   0.08186   0.10772
 Alpha virt. eigenvalues --    0.11147   0.11883   0.12613   0.14301   0.15220
 Alpha virt. eigenvalues --    0.15482   0.17573   0.18450   0.19588   0.20882

 Mulliken charges:
               1
     1  C   -0.126396
     2  C   -0.821310
     3  H    0.023129
     4  H    0.071117
     5  H    0.043669
     6  C   -0.005178
     7  H    0.029883
     8  H    0.719633
     9  C   -0.161894
    10  H    0.088585
    11  H    0.026936
    12  H    0.036865
    13  H    0.061286
    14  H    0.013678
 Sum of Mulliken charges =   0.00000

 Dipole moment (field-independent basis, Debye):
    X=              0.0217    Y=             -0.5965    Z=             -0.6068  Tot=              0.8512
 Quadrupole moment (field-independent basis, Debye-Ang):
   XX=            -31.1814   YY=            -29.5891   ZZ=            -27.5379
   XY=             -1.0249   XZ=              0.1560   YZ=              0.0432

 Normal termination of Gaussian 09 at Wed Aug 26 22:24:11 2020.
