 Gaussian 09, Revision D.01,
 Gaussian 09:  ES64L-G09RevD.01 24-Apr-2013

 --------------------
 #p B2PLYPD3/Def2QZVP
 --------------------

 ----------
 butane_opt
 ----------
 Symbolic Z-matrix:
 Charge =  0 Multiplicity = 1

                         Standard orientation:
 ---------------------------------------------------------------------
 Center     Atomic      Atomic             Coordinates (Angstroms)
 Number     Number       Type             X           Y           Z
 ---------------------------------------------------------------------
      1          6           0        2.003767   -0.167345   -0.150973
      2          6           0        0.521017    0.558947    0.228388
      3          1           0        2.834792    0.506137   -0.908179
      4          1           0        2.109914   -0.477753   -0.910613
      5          1           0        2.736676   -1.016371    0.961589
      6          6           0       -0.576023   -0.487184    0.105399
      7          1           0        0.297283    0.802306   -0.308407
      8          1           0        0.433976    1.707847    1.423820
      9          6           0       -1.954491    0.067825   -0.130908
     10          1           0       -0.867469   -1.107891    1.110502
     11          1           0       -0.574748   -0.866683   -0.616645
     12          1           0       -2.364494    0.397016    0.506271
     13          1           0       -2.706889   -0.765366   -0.174745
     14          1           0       -1.864664    0.987301   -1.395024
 ---------------------------------------------------------------------

 SCF Done:  E(RB2PLYPD3) =  -157.165333731     A.U. after   12 cycles
 E2(B2PLYPD3) =    -0.2584725247D+00 E(B2PLYPD3) =    -0.15742380625599D+03

 The electronic state is 1-A.
 Alpha  occ. eigenvalues --  -10.65197 -10.64416 -10.62126 -10.60570  -0.97711
 Alpha  occ. eigenvalues --   -0.87068  -0.80783  -0.74002  -0.56564  -0.51968
 Alpha  occ. eigenvalues --   -0.47356  -0.45885  -0.41801  -0.38533  -0.37509
 Alpha  occ. eigenvalues --   -0.35042  -0.34659
 Alpha virt. eigenvalues --    0.01676   0.03433   0.04463   0.06912   0.07613
 Alpha virt. eigenvalues --    0.10133   0.11012   0.12595   0.13164   0.14708
 Alpha virt. eigenvalues --    0.15861   0.16846   0.17638   0.18477   0.20025

 Mulliken charges:
               1
     1  C   -0.336003
     2  C   -0.777416
     3  H    0.007411
     4  H    0.263590
     5  H    0.041204
     6  C   -0.194513
     7  H    0.740439
     8  H    0.019227
     9  C   -0.252270
    10  H    0.029751
    11  H    0.270375
    12  H    0.166442
    13  H    0.042992
    14  H   -0.021228
 Sum of Mulliken charges =   0.00000

 Dipole moment (field-independent basis, Debye):
    X=             -0.6412    Y=             -0.6385    Z=             -0.3451  Tot=              0.9685
 Quadrupole moment (field-independent basis, Debye-Ang):
   XX=            -30.3770   YY=            -30.7721   ZZ=            -28.1660
   XY=              0.1379   XZ=             -3.4187   YZ=             -0.0653

 Normal termination of Gaussian 09 at Wed Aug 26 10:07:55 2020.
