 Gaussian 09, Revision D.01,
 Gaussian 09:  ES64L-G09RevD.01 24-Apr-2013

 --------------------
 #p B2PLYPD3/Def2QZVP
 --------------------

 ----------
 butane_opt
 ----------
 Symbolic Z-matrix:
 Charge =  0 Multiplicity = 1

                         Standard orientation:
 ---------------------------------------------------------------------
 Center     Atomic      Atomic             Coordinates (Angstroms)
 Number     Number       Type             X           Y           Z
 ---------------------------------------------------------------------
      1          6           0        1.977767    0.088727    0.009511
      2          6           0        0.531233   -0.509105   -0.081776
      3          1           0        2.771465   -0.639773   -0.025334
      4          1           0        2.130754    0.809567    1.015426
      5          1           0        2.175595    0.631754   -0.787516
      6          6           0       -0.562539    0.530283    0.067779
      7          1           0        0.563208   -1.209216    0.724716
      8          1           0        0.510878   -1.113337   -1.008337
      9          6           0       -1.948657   -0.120207   -0.007175
     10          1           0       -0.556961    1.301143   -0.814815
     11          1           0       -0.370839    1.247606    0.983621
     12          1           0       -2.066939   -0.405496   -0.605070
     13          1           0       -2.696800    0.579155   -0.468827
     14          1           0       -2.447184   -1.139587    1.056105
 ---------------------------------------------------------------------

 SCF Done:  E(RB2PLYPD3) =  -157.724575246     A.U. after   11 cycles
 E2(B2PLYPD3) =    -0.2501608849D+00 E(B2PLYPD3) =    -0.15797473613052D+03

 The electronic state is 1-A.
 Alpha  occ. eigenvalues --  -10.63518 -10.61000 -10.60508 -10.60087  -0.92800
 Alpha  occ. eigenvalues --   -0.86557  -0.76210  -0.67650  -0.52832  -0.50733
 Alpha  occ. eigenvalues --   -0.48898  -0.45556  -0.42264  -0.40037  -0.38909
 Alpha  occ. eigenvalues --   -0.37919  -0.35970
 Alpha virt. eigenvalues --    0.04193   0.05826   0.07039   0.08059   0.10344
 Alpha virt. eigenvalues --    0.11051   0.12417   0.12988   0.14329   0.15418
 Alpha virt. eigenvalues --    0.16050   0.16699   0.18820   0.19352   0.20985

 Mulliken charges:
               1
     1  C   -0.141783
     2  C   -0.033270
     3  H    0.040400
     4  H    0.018837
     5  H    0.055401
     6  C    0.020514
     7  H    0.043346
     8  H    0.024993
     9  C   -0.635522
    10  H    0.010996
    11  H    0.041545
    12  H    0.490423
    13  H    0.039974
    14  H    0.024148
 Sum of Mulliken charges =   0.00000

 Dipole moment (field-independent basis, Debye):
    X=              0.2764    Y=             -0.0230    Z=             -0.8348  Tot=              0.8797
 Quadrupole moment (field-independent basis, Debye-Ang):
   XX=            -30.4574   YY=            -28.9806   ZZ=            -28.2199
   XY=             -0.4533   XZ=              1.3468   YZ=             -0.2570

 Normal termination of Gaussian 09 at Wed Aug 26 15:25:53 2020.
