 Gaussian 09, Revision D.01,
 Gaussian 09:  ES64L-G09RevD.01 24-Apr-2013

 --------------------
 #p B2PLYPD3/Def2QZVP
 --------------------

 ----------
 butane_opt
 ----------
 Symbolic Z-matrix:
 Charge =  0 Multiplicity = 1

                         Standard orientation:
 ---------------------------------------------------------------------
 Center     Atomic      Atomic             Coordinates (Angstroms)
 Number     Number       Type             X           Y           Z
 ---------------------------------------------------------------------
      1          6           0       -2.070981   -0.166350    0.093009
      2          6           0       -0.521422    0.613040   -0.153863
      3          1           0       -2.694956    0.318818    0.535164
      4          1           0       -1.899941   -0.725429    0.908342
      5          1           0       -2.541132   -0.681017   -0.729269
      6          6           0        0.615428   -0.487908   -0.150559
      7          1           0       -0.024206    1.203883    0.698188
      8          1           0       -0.570155    1.544003   -1.167842
      9          6           0        1.932840    0.097558    0.145108
     10          1           0        0.637977   -1.053822   -0.976011
     11          1           0        0.427345   -1.449446    0.691409
     12          1           0        2.262904    0.424547   -0.525818
     13          1           0        2.708421   -0.860859   -0.209273
     14          1           0        1.958551    0.941280    1.172945
 ---------------------------------------------------------------------

 SCF Done:  E(RB2PLYPD3) =  -157.828611059     A.U. after   11 cycles
 E2(B2PLYPD3) =    -0.2529229557D+00 E(B2PLYPD3) =    -0.15808153401433D+03

 The electronic state is 1-A.
 Alpha  occ. eigenvalues --  -10.65883 -10.62037 -10.60956 -10.58395  -0.91249
 Alpha  occ. eigenvalues --   -0.84256  -0.75797  -0.66660  -0.54337  -0.49629
 Alpha  occ. eigenvalues --   -0.48074  -0.45527  -0.42787  -0.40441  -0.39399
 Alpha  occ. eigenvalues --   -0.34898  -0.34720
 Alpha virt. eigenvalues --    0.04207   0.06249   0.06726   0.08071   0.10209
 Alpha virt. eigenvalues --    0.11595   0.11955   0.13687   0.14420   0.15142
 Alpha virt. eigenvalues --    0.15837   0.16384   0.17483   0.19391   0.20510

 Mulliken charges:
               1
     1  C   -0.158070
     2  C   -0.117344
     3  H    0.072764
     4  H    0.052608
     5  H    0.058813
     6  C    0.020179
     7  H    0.045052
     8  H    0.011824
     9  C   -0.293858
    10  H    0.039280
    11  H    0.006973
    12  H    0.216229
    13  H   -0.000304
    14  H    0.045852
 Sum of Mulliken charges =   0.00000

 Dipole moment (field-independent basis, Debye):
    X=             -0.1495    Y=             -0.0530    Z=             -0.2310  Tot=              0.2803
 Quadrupole moment (field-independent basis, Debye-Ang):
   XX=            -29.0738   YY=            -29.4710   ZZ=            -28.5458
   XY=              0.9533   XZ=             -1.6171   YZ=              1.0302

 Normal termination of Gaussian 09 at Wed Aug 26 21:52:18 2020.
