 Gaussian 09, Revision D.01,
 Gaussian 09:  ES64L-G09RevD.01 24-Apr-2013

 --------------------
 #p B2PLYPD3/Def2QZVP
 --------------------

 ----------
 butane_opt
 ----------
 Symbolic Z-matrix:
 Charge =  0 Multiplicity = 1

                         Standard orientation:
 ---------------------------------------------------------------------
 Center     Atomic      Atomic             Coordinates (Angstroms)
 Number     Number       Type             X           Y           Z
 ---------------------------------------------------------------------
      1          6           0       -1.871440    0.101743   -0.146290
      2          6           0       -0.602224   -0.501655    0.172566
      3          1           0       -2.808292   -0.698320   -0.247128
      4          1           0       -1.827030    0.828562   -1.186939
      5          1           0       -2.288735    0.476731    0.591078
      6          6           0        0.566851    0.594843    0.194857
      7          1           0       -0.483097   -0.982918   -0.540118
      8          1           0       -0.306571   -1.297040    1.210004
      9          6           0        1.903546   -0.187863   -0.216701
     10          1           0        0.436021    1.706037    1.202381
     11          1           0        0.422742    0.825650   -0.410239
     12          1           0        2.558899   -0.915865    0.691594
     13          1           0        2.615517    0.490810   -0.495581
     14          1           0        1.700147   -0.476061   -0.841647
 ---------------------------------------------------------------------

 SCF Done:  E(RB2PLYPD3) =  -157.390098902     A.U. after   12 cycles
 E2(B2PLYPD3) =    -0.2515081927D+00 E(B2PLYPD3) =    -0.15764160709440D+03

 The electronic state is 1-A.
 Alpha  occ. eigenvalues --  -10.61252 -10.61175 -10.60548 -10.58874  -0.96153
 Alpha  occ. eigenvalues --   -0.87742  -0.78235  -0.71107  -0.54880  -0.52776
 Alpha  occ. eigenvalues --   -0.49150  -0.47127  -0.42000  -0.40765  -0.39201
 Alpha  occ. eigenvalues --   -0.37706  -0.34521
 Alpha virt. eigenvalues --    0.04786   0.06092   0.06782   0.07647   0.10433
 Alpha virt. eigenvalues --    0.11016   0.12174   0.12776   0.14739   0.15543
 Alpha virt. eigenvalues --    0.15784   0.16370   0.18599   0.19207   0.21255

 Mulliken charges:
               1
     1  C   -0.153955
     2  C   -0.137295
     3  H    0.009531
     4  H    0.040099
     5  H    0.079474
     6  C   -0.747742
     7  H    0.173052
     8  H    0.023683
     9  C   -0.495458
    10  H    0.027013
    11  H    0.671280
    12  H    0.044943
    13  H    0.059966
    14  H    0.405407
 Sum of Mulliken charges =   0.00000

 Dipole moment (field-independent basis, Debye):
    X=             -0.0250    Y=              0.0970    Z=             -0.7536  Tot=              0.7602
 Quadrupole moment (field-independent basis, Debye-Ang):
   XX=            -28.8473   YY=            -29.5846   ZZ=            -28.0490
   XY=             -0.2566   XZ=             -0.8357   YZ=             -0.2689

 Normal termination of Gaussian 09 at Wed Aug 26 18:34:49 2020.
