 Gaussian 09, Revision D.01,
 Gaussian 09:  ES64L-G09RevD.01 24-Apr-2013

 --------------------
 #p B2PLYPD3/Def2QZVP
 --------------------

 ----------
 butane_opt
 ----------
 Symbolic Z-matrix:
 Charge =  0 Multiplicity = 1

                         Standard orientation:
 ---------------------------------------------------------------------
 Center     Atomic      Atomic             Coordinates (Angstroms)
 Number     Number       Type             X           Y           Z
 ---------------------------------------------------------------------
      1          6           0       -1.868116   -0.079041   -0.064538
      2          6           0       -0.614671    0.417378   -0.006676
      3          1           0       -2.872218    0.883543   -0.274294
      4          1           0       -1.894609   -0.543371    0.702518
      5          1           0       -2.095402   -0.794724   -0.835050
      6          6           0        0.471765   -0.513507    0.265430
      7          1           0       -0.363921    1.286208    0.899403
      8          1           0       -0.311890    0.705836   -0.730047
      9          6           0        1.927369    0.114419   -0.147563
     10          1           0        0.300164   -0.885754   -0.444129
     11          1           0        0.513987   -1.238182    1.317493
     12          1           0        1.667760    0.389633   -0.985074
     13          1           0        2.775341   -0.732349   -0.866849
     14          1           0        2.782708    1.293669    0.936115
 ---------------------------------------------------------------------

 SCF Done:  E(RB2PLYPD3) =  -157.608679120     A.U. after   12 cycles
 E2(B2PLYPD3) =    -0.2571713720D+00 E(B2PLYPD3) =    -0.15786585049226D+03

 The electronic state is 1-A.
 Alpha  occ. eigenvalues --  -10.67222 -10.61360 -10.60205 -10.58930  -0.99709
 Alpha  occ. eigenvalues --   -0.86661  -0.75466  -0.70166  -0.58691  -0.51897
 Alpha  occ. eigenvalues --   -0.50506  -0.45454  -0.42320  -0.40009  -0.39194
 Alpha  occ. eigenvalues --   -0.35399  -0.33036
 Alpha virt. eigenvalues --   -0.00681   0.04656   0.06405   0.07814   0.08038
 Alpha virt. eigenvalues --    0.10034   0.11382   0.12495   0.14041   0.15242
 Alpha virt. eigenvalues --    0.15724   0.16632   0.18068   0.19095   0.19291

 Mulliken charges:
               1
     1  C   -0.171115
     2  C   -0.196710
     3  H    0.027095
     4  H    0.115268
     5  H    0.032137
     6  C   -0.321003
     7  H    0.019646
     8  H    0.192048
     9  C   -0.251079
    10  H    0.311702
    11  H    0.038961
    12  H    0.160308
    13  H    0.023917
    14  H    0.018824
 Sum of Mulliken charges =   0.00000

 Dipole moment (field-independent basis, Debye):
    X=             -0.6387    Y=             -0.5665    Z=             -0.9045  Tot=              1.2438
 Quadrupole moment (field-independent basis, Debye-Ang):
   XX=            -32.7957   YY=            -30.4947   ZZ=            -27.9143
   XY=              0.5704   XZ=             -0.5136   YZ=              0.2688

 Normal termination of Gaussian 09 at Wed Aug 26 10:33:16 2020.
