 Gaussian 09, Revision D.01,
 Gaussian 09:  ES64L-G09RevD.01 24-Apr-2013

 --------------------
 #p B2PLYPD3/Def2QZVP
 --------------------

 ----------
 butane_opt
 ----------
 Symbolic Z-matrix:
 Charge =  0 Multiplicity = 1

                         Standard orientation:
 ---------------------------------------------------------------------
 Center     Atomic      Atomic             Coordinates (Angstroms)
 Number     Number       Type             X           Y           Z
 ---------------------------------------------------------------------
      1          6           0       -1.948267    0.053309   -0.005659
      2          6           0       -0.636022   -0.427763   -0.155067
      3          1           0       -2.910315   -0.860779    0.673418
      4          1           0       -2.418324    0.903414   -0.911692
      5          1           0       -1.706475    0.584692    0.847193
      6          6           0        0.502704    0.504843   -0.021847
      7          1           0       -0.172429   -0.972411   -0.939867
      8          1           0       -0.651605   -1.175207    0.723932
      9          6           0        1.991251   -0.152558    0.069801
     10          1           0        0.376635    1.435404    1.055642
     11          1           0        0.522157    1.227834   -0.837123
     12          1           0        2.311450   -0.877193    0.779127
     13          1           0        2.760572    0.614971    0.176734
     14          1           0        2.430335   -0.747708   -0.890730
 ---------------------------------------------------------------------

 SCF Done:  E(RB2PLYPD3) =  -157.938008826     A.U. after   11 cycles
 E2(B2PLYPD3) =    -0.2544095061D+00 E(B2PLYPD3) =    -0.15819241833206D+03

 The electronic state is 1-A.
 Alpha  occ. eigenvalues --  -10.65602 -10.65072 -10.62395 -10.61394  -0.93890
 Alpha  occ. eigenvalues --   -0.83056  -0.73707  -0.65425  -0.53403  -0.49955
 Alpha  occ. eigenvalues --   -0.48740  -0.44755  -0.43552  -0.41452  -0.38053
 Alpha  occ. eigenvalues --   -0.35371  -0.34184
 Alpha virt. eigenvalues --    0.03305   0.05821   0.06500   0.07700   0.09779
 Alpha virt. eigenvalues --    0.10423   0.12644   0.12808   0.13806   0.14448
 Alpha virt. eigenvalues --    0.15419   0.16077   0.18267   0.19543   0.20540

 Mulliken charges:
               1
     1  C   -0.175701
     2  C   -0.012712
     3  H    0.022191
     4  H    0.031134
     5  H    0.092020
     6  C   -0.041525
     7  H    0.042656
     8  H    0.040800
     9  C   -0.117670
    10  H   -0.040464
    11  H    0.055262
    12  H    0.047653
    13  H    0.048621
    14  H    0.007733
 Sum of Mulliken charges =   0.00000

 Dipole moment (field-independent basis, Debye):
    X=              0.6424    Y=             -0.1039    Z=             -0.0467  Tot=              0.6524
 Quadrupole moment (field-independent basis, Debye-Ang):
   XX=            -30.6682   YY=            -29.9214   ZZ=            -29.6067
   XY=             -0.6010   XZ=             -0.6837   YZ=             -1.1651

 Normal termination of Gaussian 09 at Wed Aug 26 19:09:46 2020.
