 Gaussian 09, Revision D.01,
 Gaussian 09:  ES64L-G09RevD.01 24-Apr-2013

 --------------------
 #p B2PLYPD3/Def2QZVP
 --------------------

 ----------
 butane_opt
 ----------
 Symbolic Z-matrix:
 Charge =  0 Multiplicity = 1

                         Standard orientation:
 ---------------------------------------------------------------------
 Center     Atomic      Atomic             Coordinates (Angstroms)
 Number     Number       Type             X           Y           Z
 ---------------------------------------------------------------------
      1          6           0        1.907090    0.050167   -0.195289
      2          6           0        0.602222   -0.342357    0.208221
      3          1           0        2.848199   -0.987602    0.034085
      4          1           0        2.201547    0.777035    0.632421
      5          1           0        1.605474    0.644467   -1.204876
      6          6           0       -0.591243    0.577508    0.110262
      7          1           0        0.414761   -1.057292    1.329623
      8          1           0        0.540273   -1.097242   -0.563383
      9          6           0       -1.956655   -0.188351   -0.135435
     10          1           0       -0.279274    0.708981   -0.648877
     11          1           0       -0.503530    1.783808    1.135400
     12          1           0       -1.541553   -0.739278   -0.754899
     13          1           0       -2.525012    0.261324   -0.849166
     14          1           0       -2.529370   -0.876008    0.963120
 ---------------------------------------------------------------------

 SCF Done:  E(RB2PLYPD3) =  -157.746153484     A.U. after   11 cycles
 E2(B2PLYPD3) =    -0.2575472720D+00 E(B2PLYPD3) =    -0.15800370075613D+03

 The electronic state is 1-A.
 Alpha  occ. eigenvalues --  -10.65337 -10.63200 -10.62912 -10.61887  -0.96517
 Alpha  occ. eigenvalues --   -0.86244  -0.75493  -0.64115  -0.55109  -0.49511
 Alpha  occ. eigenvalues --   -0.48143  -0.47633  -0.41965  -0.40859  -0.37848
 Alpha  occ. eigenvalues --   -0.34066  -0.33987
 Alpha virt. eigenvalues --    0.03416   0.04574   0.05641   0.07213   0.09596
 Alpha virt. eigenvalues --    0.10117   0.11406   0.11692   0.13915   0.14484
 Alpha virt. eigenvalues --    0.15209   0.16530   0.16676   0.19115   0.20889

 Mulliken charges:
               1
     1  C   -0.160512
     2  C   -0.039644
     3  H    0.054218
     4  H    0.046467
     5  H    0.056517
     6  C   -0.291605
     7  H   -0.012746
     8  H    0.051976
     9  C   -0.201135
    10  H    0.270890
    11  H   -0.008313
    12  H    0.117282
    13  H    0.061932
    14  H    0.054672
 Sum of Mulliken charges =   0.00000

 Dipole moment (field-independent basis, Debye):
    X=              0.0334    Y=             -0.4214    Z=             -0.9529  Tot=              1.0425
 Quadrupole moment (field-independent basis, Debye-Ang):
   XX=            -30.7664   YY=            -31.1971   ZZ=            -28.7771
   XY=             -0.0922   XZ=              1.0978   YZ=             -0.2556

 Normal termination of Gaussian 09 at Wed Aug 26 14:43:44 2020.
