 Gaussian 09, Revision D.01,
 Gaussian 09:  ES64L-G09RevD.01 24-Apr-2013

 --------------------
 #p B2PLYPD3/Def2QZVP
 --------------------

 ----------
 butane_opt
 ----------
 Symbolic Z-matrix:
 Charge =  0 Multiplicity = 1

                         Standard orientation:
 ---------------------------------------------------------------------
 Center     Atomic      Atomic             Coordinates (Angstroms)
 Number     Number       Type             X           Y           Z
 ---------------------------------------------------------------------
      1          6           0        1.820161    0.043576   -0.001963
      2          6           0        0.582544   -0.482049   -0.062901
      3          1           0        2.697272   -0.782842    0.531898
      4          1           0        1.824372    0.408516    0.773604
      5          1           0        2.537858    1.095667   -1.066513
      6          6           0       -0.480199    0.549698   -0.003615
      7          1           0        0.456598   -1.075737    0.783654
      8          1           0        0.431959   -1.126658   -0.893042
      9          6           0       -1.971302   -0.120315    0.004693
     10          1           0       -0.181975    0.946456   -0.814117
     11          1           0       -0.452399    1.534940    1.171003
     12          1           0       -2.343340   -0.802893   -0.905077
     13          1           0       -2.630542    0.641250   -0.130188
     14          1           0       -2.047026   -0.784156    0.931494
 ---------------------------------------------------------------------

 SCF Done:  E(RB2PLYPD3) =  -157.810224756     A.U. after   11 cycles
 E2(B2PLYPD3) =    -0.2544715507D+00 E(B2PLYPD3) =    -0.15806469630692D+03

 The electronic state is 1-A.
 Alpha  occ. eigenvalues --  -10.63737 -10.62700 -10.62224 -10.59573  -0.96793
 Alpha  occ. eigenvalues --   -0.84095  -0.74799  -0.67838  -0.56792  -0.49910
 Alpha  occ. eigenvalues --   -0.49370  -0.46997  -0.42829  -0.40020  -0.37394
 Alpha  occ. eigenvalues --   -0.36196  -0.33918
 Alpha virt. eigenvalues --    0.02705   0.04404   0.05954   0.06599   0.09974
 Alpha virt. eigenvalues --    0.10480   0.12176   0.12666   0.14084   0.14594
 Alpha virt. eigenvalues --    0.15288   0.16313   0.19046   0.19341   0.20054

 Mulliken charges:
               1
     1  C   -0.279288
     2  C   -0.014286
     3  H    0.015178
     4  H    0.191789
     5  H    0.003354
     6  C   -0.101485
     7  H    0.041702
     8  H    0.053113
     9  C   -0.148757
    10  H    0.109745
    11  H   -0.016065
    12  H    0.018249
    13  H    0.071151
    14  H    0.055602
 Sum of Mulliken charges =   0.00000

 Dipole moment (field-independent basis, Debye):
    X=             -0.6249    Y=             -0.4774    Z=              0.2774  Tot=              0.8339
 Quadrupole moment (field-independent basis, Debye-Ang):
   XX=            -31.4616   YY=            -30.0466   ZZ=            -28.6154
   XY=              0.0420   XZ=              1.5774   YZ=             -0.6726

 Normal termination of Gaussian 09 at Wed Aug 26 14:19:35 2020.
