 Gaussian 09, Revision D.01,
 Gaussian 09:  ES64L-G09RevD.01 24-Apr-2013

 --------------------
 #p B2PLYPD3/Def2QZVP
 --------------------

 ----------
 butane_opt
 ----------
 Symbolic Z-matrix:
 Charge =  0 Multiplicity = 1

                         Standard orientation:
 ---------------------------------------------------------------------
 Center     Atomic      Atomic             Coordinates (Angstroms)
 Number     Number       Type             X           Y           Z
 ---------------------------------------------------------------------
      1          6           0       -2.000768    0.103414   -0.145184
      2          6           0       -0.618301   -0.479916    0.129076
      3          1           0       -2.978771   -0.739050   -0.419671
      4          1           0       -1.663222    0.657990   -0.927960
      5          1           0       -2.397448    0.675278    0.684930
      6          6           0        0.633159    0.570007    0.131501
      7          1           0       -0.367352   -0.866122   -0.559391
      8          1           0       -0.757267   -1.229200    1.191529
      9          6           0        2.003031   -0.205154   -0.137110
     10          1           0        0.399702    1.484246    1.229016
     11          1           0        0.409164    1.035070   -0.568213
     12          1           0        2.622262   -0.948085    0.739465
     13          1           0        2.760024    0.555013   -0.506039
     14          1           0        1.870189   -0.555252   -0.733364
 ---------------------------------------------------------------------

 SCF Done:  E(RB2PLYPD3) =  -157.644824484     A.U. after   11 cycles
 E2(B2PLYPD3) =    -0.2507703795D+00 E(B2PLYPD3) =    -0.15789559486382D+03

 The electronic state is 1-A.
 Alpha  occ. eigenvalues --  -10.63428 -10.61478 -10.60469 -10.60414  -0.93568
 Alpha  occ. eigenvalues --   -0.86773  -0.76034  -0.69650  -0.54424  -0.51263
 Alpha  occ. eigenvalues --   -0.48313  -0.48060  -0.43244  -0.41975  -0.38582
 Alpha  occ. eigenvalues --   -0.36460  -0.34738
 Alpha virt. eigenvalues --    0.04602   0.06085   0.08007   0.08443   0.10097
 Alpha virt. eigenvalues --    0.11190   0.11851   0.12515   0.14837   0.15484
 Alpha virt. eigenvalues --    0.15779   0.16684   0.18166   0.18861   0.20291

 Mulliken charges:
               1
     1  C   -0.150860
     2  C   -0.237295
     3  H    0.029043
     4  H    0.060388
     5  H    0.060316
     6  C   -0.160856
     7  H    0.228086
     8  H    0.010681
     9  C   -0.586088
    10  H   -0.000354
    11  H    0.179120
    12  H    0.065091
    13  H    0.061381
    14  H    0.441346
 Sum of Mulliken charges =   0.00000

 Dipole moment (field-independent basis, Debye):
    X=              0.2321    Y=             -0.0531    Z=             -0.8754  Tot=              0.9072
 Quadrupole moment (field-independent basis, Debye-Ang):
   XX=            -28.9958   YY=            -29.9104   ZZ=            -28.5474
   XY=             -0.4428   XZ=             -1.4273   YZ=             -0.2558

 Normal termination of Gaussian 09 at Wed Aug 26 16:27:17 2020.
