 Gaussian 09, Revision D.01,
 Gaussian 09:  ES64L-G09RevD.01 24-Apr-2013

 --------------------
 #p B2PLYPD3/Def2QZVP
 --------------------

 ----------
 butane_opt
 ----------
 Symbolic Z-matrix:
 Charge =  0 Multiplicity = 1

                         Standard orientation:
 ---------------------------------------------------------------------
 Center     Atomic      Atomic             Coordinates (Angstroms)
 Number     Number       Type             X           Y           Z
 ---------------------------------------------------------------------
      1          6           0        1.997051   -0.170709   -0.070656
      2          6           0        0.575029    0.583858    0.057831
      3          1           0        2.712834    0.517578   -0.463474
      4          1           0        1.906649   -0.585088   -0.823630
      5          1           0        2.403090   -0.991054    0.947218
      6          6           0       -0.621131   -0.480059    0.063536
      7          1           0        0.449308    0.970256   -0.607073
      8          1           0        0.492350    1.444251    1.110551
      9          6           0       -1.999708    0.089246   -0.032260
     10          1           0       -0.503196   -1.079029    0.956101
     11          1           0       -0.385030   -1.036780   -0.769955
     12          1           0       -2.037456    0.589612    0.731325
     13          1           0       -2.821532   -0.655166   -0.173282
     14          1           0       -1.924461    0.691408   -1.018483
 ---------------------------------------------------------------------

 SCF Done:  E(RB2PLYPD3) =  -157.845816965     A.U. after   11 cycles
 E2(B2PLYPD3) =    -0.2477527018D+00 E(B2PLYPD3) =    -0.15809356966640D+03

 The electronic state is 1-A.
 Alpha  occ. eigenvalues --  -10.60805 -10.60516 -10.59574 -10.58705  -0.92427
 Alpha  occ. eigenvalues --   -0.85503  -0.75888  -0.68983  -0.55598  -0.50298
 Alpha  occ. eigenvalues --   -0.48245  -0.47796  -0.43274  -0.41290  -0.39052
 Alpha  occ. eigenvalues --   -0.38022  -0.35898
 Alpha virt. eigenvalues --    0.05204   0.06599   0.07990   0.08885   0.10738
 Alpha virt. eigenvalues --    0.11596   0.12671   0.12943   0.14917   0.15163
 Alpha virt. eigenvalues --    0.16158   0.16802   0.18706   0.19194   0.21026

 Mulliken charges:
               1
     1  C   -0.245734
     2  C   -0.324327
     3  H    0.043501
     4  H    0.151200
     5  H    0.044945
     6  C   -0.045103
     7  H    0.298525
     8  H   -0.001026
     9  C   -0.173834
    10  H    0.036788
    11  H    0.047820
    12  H    0.096885
    13  H    0.047854
    14  H    0.022506
 Sum of Mulliken charges =   0.00000

 Dipole moment (field-independent basis, Debye):
    X=             -0.0446    Y=             -0.2159    Z=             -0.6296  Tot=              0.6671
 Quadrupole moment (field-independent basis, Debye-Ang):
   XX=            -29.5985   YY=            -29.5204   ZZ=            -27.4709
   XY=              0.3616   XZ=             -1.1559   YZ=             -0.5008

 Normal termination of Gaussian 09 at Thu Aug 27 00:47:08 2020.
