 Gaussian 09, Revision D.01,
 Gaussian 09:  ES64L-G09RevD.01 24-Apr-2013

 --------------------
 #p B2PLYPD3/Def2QZVP
 --------------------

 ----------
 butane_opt
 ----------
 Symbolic Z-matrix:
 Charge =  0 Multiplicity = 1

                         Standard orientation:
 ---------------------------------------------------------------------
 Center     Atomic      Atomic             Coordinates (Angstroms)
 Number     Number       Type             X           Y           Z
 ---------------------------------------------------------------------
      1          6           0        1.956429   -0.211848   -0.101494
      2          6           0        0.546710    0.559856    0.079735
      3          1           0        2.741858    0.662396    0.048891
      4          1           0        2.134756   -0.980235   -0.962174
      5          1           0        2.055730   -0.504020    0.494381
      6          6           0       -0.588323   -0.418895    0.197562
      7          1           0        0.116694    1.275954   -0.765955
      8          1           0        0.234568    1.326029    0.967553
      9          6           0       -1.848906    0.051592   -0.242359
     10          1           0       -0.733024   -1.458831    1.535665
     11          1           0       -0.316688   -0.830067   -0.445739
     12          1           0       -2.301443    1.085959    0.862194
     13          1           0       -2.762026   -0.870344   -0.486815
     14          1           0       -1.565881    0.408928   -0.848670
 ---------------------------------------------------------------------

 SCF Done:  E(RB2PLYPD3) =  -157.362417891     A.U. after   12 cycles
 E2(B2PLYPD3) =    -0.2563632253D+00 E(B2PLYPD3) =    -0.15761878111649D+03

 The electronic state is 1-A.
 Alpha  occ. eigenvalues --  -10.64995 -10.63166 -10.61810 -10.60402  -0.98534
 Alpha  occ. eigenvalues --   -0.89317  -0.77957  -0.68701  -0.56015  -0.52464
 Alpha  occ. eigenvalues --   -0.49659  -0.47644  -0.44409  -0.41168  -0.38732
 Alpha  occ. eigenvalues --   -0.34516  -0.32825
 Alpha virt. eigenvalues --    0.01706   0.04962   0.05823   0.07983   0.08783
 Alpha virt. eigenvalues --    0.10341   0.11713   0.13277   0.13965   0.14365
 Alpha virt. eigenvalues --    0.14995   0.16079   0.17082   0.19125   0.19518

 Mulliken charges:
               1
     1  C   -0.644497
     2  C   -0.048690
     3  H    0.068671
     4  H    0.078759
     5  H    0.505376
     6  C   -0.257673
     7  H    0.028680
     8  H    0.047897
     9  C   -0.454546
    10  H   -0.052978
    11  H    0.315967
    12  H   -0.014915
    13  H    0.073703
    14  H    0.354246
 Sum of Mulliken charges =   0.00000

 Dipole moment (field-independent basis, Debye):
    X=              0.7896    Y=             -0.1346    Z=             -1.1165  Tot=              1.3741
 Quadrupole moment (field-independent basis, Debye-Ang):
   XX=            -30.2322   YY=            -30.0251   ZZ=            -29.6679
   XY=              0.2562   XZ=              1.3180   YZ=              1.3923

 Normal termination of Gaussian 09 at Wed Aug 26 22:44:40 2020.
