 Gaussian 09, Revision D.01,
 Gaussian 09:  ES64L-G09RevD.01 24-Apr-2013

 --------------------
 #p B2PLYPD3/Def2QZVP
 --------------------

 ----------
 butane_opt
 ----------
 Symbolic Z-matrix:
 Charge =  0 Multiplicity = 1

                         Standard orientation:
 ---------------------------------------------------------------------
 Center     Atomic      Atomic             Coordinates (Angstroms)
 Number     Number       Type             X           Y           Z
 ---------------------------------------------------------------------
      1          6           0       -2.008101   -0.146806   -0.264377
      2          6           0       -0.540415    0.593686    0.223640
      3          1           0       -2.515731    0.173018   -0.577506
      4          1           0       -2.720743   -0.996316    0.873472
      5          1           0       -1.823101   -0.468726   -0.838709
      6          6           0        0.675179   -0.473018    0.175191
      7          1           0       -0.718294    1.711062    1.215881
      8          1           0       -0.292137    0.881798   -0.340026
      9          6           0        1.921373    0.051105   -0.151917
     10          1           0        0.429263   -0.882524   -0.581790
     11          1           0        0.442000   -1.227185    1.096122
     12          1           0        2.057664    0.849729   -1.262458
     13          1           0        2.809699   -0.779773    0.066509
     14          1           0        2.043170    0.589120    0.453275
 ---------------------------------------------------------------------

 SCF Done:  E(RB2PLYPD3) =  -156.981440954     A.U. after   12 cycles
 E2(B2PLYPD3) =    -0.2530186024D+00 E(B2PLYPD3) =    -0.15723445955646D+03

 The electronic state is 1-A.
 Alpha  occ. eigenvalues --  -10.62381 -10.60789 -10.60254 -10.58211  -0.97242
 Alpha  occ. eigenvalues --   -0.93109  -0.82793  -0.71715  -0.55097  -0.54327
 Alpha  occ. eigenvalues --   -0.49778  -0.47399  -0.44969  -0.40638  -0.37722
 Alpha  occ. eigenvalues --   -0.35884  -0.35221
 Alpha virt. eigenvalues --    0.03542   0.05004   0.06557   0.07246   0.09117
 Alpha virt. eigenvalues --    0.10989   0.12601   0.12979   0.13782   0.15087
 Alpha virt. eigenvalues --    0.15698   0.16485   0.17964   0.19569   0.20432

 Mulliken charges:
               1
     1  C   -0.748519
     2  C   -0.679147
     3  H    0.363182
     4  H    0.004741
     5  H    0.358908
     6  C   -0.109648
     7  H    0.017031
     8  H    0.615338
     9  C   -0.345525
    10  H    0.147709
    11  H    0.044877
    12  H    0.027287
    13  H    0.056192
    14  H    0.247573
 Sum of Mulliken charges =   0.00000

 Dipole moment (field-independent basis, Debye):
    X=              0.4244    Y=              0.0431    Z=             -0.8408  Tot=              0.9428
 Quadrupole moment (field-independent basis, Debye-Ang):
   XX=            -29.3876   YY=            -29.2431   ZZ=            -27.7757
   XY=             -0.3094   XZ=              1.9152   YZ=             -0.6726

 Normal termination of Gaussian 09 at Wed Aug 26 14:16:37 2020.
