 Gaussian 09, Revision D.01,
 Gaussian 09:  ES64L-G09RevD.01 24-Apr-2013

 --------------------
 #p B2PLYPD3/Def2QZVP
 --------------------

 ----------
 butane_opt
 ----------
 Symbolic Z-matrix:
 Charge =  0 Multiplicity = 1

                         Standard orientation:
 ---------------------------------------------------------------------
 Center     Atomic      Atomic             Coordinates (Angstroms)
 Number     Number       Type             X           Y           Z
 ---------------------------------------------------------------------
      1          6           0       -2.005253    0.122017   -0.009027
      2          6           0       -0.529738   -0.475316    0.164925
      3          1           0       -2.796036   -0.725250   -0.581543
      4          1           0       -1.617612    0.423908   -0.832970
      5          1           0       -2.402958    1.230164    0.924708
      6          6           0        0.535857    0.376201   -0.147313
      7          1           0       -0.473111   -1.106886   -0.533504
      8          1           0       -0.182938   -1.156254    1.320388
      9          6           0        1.910001   -0.075202   -0.015728
     10          1           0        0.774432    1.388608    0.728541
     11          1           0        0.378153    0.919920   -1.006372
     12          1           0        2.015821   -0.440324    0.716707
     13          1           0        2.774270    0.573753    0.154905
     14          1           0        2.064778   -0.793838   -0.848004
 ---------------------------------------------------------------------

 SCF Done:  E(RB2PLYPD3) =  -157.803230131     A.U. after   11 cycles
 E2(B2PLYPD3) =    -0.2540797175D+00 E(B2PLYPD3) =    -0.15805730984811D+03

 The electronic state is 1-A.
 Alpha  occ. eigenvalues --  -10.65265 -10.62917 -10.61742 -10.57150  -0.95877
 Alpha  occ. eigenvalues --   -0.86783  -0.75410  -0.67142  -0.55666  -0.51530
 Alpha  occ. eigenvalues --   -0.49474  -0.47638  -0.42784  -0.41201  -0.39374
 Alpha  occ. eigenvalues --   -0.35678  -0.32456
 Alpha virt. eigenvalues --    0.03444   0.05195   0.07287   0.07556   0.09501
 Alpha virt. eigenvalues --    0.10125   0.12185   0.13361   0.14121   0.14824
 Alpha virt. eigenvalues --    0.15886   0.16647   0.18626   0.19704   0.20286

 Mulliken charges:
               1
     1  C   -0.236987
     2  C   -0.097481
     3  H    0.047764
     4  H    0.127147
     5  H    0.059186
     6  C    0.024829
     7  H    0.113046
     8  H   -0.011300
     9  C   -0.256612
    10  H   -0.052028
    11  H    0.050000
    12  H    0.170014
    13  H    0.041689
    14  H    0.020733
 Sum of Mulliken charges =   0.00000

 Dipole moment (field-independent basis, Debye):
    X=              0.3894    Y=             -0.1986    Z=             -0.7530  Tot=              0.8707
 Quadrupole moment (field-independent basis, Debye-Ang):
   XX=            -29.8828   YY=            -30.3804   ZZ=            -28.6551
   XY=              0.2457   XZ=              1.8507   YZ=              1.1016

 Normal termination of Gaussian 09 at Wed Aug 26 18:42:57 2020.
