 Gaussian 09, Revision D.01,
 Gaussian 09:  ES64L-G09RevD.01 24-Apr-2013

 --------------------
 #p B2PLYPD3/Def2QZVP
 --------------------

 ----------
 butane_opt
 ----------
 Symbolic Z-matrix:
 Charge =  0 Multiplicity = 1

                         Standard orientation:
 ---------------------------------------------------------------------
 Center     Atomic      Atomic             Coordinates (Angstroms)
 Number     Number       Type             X           Y           Z
 ---------------------------------------------------------------------
      1          6           0        1.935368    0.022266    0.097581
      2          6           0        0.553792   -0.495740   -0.069142
      3          1           0        2.934610   -0.925053   -0.457597
      4          1           0        2.203883    1.329418    1.400420
      5          1           0        1.908795    0.245220   -0.455791
      6          6           0       -0.537802    0.652450   -0.152747
      7          1           0        0.280734   -1.292775    0.875826
      8          1           0        0.650832   -1.004507   -0.954397
      9          6           0       -2.013963   -0.119417    0.092474
     10          1           0       -0.386786    1.421667   -1.086713
     11          1           0       -0.156860    1.253220    0.575806
     12          1           0       -1.980481   -0.579105   -0.766152
     13          1           0       -2.591849    0.185219   -0.106179
     14          1           0       -2.487247   -0.990657    1.165784
 ---------------------------------------------------------------------

 SCF Done:  E(RB2PLYPD3) =  -157.052712033     A.U. after   13 cycles
 E2(B2PLYPD3) =    -0.2596148932D+00 E(B2PLYPD3) =    -0.15731232692615D+03

 The electronic state is 1-A.
 Alpha  occ. eigenvalues --  -10.65204 -10.64308 -10.63273 -10.59860  -0.96298
 Alpha  occ. eigenvalues --   -0.89836  -0.79560  -0.68483  -0.54192  -0.51771
 Alpha  occ. eigenvalues --   -0.46223  -0.45678  -0.40768  -0.39620  -0.39044
 Alpha  occ. eigenvalues --   -0.37264  -0.33950
 Alpha virt. eigenvalues --   -0.01908   0.04191   0.04537   0.06855   0.08854
 Alpha virt. eigenvalues --    0.10283   0.11714   0.12581   0.13972   0.15517
 Alpha virt. eigenvalues --    0.15692   0.16848   0.17224   0.18168   0.19716

 Mulliken charges:
               1
     1  C   -0.916682
     2  C    0.048168
     3  H    0.032945
     4  H   -0.000518
     5  H    0.753161
     6  C   -0.064874
     7  H    0.037150
     8  H    0.050210
     9  C   -0.555826
    10  H    0.021572
    11  H    0.066642
    12  H    0.062179
    13  H    0.419921
    14  H    0.045953
 Sum of Mulliken charges =   0.00000

 Dipole moment (field-independent basis, Debye):
    X=             -0.8269    Y=              0.1039    Z=             -1.2490  Tot=              1.5015
 Quadrupole moment (field-independent basis, Debye-Ang):
   XX=            -31.1932   YY=            -29.4676   ZZ=            -28.4740
   XY=              0.0424   XZ=             -1.3504   YZ=              0.1142

 Normal termination of Gaussian 09 at Wed Aug 26 14:35:13 2020.
