 Gaussian 09, Revision D.01,
 Gaussian 09:  ES64L-G09RevD.01 24-Apr-2013

 --------------------
 #p B2PLYPD3/Def2QZVP
 --------------------

 ----------
 butane_opt
 ----------
 Symbolic Z-matrix:
 Charge =  0 Multiplicity = 1

                         Standard orientation:
 ---------------------------------------------------------------------
 Center     Atomic      Atomic             Coordinates (Angstroms)
 Number     Number       Type             X           Y           Z
 ---------------------------------------------------------------------
      1          6           0       -1.890138    0.047149    0.146974
      2          6           0       -0.538507   -0.464699   -0.258352
      3          1           0       -2.623984   -0.867733    0.653678
      4          1           0       -2.580722    0.982769   -0.773551
      5          1           0       -1.621917    0.648013    1.246766
      6          6           0        0.520639    0.568235   -0.175414
      7          1           0       -0.511834   -1.277205   -1.369219
      8          1           0       -0.273341   -1.028929    0.418102
      9          6           0        1.951821   -0.160421    0.148173
     10          1           0        0.106138    1.235902    0.841698
     11          1           0        0.436073    1.253876   -0.966017
     12          1           0        1.645901   -0.956448    1.156159
     13          1           0        2.802067    0.558762    0.259310
     14          1           0        2.358733   -0.490594   -0.635206
 ---------------------------------------------------------------------

 SCF Done:  E(RB2PLYPD3) =  -157.887463475     A.U. after   11 cycles
 E2(B2PLYPD3) =    -0.2555056609D+00 E(B2PLYPD3) =    -0.15814296913602D+03

 The electronic state is 1-A.
 Alpha  occ. eigenvalues --  -10.67385 -10.62907 -10.62385 -10.61591  -0.92486
 Alpha  occ. eigenvalues --   -0.82108  -0.72227  -0.65918  -0.53783  -0.48327
 Alpha  occ. eigenvalues --   -0.46902  -0.46134  -0.40809  -0.39412  -0.37525
 Alpha  occ. eigenvalues --   -0.36424  -0.35805
 Alpha virt. eigenvalues --    0.03928   0.05525   0.05912   0.07942   0.09948
 Alpha virt. eigenvalues --    0.10150   0.11310   0.13112   0.14190   0.14363
 Alpha virt. eigenvalues --    0.15732   0.15944   0.18142   0.19346   0.20731

 Mulliken charges:
               1
     1  C   -0.181439
     2  C   -0.075530
     3  H    0.048044
     4  H    0.036371
     5  H    0.032403
     6  C   -0.048600
     7  H    0.000081
     8  H    0.124319
     9  C   -0.161264
    10  H    0.010582
    11  H    0.059304
    12  H    0.047900
    13  H    0.034764
    14  H    0.073067
 Sum of Mulliken charges =   0.00000

 Dipole moment (field-independent basis, Debye):
    X=              0.5895    Y=             -0.1293    Z=              0.0613  Tot=              0.6066
 Quadrupole moment (field-independent basis, Debye-Ang):
   XX=            -30.6254   YY=            -30.1920   ZZ=            -29.2182
   XY=              0.3526   XZ=             -1.4236   YZ=             -1.2631

 Normal termination of Gaussian 09 at Wed Aug 26 14:00:28 2020.
