 Gaussian 09, Revision D.01,
 Gaussian 09:  ES64L-G09RevD.01 24-Apr-2013

 --------------------
 #p B2PLYPD3/Def2QZVP
 --------------------

 ----------
 butane_opt
 ----------
 Symbolic Z-matrix:
 Charge =  0 Multiplicity = 1

                         Standard orientation:
 ---------------------------------------------------------------------
 Center     Atomic      Atomic             Coordinates (Angstroms)
 Number     Number       Type             X           Y           Z
 ---------------------------------------------------------------------
      1          6           0        1.914802    0.077919   -0.013403
      2          6           0        0.560093   -0.456388    0.010283
      3          1           0        2.767867   -0.719009   -0.140002
      4          1           0        2.113026    0.672039    0.874940
      5          1           0        1.898087    0.828687   -1.015567
      6          6           0       -0.515497    0.536993    0.105916
      7          1           0        0.619631   -1.072645    0.799113
      8          1           0        0.352809   -1.208999   -0.948645
      9          6           0       -1.967000   -0.181960   -0.028737
     10          1           0       -0.297051    1.188139   -0.779145
     11          1           0       -0.424652    1.209638    0.995411
     12          1           0       -2.002098   -0.544256   -0.763593
     13          1           0       -2.796442    0.733758   -0.395256
     14          1           0       -2.185568   -0.946738    0.928395
 ---------------------------------------------------------------------

 SCF Done:  E(RB2PLYPD3) =  -157.962751263     A.U. after   11 cycles
 E2(B2PLYPD3) =    -0.2494653686D+00 E(B2PLYPD3) =    -0.15821221663184D+03

 The electronic state is 1-A.
 Alpha  occ. eigenvalues --  -10.62024 -10.61690 -10.61261 -10.60136  -0.92605
 Alpha  occ. eigenvalues --   -0.83807  -0.73801  -0.66069  -0.54920  -0.49827
 Alpha  occ. eigenvalues --   -0.48286  -0.47312  -0.42469  -0.40256  -0.38239
 Alpha  occ. eigenvalues --   -0.37229  -0.36438
 Alpha virt. eigenvalues --    0.05207   0.06224   0.07725   0.08258   0.10467
 Alpha virt. eigenvalues --    0.11488   0.12555   0.12899   0.14337   0.14994
 Alpha virt. eigenvalues --    0.15681   0.16536   0.19295   0.19441   0.20719

 Mulliken charges:
               1
     1  C   -0.153183
     2  C   -0.013473
     3  H    0.049677
     4  H    0.059213
     5  H    0.010252
     6  C   -0.026777
     7  H    0.041598
     8  H    0.001912
     9  C   -0.328017
    10  H    0.029258
    11  H    0.037986
    12  H    0.213175
    13  H    0.018718
    14  H    0.059661
 Sum of Mulliken charges =   0.00000

 Dipole moment (field-independent basis, Debye):
    X=              0.1781    Y=             -0.2824    Z=              0.1263  Tot=              0.3570
 Quadrupole moment (field-independent basis, Debye-Ang):
   XX=            -31.1859   YY=            -29.2882   ZZ=            -28.2323
   XY=             -0.2107   XZ=              1.3914   YZ=             -0.2009

 Normal termination of Gaussian 09 at Wed Aug 26 10:00:00 2020.
