 Gaussian 09, Revision D.01,
 Gaussian 09:  ES64L-G09RevD.01 24-Apr-2013

 --------------------
 #p B2PLYPD3/Def2QZVP
 --------------------

 ----------
 butane_opt
 ----------
 Symbolic Z-matrix:
 Charge =  0 Multiplicity = 1

                         Standard orientation:
 ---------------------------------------------------------------------
 Center     Atomic      Atomic             Coordinates (Angstroms)
 Number     Number       Type             X           Y           Z
 ---------------------------------------------------------------------
      1          6           0        1.988750    0.106297    0.021425
      2          6           0        0.590919   -0.555361    0.045212
      3          1           0        2.793028   -0.751405   -0.161205
      4          1           0        2.043031    0.529080    0.716598
      5          1           0        2.058774    0.827752   -0.917353
      6          6           0       -0.539463    0.627685    0.015935
      7          1           0        0.363958   -1.166402    1.016963
      8          1           0        0.553616   -1.078658   -0.826757
      9          6           0       -1.983218   -0.144500   -0.056366
     10          1           0       -0.169167    1.010921   -0.757603
     11          1           0       -0.525167    1.425593    0.916580
     12          1           0       -2.312925   -0.733215   -0.757599
     13          1           0       -2.694277    0.357538   -0.133111
     14          1           0       -2.452799   -0.625938    0.746245
 ---------------------------------------------------------------------

 SCF Done:  E(RB2PLYPD3) =  -157.889094510     A.U. after   11 cycles
 E2(B2PLYPD3) =    -0.2475541868D+00 E(B2PLYPD3) =    -0.15813664869640D+03

 The electronic state is 1-A.
 Alpha  occ. eigenvalues --  -10.61906 -10.60855 -10.58775 -10.55882  -0.90638
 Alpha  occ. eigenvalues --   -0.85900  -0.77370  -0.68232  -0.55058  -0.50380
 Alpha  occ. eigenvalues --   -0.47617  -0.45610  -0.44383  -0.42081  -0.40758
 Alpha  occ. eigenvalues --   -0.38997  -0.34044
 Alpha virt. eigenvalues --    0.05795   0.06709   0.08385   0.09240   0.10630
 Alpha virt. eigenvalues --    0.11841   0.13588   0.14281   0.15146   0.15454
 Alpha virt. eigenvalues --    0.16515   0.16739   0.18884   0.19854   0.21509

 Mulliken charges:
               1
     1  C   -0.308212
     2  C   -0.054723
     3  H    0.045330
     4  H    0.200708
     5  H    0.027645
     6  C   -0.117765
     7  H    0.034620
     8  H    0.072285
     9  C   -0.155913
    10  H    0.100982
    11  H    0.029033
    12  H    0.024869
    13  H    0.082167
    14  H    0.018974
 Sum of Mulliken charges =   0.00000

 Dipole moment (field-independent basis, Debye):
    X=             -0.2772    Y=              0.1232    Z=             -0.1325  Tot=              0.3310
 Quadrupole moment (field-independent basis, Debye-Ang):
   XX=            -27.9138   YY=            -28.9107   ZZ=            -27.8524
   XY=              0.2614   XZ=             -0.2431   YZ=              0.5166

 Normal termination of Gaussian 09 at Wed Aug 26 12:05:18 2020.
