 Gaussian 09, Revision D.01,
 Gaussian 09:  ES64L-G09RevD.01 24-Apr-2013

 --------------------
 #p B2PLYPD3/Def2QZVP
 --------------------

 ----------
 butane_opt
 ----------
 Symbolic Z-matrix:
 Charge =  0 Multiplicity = 1

                         Standard orientation:
 ---------------------------------------------------------------------
 Center     Atomic      Atomic             Coordinates (Angstroms)
 Number     Number       Type             X           Y           Z
 ---------------------------------------------------------------------
      1          6           0        2.002651    0.100076   -0.136913
      2          6           0        0.644121   -0.425002    0.181557
      3          1           0        3.010705   -0.905845   -0.666143
      4          1           0        2.219938    1.030543    0.818835
      5          1           0        1.489509    0.572529   -0.944533
      6          6           0       -0.541416    0.613413    0.049936
      7          1           0        0.860149   -1.347037    1.381136
      8          1           0        0.449178   -1.082153   -0.575439
      9          6           0       -2.054429   -0.181594   -0.112715
     10          1           0       -0.413613    0.879856   -0.748910
     11          1           0       -0.626287    1.516140    1.001329
     12          1           0       -2.359021   -0.848795   -0.861357
     13          1           0       -2.770844    0.415892   -0.315413
     14          1           0       -2.165269   -0.872494    1.019311
 ---------------------------------------------------------------------

 SCF Done:  E(RB2PLYPD3) =  -157.779361651     A.U. after   11 cycles
 E2(B2PLYPD3) =    -0.2572944031D+00 E(B2PLYPD3) =    -0.15803665605437D+03

 The electronic state is 1-A.
 Alpha  occ. eigenvalues --  -10.66274 -10.64803 -10.64140 -10.61954  -0.92857
 Alpha  occ. eigenvalues --   -0.83445  -0.75329  -0.64840  -0.53889  -0.48226
 Alpha  occ. eigenvalues --   -0.47977  -0.46375  -0.41649  -0.40875  -0.36903
 Alpha  occ. eigenvalues --   -0.36632  -0.32670
 Alpha virt. eigenvalues --    0.02204   0.05462   0.06337   0.07240   0.09437
 Alpha virt. eigenvalues --    0.10029   0.11152   0.11599   0.13020   0.14732
 Alpha virt. eigenvalues --    0.15335   0.16145   0.18183   0.18607   0.20476

 Mulliken charges:
               1
     1  C   -0.171020
     2  C   -0.061260
     3  H    0.052384
     4  H    0.044921
     5  H    0.053962
     6  C   -0.228114
     7  H   -0.039429
     8  H    0.102146
     9  C   -0.162261
    10  H    0.222693
    11  H    0.042312
    12  H    0.033464
    13  H    0.070084
    14  H    0.040120
 Sum of Mulliken charges =   0.00000

 Dipole moment (field-independent basis, Debye):
    X=             -0.5779    Y=              0.4715    Z=             -1.1587  Tot=              1.3780
 Quadrupole moment (field-independent basis, Debye-Ang):
   XX=            -30.8282   YY=            -30.2393   ZZ=            -29.5486
   XY=             -1.1025   XZ=              0.8756   YZ=              1.6310

 Normal termination of Gaussian 09 at Wed Aug 26 21:30:39 2020.
