 Gaussian 09, Revision D.01,
 Gaussian 09:  ES64L-G09RevD.01 24-Apr-2013

 --------------------
 #p B2PLYPD3/Def2QZVP
 --------------------

 ----------
 butane_opt
 ----------
 Symbolic Z-matrix:
 Charge =  0 Multiplicity = 1

                         Standard orientation:
 ---------------------------------------------------------------------
 Center     Atomic      Atomic             Coordinates (Angstroms)
 Number     Number       Type             X           Y           Z
 ---------------------------------------------------------------------
      1          6           0       -2.017526    0.175017    0.192659
      2          6           0       -0.475657   -0.501016   -0.199319
      3          1           0       -2.800166   -0.566707    0.532198
      4          1           0       -2.520756    0.917470   -0.891645
      5          1           0       -1.656650    0.391918    0.680761
      6          6           0        0.596805    0.387320   -0.179095
      7          1           0       -0.546929   -1.381980   -1.225251
      8          1           0       -0.175468   -1.005632    0.692221
      9          6           0        1.848693   -0.103022    0.122375
     10          1           0        0.327104    1.471792    0.819751
     11          1           0        0.744825    0.865792   -0.965041
     12          1           0        1.961377   -0.848002    1.336321
     13          1           0        2.774621    0.906951    0.005636
     14          1           0        2.178148   -0.501398   -0.604667
 ---------------------------------------------------------------------

 SCF Done:  E(RB2PLYPD3) =  -157.467447298     A.U. after   12 cycles
 E2(B2PLYPD3) =    -0.2564475719D+00 E(B2PLYPD3) =    -0.15772389486989D+03

 The electronic state is 1-A.
 Alpha  occ. eigenvalues --  -10.63837 -10.63428 -10.61803 -10.61544  -0.96954
 Alpha  occ. eigenvalues --   -0.88504  -0.76853  -0.66772  -0.56730  -0.53666
 Alpha  occ. eigenvalues --   -0.47630  -0.46945  -0.43568  -0.40519  -0.37363
 Alpha  occ. eigenvalues --   -0.35570  -0.32524
 Alpha virt. eigenvalues --    0.03006   0.04956   0.06038   0.07138   0.09840
 Alpha virt. eigenvalues --    0.10232   0.11039   0.12245   0.13371   0.14181
 Alpha virt. eigenvalues --    0.15321   0.16571   0.18145   0.19269   0.20399

 Mulliken charges:
               1
     1  C   -0.686918
     2  C   -0.063084
     3  H    0.085696
     4  H    0.046737
     5  H    0.565286
     6  C   -0.016891
     7  H    0.011458
     8  H    0.047664
     9  C   -0.202733
    10  H   -0.039511
    11  H    0.079619
    12  H    0.026264
    13  H    0.018744
    14  H    0.127670
 Sum of Mulliken charges =   0.00000

 Dipole moment (field-independent basis, Debye):
    X=              0.0916    Y=             -0.3723    Z=             -0.5372  Tot=              0.6599
 Quadrupole moment (field-independent basis, Debye-Ang):
   XX=            -29.7834   YY=            -30.9223   ZZ=            -28.4238
   XY=              0.5205   XZ=             -1.2738   YZ=             -1.1012

 Normal termination of Gaussian 09 at Wed Aug 26 15:16:39 2020.
