 Gaussian 09, Revision D.01,
 Gaussian 09:  ES64L-G09RevD.01 24-Apr-2013

 --------------------
 #p B2PLYPD3/Def2QZVP
 --------------------

 ----------
 butane_opt
 ----------
 Symbolic Z-matrix:
 Charge =  0 Multiplicity = 1

                         Standard orientation:
 ---------------------------------------------------------------------
 Center     Atomic      Atomic             Coordinates (Angstroms)
 Number     Number       Type             X           Y           Z
 ---------------------------------------------------------------------
      1          6           0       -1.968077    0.120042    0.073717
      2          6           0       -0.528679   -0.549793   -0.014416
      3          1           0       -2.721408   -0.634028   -0.348354
      4          1           0       -2.113441    0.452400   -0.630801
      5          1           0       -2.296926    1.204541    1.141317
      6          6           0        0.548350    0.494965   -0.182428
      7          1           0       -0.550390   -1.270773   -0.843760
      8          1           0       -0.312776   -1.162863    0.943719
      9          6           0        1.954108   -0.110767    0.074923
     10          1           0        0.522885    1.266882    0.612886
     11          1           0        0.499703    1.150919   -1.107586
     12          1           0        1.940250   -0.748808    1.051763
     13          1           0        2.827126    0.701863    0.091973
     14          1           0        2.170766   -0.686813   -0.621930
 ---------------------------------------------------------------------

 SCF Done:  E(RB2PLYPD3) =  -157.883964704     A.U. after   11 cycles
 E2(B2PLYPD3) =    -0.2505467385D+00 E(B2PLYPD3) =    -0.15813451144256D+03

 The electronic state is 1-A.
 Alpha  occ. eigenvalues --  -10.62677 -10.61355 -10.61239 -10.59856  -0.91379
 Alpha  occ. eigenvalues --   -0.84941  -0.75190  -0.67311  -0.53181  -0.49269
 Alpha  occ. eigenvalues --   -0.48649  -0.45536  -0.41605  -0.39369  -0.39226
 Alpha  occ. eigenvalues --   -0.37959  -0.36224
 Alpha virt. eigenvalues --    0.03665   0.05972   0.07290   0.08026   0.10426
 Alpha virt. eigenvalues --    0.11065   0.12214   0.13284   0.14518   0.15286
 Alpha virt. eigenvalues --    0.15779   0.16263   0.18814   0.19528   0.21063

 Mulliken charges:
               1
     1  C   -0.389534
     2  C   -0.015876
     3  H    0.025674
     4  H    0.272506
     5  H    0.034324
     6  C   -0.026696
     7  H    0.032998
     8  H    0.037487
     9  C   -0.166208
    10  H    0.030360
    11  H    0.020485
    12  H    0.035022
    13  H    0.029919
    14  H    0.079538
 Sum of Mulliken charges =   0.00000

 Dipole moment (field-independent basis, Debye):
    X=              0.1630    Y=             -0.0891    Z=             -0.7665  Tot=              0.7887
 Quadrupole moment (field-independent basis, Debye-Ang):
   XX=            -30.8360   YY=            -28.7129   ZZ=            -28.4692
   XY=             -0.0115   XZ=              1.4963   YZ=              0.5538

 Normal termination of Gaussian 09 at Wed Aug 26 22:03:56 2020.
