 Gaussian 09, Revision D.01,
 Gaussian 09:  ES64L-G09RevD.01 24-Apr-2013

 --------------------
 #p B2PLYPD3/Def2QZVP
 --------------------

 ----------
 butane_opt
 ----------
 Symbolic Z-matrix:
 Charge =  0 Multiplicity = 1

                         Standard orientation:
 ---------------------------------------------------------------------
 Center     Atomic      Atomic             Coordinates (Angstroms)
 Number     Number       Type             X           Y           Z
 ---------------------------------------------------------------------
      1          6           0        2.000540    0.032331    0.114187
      2          6           0        0.631532   -0.474314   -0.067031
      3          1           0        2.758341   -0.707335   -0.297346
      4          1           0        2.167088    1.148476    1.295871
      5          1           0        1.828956    0.391396   -0.511884
      6          6           0       -0.573515    0.563762   -0.120908
      7          1           0        0.411221   -0.769302    0.445554
      8          1           0        0.490862   -1.239067   -1.153944
      9          6           0       -1.983764   -0.160675    0.098830
     10          1           0       -0.301674    1.342004   -0.994692
     11          1           0       -0.725216    1.187377    0.663142
     12          1           0       -2.162221   -0.406791   -0.496008
     13          1           0       -2.610836    0.492667   -0.508732
     14          1           0       -2.305283   -1.206051    1.407576
 ---------------------------------------------------------------------

 SCF Done:  E(RB2PLYPD3) =  -156.946829256     A.U. after   12 cycles
 E2(B2PLYPD3) =    -0.2584643092D+00 E(B2PLYPD3) =    -0.15720529356525D+03

 The electronic state is 1-A.
 Alpha  occ. eigenvalues --  -10.62233 -10.61699 -10.60288 -10.59605  -0.96567
 Alpha  occ. eigenvalues --   -0.92359  -0.81385  -0.72927  -0.54593  -0.49059
 Alpha  occ. eigenvalues --   -0.48232  -0.45124  -0.41137  -0.38934  -0.37503
 Alpha  occ. eigenvalues --   -0.36173  -0.34870
 Alpha virt. eigenvalues --   -0.00363   0.02648   0.05299   0.07280   0.09477
 Alpha virt. eigenvalues --    0.10863   0.11857   0.12273   0.13418   0.14632
 Alpha virt. eigenvalues --    0.16230   0.17168   0.17816   0.19267   0.20626

 Mulliken charges:
               1
     1  C   -0.502824
     2  C   -0.706893
     3  H    0.076336
     4  H    0.022431
     5  H    0.424264
     6  C   -0.013822
     7  H    0.628347
     8  H    0.025848
     9  C   -0.696530
    10  H    0.013956
    11  H    0.065284
    12  H    0.547627
    13  H    0.042728
    14  H    0.073247
 Sum of Mulliken charges =   0.00000

 Dipole moment (field-independent basis, Debye):
    X=             -0.5245    Y=             -0.2634    Z=             -0.7871  Tot=              0.9818
 Quadrupole moment (field-independent basis, Debye-Ang):
   XX=            -30.6310   YY=            -28.9298   ZZ=            -27.7066
   XY=              0.3075   XZ=             -0.1700   YZ=             -0.4479

 Normal termination of Gaussian 09 at Wed Aug 26 11:06:16 2020.
