 Gaussian 09, Revision D.01,
 Gaussian 09:  ES64L-G09RevD.01 24-Apr-2013

 --------------------
 #p B2PLYPD3/Def2QZVP
 --------------------

 ----------
 butane_opt
 ----------
 Symbolic Z-matrix:
 Charge =  0 Multiplicity = 1

                         Standard orientation:
 ---------------------------------------------------------------------
 Center     Atomic      Atomic             Coordinates (Angstroms)
 Number     Number       Type             X           Y           Z
 ---------------------------------------------------------------------
      1          6           0        1.883294    0.019682   -0.167044
      2          6           0        0.584058   -0.421610    0.250013
      3          1           0        2.607420   -0.684344   -0.420331
      4          1           0        2.221893    0.817382    0.676863
      5          1           0        1.747872    0.530877   -1.060144
      6          6           0       -0.483945    0.609872    0.053222
      7          1           0        0.464355   -1.380721    1.445113
      8          1           0        0.366876   -0.876716   -0.387042
      9          6           0       -1.959171   -0.184039   -0.109926
     10          1           0       -0.404983    1.042814   -0.858077
     11          1           0       -0.236741    1.449114    0.845767
     12          1           0       -2.051708   -1.310838   -1.187023
     13          1           0       -2.725747    0.819088    0.190034
     14          1           0       -2.134653   -0.550078    0.597257
 ---------------------------------------------------------------------

 SCF Done:  E(RB2PLYPD3) =  -157.728402759     A.U. after   11 cycles
 E2(B2PLYPD3) =    -0.2539811888D+00 E(B2PLYPD3) =    -0.15798238394822D+03

 The electronic state is 1-A.
 Alpha  occ. eigenvalues --  -10.64136 -10.62395 -10.60032 -10.59906  -0.94986
 Alpha  occ. eigenvalues --   -0.84004  -0.75434  -0.68915  -0.55631  -0.50086
 Alpha  occ. eigenvalues --   -0.48581  -0.45783  -0.42840  -0.39602  -0.37714
 Alpha  occ. eigenvalues --   -0.36164  -0.35206
 Alpha virt. eigenvalues --    0.01968   0.04893   0.06154   0.07604   0.10454
 Alpha virt. eigenvalues --    0.11215   0.11552   0.12884   0.14179   0.14879
 Alpha virt. eigenvalues --    0.15304   0.16018   0.18110   0.19061   0.20365

 Mulliken charges:
               1
     1  C   -0.123575
     2  C   -0.305990
     3  H    0.052355
     4  H    0.027067
     5  H    0.050571
     6  C   -0.048264
     7  H   -0.019167
     8  H    0.290244
     9  C   -0.344838
    10  H    0.077602
    11  H    0.031745
    12  H    0.041004
    13  H    0.028568
    14  H    0.242677
 Sum of Mulliken charges =   0.00000

 Dipole moment (field-independent basis, Debye):
    X=              0.1958    Y=              0.0110    Z=             -0.4782  Tot=              0.5169
 Quadrupole moment (field-independent basis, Debye-Ang):
   XX=            -31.2559   YY=            -28.9921   ZZ=            -28.9829
   XY=              0.0974   XZ=             -1.9121   YZ=              1.1786

 Normal termination of Gaussian 09 at Wed Aug 26 13:54:59 2020.
