 Gaussian 09, Revision D.01,
 Gaussian 09:  ES64L-G09RevD.01 24-Apr-2013

 --------------------
 #p B2PLYPD3/Def2QZVP
 --------------------

 ----------
 butane_opt
 ----------
 Symbolic Z-matrix:
 Charge =  0 Multiplicity = 1

                         Standard orientation:
 ---------------------------------------------------------------------
 Center     Atomic      Atomic             Coordinates (Angstroms)
 Number     Number       Type             X           Y           Z
 ---------------------------------------------------------------------
      1          6           0       -1.885714    0.048668   -0.232650
      2          6           0       -0.615967   -0.365810    0.290567
      3          1           0       -2.770156   -0.760816   -0.343817
      4          1           0       -1.598291    0.127194   -0.876472
      5          1           0       -2.156827    1.017397    0.660877
      6          6           0        0.478590    0.526970    0.066868
      7          1           0       -0.267886   -0.944866   -0.347948
      8          1           0       -0.305402   -1.096825    1.488723
      9          6           0        1.932554   -0.103039   -0.131727
     10          1           0        0.527469    1.426069    0.911395
     11          1           0        0.281372    0.894185   -0.968140
     12          1           0        2.243507   -0.498820    0.869371
     13          1           0        2.641388    0.381088   -0.452543
     14          1           0        1.948046   -1.185335   -0.899794
 ---------------------------------------------------------------------

 SCF Done:  E(RB2PLYPD3) =  -157.697662594     A.U. after   11 cycles
 E2(B2PLYPD3) =    -0.2525242020D+00 E(B2PLYPD3) =    -0.15795018679574D+03

 The electronic state is 1-A.
 Alpha  occ. eigenvalues --  -10.63479 -10.61720 -10.61042 -10.60485  -0.98297
 Alpha  occ. eigenvalues --   -0.86056  -0.76787  -0.65346  -0.57292  -0.52545
 Alpha  occ. eigenvalues --   -0.50449  -0.46551  -0.44118  -0.40104  -0.39005
 Alpha  occ. eigenvalues --   -0.35203  -0.34842
 Alpha virt. eigenvalues --    0.05076   0.06091   0.06925   0.07785   0.10208
 Alpha virt. eigenvalues --    0.10687   0.12332   0.12972   0.13855   0.14621
 Alpha virt. eigenvalues --    0.15796   0.16982   0.18364   0.19757   0.21071

 Mulliken charges:
               1
     1  C   -0.598913
     2  C   -0.069922
     3  H    0.072754
     4  H    0.455339
     5  H    0.051823
     6  C   -0.021804
     7  H    0.111638
     8  H   -0.023564
     9  C   -0.152147
    10  H    0.009586
    11  H    0.038206
    12  H    0.039636
    13  H    0.091154
    14  H   -0.003786
 Sum of Mulliken charges =   0.00000

 Dipole moment (field-independent basis, Debye):
    X=              0.3111    Y=              0.0228    Z=             -0.6355  Tot=              0.7079
 Quadrupole moment (field-independent basis, Debye-Ang):
   XX=            -29.1723   YY=            -30.5727   ZZ=            -28.8589
   XY=              1.1205   XZ=              0.4913   YZ=              1.0382

 Normal termination of Gaussian 09 at Wed Aug 26 11:11:41 2020.
