 Gaussian 09, Revision D.01,
 Gaussian 09:  ES64L-G09RevD.01 24-Apr-2013

 --------------------
 #p B2PLYPD3/Def2QZVP
 --------------------

 ----------
 butane_opt
 ----------
 Symbolic Z-matrix:
 Charge =  0 Multiplicity = 1

                         Standard orientation:
 ---------------------------------------------------------------------
 Center     Atomic      Atomic             Coordinates (Angstroms)
 Number     Number       Type             X           Y           Z
 ---------------------------------------------------------------------
      1          6           0        1.919026   -0.166430   -0.052259
      2          6           0        0.528148    0.580252   -0.045672
      3          1           0        2.692547    0.671600   -0.195556
      4          1           0        2.047871   -0.795554   -0.788381
      5          1           0        2.273077   -0.703504    0.780669
      6          6           0       -0.518507   -0.462334    0.165676
      7          1           0        0.123759    0.947735   -0.786050
      8          1           0        0.163159    1.576880    0.960374
      9          6           0       -1.830907    0.033707   -0.053634
     10          1           0       -0.579970   -1.368176    1.219141
     11          1           0       -0.441094   -1.042512   -0.567977
     12          1           0       -2.319990    1.059078    0.868774
     13          1           0       -2.758722   -0.823262   -0.654499
     14          1           0       -1.787194    0.566545   -0.921157
 ---------------------------------------------------------------------

 SCF Done:  E(RB2PLYPD3) =  -157.855300816     A.U. after   11 cycles
 E2(B2PLYPD3) =    -0.2545412710D+00 E(B2PLYPD3) =    -0.15810984208691D+03

 The electronic state is 1-A.
 Alpha  occ. eigenvalues --  -10.64797 -10.63676 -10.61465 -10.60689  -0.95494
 Alpha  occ. eigenvalues --   -0.84436  -0.74521  -0.67328  -0.54364  -0.51122
 Alpha  occ. eigenvalues --   -0.49633  -0.47712  -0.43077  -0.39263  -0.37813
 Alpha  occ. eigenvalues --   -0.35465  -0.34774
 Alpha virt. eigenvalues --    0.03332   0.06043   0.06823   0.07179   0.09470
 Alpha virt. eigenvalues --    0.10432   0.11823   0.12646   0.14475   0.15151
 Alpha virt. eigenvalues --    0.15308   0.16299   0.18904   0.19191   0.19482

 Mulliken charges:
               1
     1  C   -0.121115
     2  C   -0.133368
     3  H    0.032541
     4  H    0.053714
     5  H    0.062772
     6  C   -0.061282
     7  H    0.129201
     8  H   -0.000412
     9  C   -0.178209
    10  H    0.002751
    11  H    0.109929
    12  H    0.011451
    13  H    0.024422
    14  H    0.067605
 Sum of Mulliken charges =   0.00000

 Dipole moment (field-independent basis, Debye):
    X=              0.6870    Y=             -0.3430    Z=             -1.1786  Tot=              1.4067
 Quadrupole moment (field-independent basis, Debye-Ang):
   XX=            -31.1027   YY=            -29.8714   ZZ=            -29.2124
   XY=             -1.0696   XZ=              1.1061   YZ=              0.2730

 Normal termination of Gaussian 09 at Wed Aug 26 22:07:46 2020.
