 Gaussian 09, Revision D.01,
 Gaussian 09:  ES64L-G09RevD.01 24-Apr-2013

 --------------------
 #p B2PLYPD3/Def2QZVP
 --------------------

 ----------
 butane_opt
 ----------
 Symbolic Z-matrix:
 Charge =  0 Multiplicity = 1

                         Standard orientation:
 ---------------------------------------------------------------------
 Center     Atomic      Atomic             Coordinates (Angstroms)
 Number     Number       Type             X           Y           Z
 ---------------------------------------------------------------------
      1          6           0        2.026252   -0.119464   -0.079753
      2          6           0        0.531424    0.490159    0.042310
      3          1           0        2.927661    0.837946   -0.185008
      4          1           0        2.029817   -1.031295   -1.163701
      5          1           0        2.098556   -0.640811    0.753452
      6          6           0       -0.571695   -0.517495    0.203877
      7          1           0        0.232033    0.908822   -0.718724
      8          1           0        0.740835    1.245495    0.947121
      9          6           0       -2.008064    0.108612   -0.187925
     10          1           0       -0.669509   -1.299183    1.392959
     11          1           0       -0.399895   -0.812229   -0.463273
     12          1           0       -2.250777    1.170655    0.879360
     13          1           0       -2.730067   -0.494557   -0.406885
     14          1           0       -1.846157    0.344284   -0.906356
 ---------------------------------------------------------------------

 SCF Done:  E(RB2PLYPD3) =  -157.597465896     A.U. after   11 cycles
 E2(B2PLYPD3) =    -0.2527568035D+00 E(B2PLYPD3) =    -0.15785022269980D+03

 The electronic state is 1-A.
 Alpha  occ. eigenvalues --  -10.65155 -10.61168 -10.61033 -10.60041  -0.95959
 Alpha  occ. eigenvalues --   -0.85274  -0.77088  -0.68891  -0.55105  -0.51177
 Alpha  occ. eigenvalues --   -0.49156  -0.46277  -0.43568  -0.39438  -0.39086
 Alpha  occ. eigenvalues --   -0.36463  -0.34410
 Alpha virt. eigenvalues --    0.04179   0.05007   0.07149   0.07955   0.09578
 Alpha virt. eigenvalues --    0.10233   0.12020   0.12360   0.13219   0.14324
 Alpha virt. eigenvalues --    0.16164   0.16396   0.18390   0.19056   0.20222

 Mulliken charges:
               1
     1  C   -0.195028
     2  C   -0.062783
     3  H    0.053646
     4  H   -0.001412
     5  H    0.108755
     6  C   -0.497620
     7  H    0.110054
     8  H    0.015292
     9  C   -0.394899
    10  H    0.021924
    11  H    0.463371
    12  H    0.020969
    13  H    0.063753
    14  H    0.293977
 Sum of Mulliken charges =   0.00000

 Dipole moment (field-independent basis, Debye):
    X=             -0.0538    Y=             -0.0375    Z=             -0.5173  Tot=              0.5214
 Quadrupole moment (field-independent basis, Debye-Ang):
   XX=            -30.7268   YY=            -30.1813   ZZ=            -28.0839
   XY=              1.8911   XZ=              2.2102   YZ=              0.2180

 Normal termination of Gaussian 09 at Wed Aug 26 21:20:11 2020.
