 Gaussian 09, Revision D.01,
 Gaussian 09:  ES64L-G09RevD.01 24-Apr-2013

 --------------------
 #p B2PLYPD3/Def2QZVP
 --------------------

 ----------
 butane_opt
 ----------
 Symbolic Z-matrix:
 Charge =  0 Multiplicity = 1

                         Standard orientation:
 ---------------------------------------------------------------------
 Center     Atomic      Atomic             Coordinates (Angstroms)
 Number     Number       Type             X           Y           Z
 ---------------------------------------------------------------------
      1          6           0       -1.903897    0.059219   -0.208117
      2          6           0       -0.579831   -0.399205    0.179895
      3          1           0       -2.900679   -0.889214   -0.165842
      4          1           0       -1.699689    0.869739   -1.300345
      5          1           0       -2.245472    0.641660    0.713870
      6          6           0        0.550626    0.531238    0.218700
      7          1           0       -0.256050   -0.970117   -0.557596
      8          1           0       -0.701003   -1.148526    1.198025
      9          6           0        2.006369   -0.143931   -0.188858
     10          1           0        0.655026    1.486407    1.368085
     11          1           0       -0.044089    0.892982   -0.458859
     12          1           0        2.379375   -0.977975    0.908599
     13          1           0        2.553197    0.392615   -0.747068
     14          1           0        1.819782   -0.581496   -0.968592
 ---------------------------------------------------------------------

 SCF Done:  E(RB2PLYPD3) =  -157.781352979     A.U. after   11 cycles
 E2(B2PLYPD3) =    -0.2571775535D+00 E(B2PLYPD3) =    -0.15803853053300D+03

 The electronic state is 1-A.
 Alpha  occ. eigenvalues --  -10.66324 -10.63751 -10.61799 -10.61582  -0.96000
 Alpha  occ. eigenvalues --   -0.85428  -0.75824  -0.64895  -0.54866  -0.51081
 Alpha  occ. eigenvalues --   -0.47253  -0.45008  -0.41900  -0.39499  -0.39149
 Alpha  occ. eigenvalues --   -0.34643  -0.34133
 Alpha virt. eigenvalues --    0.03785   0.04899   0.06257   0.07326   0.09712
 Alpha virt. eigenvalues --    0.09968   0.11266   0.12085   0.13210   0.14786
 Alpha virt. eigenvalues --    0.15809   0.16478   0.17882   0.18998   0.20212

 Mulliken charges:
               1
     1  C   -0.172939
     2  C   -0.027114
     3  H    0.050677
     4  H    0.030431
     5  H    0.057930
     6  C   -0.119855
     7  H    0.088547
     8  H   -0.012440
     9  C   -0.208670
    10  H   -0.010948
    11  H    0.089661
    12  H    0.066120
    13  H    0.071506
    14  H    0.097095
 Sum of Mulliken charges =   0.00000

 Dipole moment (field-independent basis, Debye):
    X=             -0.0248    Y=             -0.4957    Z=             -0.7383  Tot=              0.8896
 Quadrupole moment (field-independent basis, Debye-Ang):
   XX=            -30.0527   YY=            -31.3211   ZZ=            -28.7093
   XY=             -0.0570   XZ=             -1.9845   YZ=             -0.6112

 Normal termination of Gaussian 09 at Wed Aug 26 21:45:55 2020.
