 Gaussian 09, Revision D.01,
 Gaussian 09:  ES64L-G09RevD.01 24-Apr-2013

 --------------------
 #p B2PLYPD3/Def2QZVP
 --------------------

 ----------
 butane_opt
 ----------
 Symbolic Z-matrix:
 Charge =  0 Multiplicity = 1

                         Standard orientation:
 ---------------------------------------------------------------------
 Center     Atomic      Atomic             Coordinates (Angstroms)
 Number     Number       Type             X           Y           Z
 ---------------------------------------------------------------------
      1          6           0       -1.956179    0.136272    0.024933
      2          6           0       -0.521882   -0.498568   -0.024693
      3          1           0       -2.738255   -0.714657   -0.304163
      4          1           0       -1.886895   -0.033292   -0.573021
      5          1           0       -2.404261    1.651913    1.240719
      6          6           0        0.634639    0.437250   -0.274412
      7          1           0       -0.341603   -1.292217   -0.799452
      8          1           0       -0.275857   -1.117710    1.193676
      9          6           0        1.864150   -0.029974    0.163266
     10          1           0        0.223132    0.998766    0.377149
     11          1           0        0.772687    1.025686   -1.300758
     12          1           0        1.824464   -0.745145    1.255778
     13          1           0        2.596364    0.705021    0.169093
     14          1           0        2.105854   -0.748243   -0.593589
 ---------------------------------------------------------------------

 SCF Done:  E(RB2PLYPD3) =  -157.349805441     A.U. after   13 cycles
 E2(B2PLYPD3) =    -0.2632315190D+00 E(B2PLYPD3) =    -0.15761303695962D+03

 The electronic state is 1-A.
 Alpha  occ. eigenvalues --  -10.65646 -10.63593 -10.60200 -10.59192  -0.97699
 Alpha  occ. eigenvalues --   -0.91372  -0.75932  -0.65158  -0.55389  -0.51359
 Alpha  occ. eigenvalues --   -0.47769  -0.46142  -0.42191  -0.38719  -0.37105
 Alpha  occ. eigenvalues --   -0.34741  -0.31512
 Alpha virt. eigenvalues --   -0.05470   0.05208   0.06300   0.06522   0.09590
 Alpha virt. eigenvalues --    0.10361   0.12238   0.12925   0.14072   0.15068
 Alpha virt. eigenvalues --    0.15382   0.16279   0.18656   0.19222   0.19831

 Mulliken charges:
               1
     1  C   -0.867233
     2  C   -0.061953
     3  H    0.055342
     4  H    0.726947
     5  H    0.069301
     6  C   -0.057369
     7  H    0.032900
     8  H    0.004151
     9  C   -0.128772
    10  H    0.080207
    11  H    0.024864
    12  H    0.024173
    13  H    0.060737
    14  H    0.036703
 Sum of Mulliken charges =   0.00000

 Dipole moment (field-independent basis, Debye):
    X=              0.1605    Y=              0.2356    Z=             -0.8587  Tot=              0.9048
 Quadrupole moment (field-independent basis, Debye-Ang):
   XX=            -30.6159   YY=            -29.5330   ZZ=            -28.5260
   XY=              0.4695   XZ=              0.1829   YZ=              1.8816

 Normal termination of Gaussian 09 at Wed Aug 26 14:10:22 2020.
