 Gaussian 09, Revision D.01,
 Gaussian 09:  ES64L-G09RevD.01 24-Apr-2013

 --------------------
 #p B2PLYPD3/Def2QZVP
 --------------------

 ----------
 butane_opt
 ----------
 Symbolic Z-matrix:
 Charge =  0 Multiplicity = 1

                         Standard orientation:
 ---------------------------------------------------------------------
 Center     Atomic      Atomic             Coordinates (Angstroms)
 Number     Number       Type             X           Y           Z
 ---------------------------------------------------------------------
      1          6           0        1.853690    0.070265   -0.158040
      2          6           0        0.600596   -0.349290    0.223596
      3          1           0        2.729158   -1.035280   -0.313209
      4          1           0        1.969041    0.814237    0.667508
      5          1           0        1.919565    0.535007   -0.899430
      6          6           0       -0.505116    0.609144    0.115190
      7          1           0        0.771797   -1.013397    1.304575
      8          1           0        0.369696   -1.192792   -0.686827
      9          6           0       -1.968757   -0.236413   -0.096558
     10          1           0       -0.132316    1.144760   -0.848135
     11          1           0       -0.689466    1.412175    0.938532
     12          1           0       -1.571399   -0.873143   -0.796872
     13          1           0       -2.813380    0.421811   -0.715620
     14          1           0       -2.435179   -0.775615    0.844347
 ---------------------------------------------------------------------

 SCF Done:  E(RB2PLYPD3) =  -157.926584757     A.U. after   11 cycles
 E2(B2PLYPD3) =    -0.2533041496D+00 E(B2PLYPD3) =    -0.15817988890616D+03

 The electronic state is 1-A.
 Alpha  occ. eigenvalues --  -10.63987 -10.63270 -10.62978 -10.60224  -0.94366
 Alpha  occ. eigenvalues --   -0.82875  -0.72608  -0.65311  -0.55909  -0.49842
 Alpha  occ. eigenvalues --   -0.49341  -0.47068  -0.41924  -0.40040  -0.38055
 Alpha  occ. eigenvalues --   -0.36457  -0.33645
 Alpha virt. eigenvalues --    0.04091   0.06241   0.07263   0.07521   0.09933
 Alpha virt. eigenvalues --    0.10923   0.11752   0.13032   0.13659   0.15648
 Alpha virt. eigenvalues --    0.15914   0.16505   0.18012   0.18999   0.21101

 Mulliken charges:
               1
     1  C   -0.199064
     2  C   -0.009333
     3  H    0.025365
     4  H    0.046544
     5  H    0.102969
     6  C   -0.067369
     7  H    0.030782
     8  H   -0.009155
     9  C   -0.180092
    10  H    0.041639
    11  H    0.036846
    12  H    0.086629
    13  H    0.033311
    14  H    0.060929
 Sum of Mulliken charges =   0.00000

 Dipole moment (field-independent basis, Debye):
    X=             -0.1107    Y=              0.3080    Z=             -0.1976  Tot=              0.3823
 Quadrupole moment (field-independent basis, Debye-Ang):
   XX=            -31.4990   YY=            -29.8635   ZZ=            -28.6140
   XY=              0.0183   XZ=             -0.9340   YZ=             -0.1454

 Normal termination of Gaussian 09 at Wed Aug 26 10:36:28 2020.
