 Gaussian 09, Revision D.01,
 Gaussian 09:  ES64L-G09RevD.01 24-Apr-2013

 --------------------
 #p B2PLYPD3/Def2QZVP
 --------------------

 ----------
 butane_opt
 ----------
 Symbolic Z-matrix:
 Charge =  0 Multiplicity = 1

                         Standard orientation:
 ---------------------------------------------------------------------
 Center     Atomic      Atomic             Coordinates (Angstroms)
 Number     Number       Type             X           Y           Z
 ---------------------------------------------------------------------
      1          6           0       -1.998100   -0.141809    0.079436
      2          6           0       -0.537348    0.568726   -0.058180
      3          1           0       -2.698313    0.494370   -0.082329
      4          1           0       -2.175857   -0.834008    0.971500
      5          1           0       -2.264238   -0.589021   -0.699726
      6          6           0        0.614439   -0.491972   -0.067231
      7          1           0       -0.345542    1.084158    0.792611
      8          1           0       -0.384105    1.375213   -1.102255
      9          6           0        1.919043    0.046121    0.042130
     10          1           0        0.460325   -1.044515   -0.953905
     11          1           0        0.544607   -1.293177    0.830412
     12          1           0        1.930182    0.400911   -0.671006
     13          1           0        2.699609   -0.551834   -0.303703
     14          1           0        2.245124    1.071499    1.241470
 ---------------------------------------------------------------------

 SCF Done:  E(RB2PLYPD3) =  -157.824559111     A.U. after   11 cycles
 E2(B2PLYPD3) =    -0.2504032281D+00 E(B2PLYPD3) =    -0.15807496233951D+03

 The electronic state is 1-A.
 Alpha  occ. eigenvalues --  -10.63245 -10.61207 -10.59431 -10.58025  -0.94048
 Alpha  occ. eigenvalues --   -0.86160  -0.76723  -0.67032  -0.54230  -0.51284
 Alpha  occ. eigenvalues --   -0.49273  -0.46258  -0.41695  -0.41423  -0.39335
 Alpha  occ. eigenvalues --   -0.35999  -0.35647
 Alpha virt. eigenvalues --    0.03770   0.06051   0.07029   0.07588   0.10198
 Alpha virt. eigenvalues --    0.11454   0.12842   0.13127   0.14361   0.15389
 Alpha virt. eigenvalues --    0.16190   0.16609   0.18908   0.19665   0.21311

 Mulliken charges:
               1
     1  C   -0.138115
     2  C   -0.071744
     3  H    0.045102
     4  H    0.052432
     5  H    0.043288
     6  C   -0.017414
     7  H    0.074006
     8  H   -0.001297
     9  C   -0.363023
    10  H    0.046241
    11  H    0.006771
    12  H    0.257687
    13  H    0.058285
    14  H    0.007781
 Sum of Mulliken charges =   0.00000

 Dipole moment (field-independent basis, Debye):
    X=             -0.3205    Y=             -0.2484    Z=             -0.8070  Tot=              0.9031
 Quadrupole moment (field-independent basis, Debye-Ang):
   XX=            -28.8310   YY=            -29.7532   ZZ=            -28.0050
   XY=             -0.2214   XZ=             -0.9721   YZ=              0.2168

 Normal termination of Gaussian 09 at Wed Aug 26 09:44:46 2020.
