 Gaussian 09, Revision D.01,
 Gaussian 09:  ES64L-G09RevD.01 24-Apr-2013

 --------------------
 #p B2PLYPD3/Def2QZVP
 --------------------

 ----------
 butane_opt
 ----------
 Symbolic Z-matrix:
 Charge =  0 Multiplicity = 1

                         Standard orientation:
 ---------------------------------------------------------------------
 Center     Atomic      Atomic             Coordinates (Angstroms)
 Number     Number       Type             X           Y           Z
 ---------------------------------------------------------------------
      1          6           0       -1.900652    0.020307   -0.218610
      2          6           0       -0.571444   -0.449782    0.327689
      3          1           0       -2.863282   -0.790383   -0.423363
      4          1           0       -1.602904    0.349878   -1.248398
      5          1           0       -2.128221    1.023159    0.596987
      6          6           0        0.557340    0.627131    0.074637
      7          1           0       -0.365454   -0.815659   -0.110909
      8          1           0       -0.655878   -0.989429    1.449605
      9          6           0        1.916529   -0.209238   -0.129783
     10          1           0        0.642201    1.760476    0.904469
     11          1           0        0.012199    0.907759   -0.657207
     12          1           0        2.393770   -0.602276    0.801728
     13          1           0        2.661326    0.383780   -0.716962
     14          1           0        1.895603   -1.157815   -0.919549
 ---------------------------------------------------------------------

 SCF Done:  E(RB2PLYPD3) =  -157.524859218     A.U. after   11 cycles
 E2(B2PLYPD3) =    -0.2533268670D+00 E(B2PLYPD3) =    -0.15777818608477D+03

 The electronic state is 1-A.
 Alpha  occ. eigenvalues --  -10.64518 -10.63731 -10.63584 -10.59151  -0.96287
 Alpha  occ. eigenvalues --   -0.81592  -0.72543  -0.70626  -0.54736  -0.50012
 Alpha  occ. eigenvalues --   -0.47412  -0.44477  -0.42352  -0.40649  -0.38745
 Alpha  occ. eigenvalues --   -0.37444  -0.35452
 Alpha virt. eigenvalues --    0.04720   0.06042   0.07118   0.08247   0.10408
 Alpha virt. eigenvalues --    0.11837   0.12160   0.12205   0.13508   0.15093
 Alpha virt. eigenvalues --    0.15755   0.17126   0.18368   0.18733   0.19732

 Mulliken charges:
               1
     1  C   -0.148246
     2  C   -0.837920
     3  H    0.054564
     4  H    0.048957
     5  H    0.047675
     6  C   -0.095277
     7  H    0.740687
     8  H    0.053127
     9  C   -0.142617
    10  H    0.010286
    11  H    0.129408
    12  H    0.073394
    13  H    0.046191
    14  H    0.019771
 Sum of Mulliken charges =   0.00000

 Dipole moment (field-independent basis, Debye):
    X=              0.2966    Y=             -0.3972    Z=             -0.4762  Tot=              0.6874
 Quadrupole moment (field-independent basis, Debye-Ang):
   XX=            -29.8179   YY=            -29.7390   ZZ=            -28.6401
   XY=              0.2589   XZ=              0.2476   YZ=              0.4633

 Normal termination of Gaussian 09 at Wed Aug 26 10:57:03 2020.
