 Gaussian 09, Revision D.01,
 Gaussian 09:  ES64L-G09RevD.01 24-Apr-2013

 --------------------
 #p B2PLYPD3/Def2QZVP
 --------------------

 ----------
 butane_opt
 ----------
 Symbolic Z-matrix:
 Charge =  0 Multiplicity = 1

                         Standard orientation:
 ---------------------------------------------------------------------
 Center     Atomic      Atomic             Coordinates (Angstroms)
 Number     Number       Type             X           Y           Z
 ---------------------------------------------------------------------
      1          6           0       -1.997477   -0.141591   -0.110115
      2          6           0       -0.503914    0.595281    0.040880
      3          1           0       -2.653779    0.446012   -0.154978
      4          1           0       -2.243445   -0.383658    0.815710
      5          1           0       -2.439275   -1.247288   -1.086161
      6          6           0        0.619944   -0.496182    0.323220
      7          1           0       -0.339693    1.730871    0.944778
      8          1           0       -0.502712    1.011409   -0.871617
      9          6           0        2.002375    0.020995   -0.199958
     10          1           0        0.356242   -1.020507   -0.385965
     11          1           0        0.370085   -1.102015    1.505340
     12          1           0        1.517956    0.572676   -1.219999
     13          1           0        2.812175   -0.760853   -0.530418
     14          1           0        2.396879    0.882334    0.659159
 ---------------------------------------------------------------------

 SCF Done:  E(RB2PLYPD3) =  -157.814225938     A.U. after   11 cycles
 E2(B2PLYPD3) =    -0.2558017275D+00 E(B2PLYPD3) =    -0.15807002766593D+03

 The electronic state is 1-A.
 Alpha  occ. eigenvalues --  -10.65427 -10.65282 -10.62613 -10.61283  -0.90643
 Alpha  occ. eigenvalues --   -0.83641  -0.73076  -0.66495  -0.52498  -0.49400
 Alpha  occ. eigenvalues --   -0.47226  -0.43277  -0.41474  -0.39124  -0.37769
 Alpha  occ. eigenvalues --   -0.37627  -0.35089
 Alpha virt. eigenvalues --    0.02621   0.04919   0.06539   0.07386   0.10317
 Alpha virt. eigenvalues --    0.10807   0.11452   0.13184   0.13732   0.14001
 Alpha virt. eigenvalues --    0.15557   0.16464   0.18050   0.18337   0.19892

 Mulliken charges:
               1
     1  C   -0.202186
     2  C   -0.094744
     3  H    0.107349
     4  H    0.053659
     5  H    0.022627
     6  C   -0.142211
     7  H   -0.005184
     8  H    0.086630
     9  C   -0.181629
    10  H    0.162340
    11  H    0.028974
    12  H    0.049032
    13  H    0.068189
    14  H    0.047154
 Sum of Mulliken charges =   0.00000

 Dipole moment (field-independent basis, Debye):
    X=             -0.2280    Y=             -0.0873    Z=             -0.2637  Tot=              0.3593
 Quadrupole moment (field-independent basis, Debye-Ang):
   XX=            -29.5022   YY=            -30.4011   ZZ=            -29.0965
   XY=             -0.9599   XZ=             -0.2704   YZ=              0.4379

 Normal termination of Gaussian 09 at Wed Aug 26 19:00:54 2020.
