 Gaussian 09, Revision D.01,
 Gaussian 09:  ES64L-G09RevD.01 24-Apr-2013

 --------------------
 #p B2PLYPD3/Def2QZVP
 --------------------

 ----------
 butane_opt
 ----------
 Symbolic Z-matrix:
 Charge =  0 Multiplicity = 1

                         Standard orientation:
 ---------------------------------------------------------------------
 Center     Atomic      Atomic             Coordinates (Angstroms)
 Number     Number       Type             X           Y           Z
 ---------------------------------------------------------------------
      1          6           0        1.960640    0.170578   -0.100459
      2          6           0        0.484941   -0.613803    0.029106
      3          1           0        2.787325   -0.619557    0.450298
      4          1           0        1.852273   -0.001287    0.359413
      5          1           0        2.462343    1.566266   -1.316131
      6          6           0       -0.571052    0.427147    0.223629
      7          1           0        0.314437   -1.357880    0.841865
      8          1           0        0.263923   -0.895126   -0.701532
      9          6           0       -1.846802   -0.024378   -0.223328
     10          1           0       -0.503097    0.711119   -0.266052
     11          1           0       -0.351189    1.300576    1.695389
     12          1           0       -1.980390   -0.629345   -1.237015
     13          1           0       -2.813353    0.901257    0.064846
     14          1           0       -2.198635   -0.733289    0.535232
 ---------------------------------------------------------------------

 SCF Done:  E(RB2PLYPD3) =  -156.092848923     A.U. after   14 cycles
 E2(B2PLYPD3) =    -0.2680338726D+00 E(B2PLYPD3) =    -0.15636088279541D+03

 The electronic state is 1-A.
 Alpha  occ. eigenvalues --  -10.67229 -10.64305 -10.62217 -10.61282  -1.01373
 Alpha  occ. eigenvalues --   -0.94333  -0.78707  -0.73115  -0.56934  -0.49602
 Alpha  occ. eigenvalues --   -0.47750  -0.46367  -0.41733  -0.39417  -0.37468
 Alpha  occ. eigenvalues --   -0.34538  -0.30590
 Alpha virt. eigenvalues --   -0.04876   0.01219   0.04410   0.05455   0.09142
 Alpha virt. eigenvalues --    0.10783   0.11122   0.11592   0.14406   0.15146
 Alpha virt. eigenvalues --    0.15410   0.16162   0.17490   0.18786   0.19860

 Mulliken charges:
               1
     1  C   -1.121303
     2  C   -0.195367
     3  H    0.033486
     4  H    0.944980
     5  H    0.099700
     6  C   -0.933721
     7  H    0.064956
     8  H    0.262755
     9  C   -0.126151
    10  H    0.826724
    11  H   -0.009627
    12  H    0.068949
    13  H    0.044639
    14  H    0.039980
 Sum of Mulliken charges =   0.00000

 Dipole moment (field-independent basis, Debye):
    X=             -0.6074    Y=             -0.4778    Z=             -0.1662  Tot=              0.7905
 Quadrupole moment (field-independent basis, Debye-Ang):
   XX=            -31.3817   YY=            -29.3095   ZZ=            -27.6921
   XY=              1.6705   XZ=              0.8848   YZ=             -1.9867

 Normal termination of Gaussian 09 at Wed Aug 26 13:18:45 2020.
