 Gaussian 09, Revision D.01,
 Gaussian 09:  ES64L-G09RevD.01 24-Apr-2013

 --------------------
 #p B2PLYPD3/Def2QZVP
 --------------------

 ----------
 butane_opt
 ----------
 Symbolic Z-matrix:
 Charge =  0 Multiplicity = 1

                         Standard orientation:
 ---------------------------------------------------------------------
 Center     Atomic      Atomic             Coordinates (Angstroms)
 Number     Number       Type             X           Y           Z
 ---------------------------------------------------------------------
      1          6           0        2.030936   -0.126399    0.128144
      2          6           0        0.527312    0.589019   -0.228477
      3          1           0        2.651428    0.370994    0.645955
      4          1           0        2.759243   -0.725200   -0.817679
      5          1           0        1.894366   -0.609577    0.906922
      6          6           0       -0.618139   -0.474739   -0.124125
      7          1           0        0.356375    1.132512   -0.989690
      8          1           0        0.087438    1.102478    0.603219
      9          6           0       -1.865491    0.076474    0.134548
     10          1           0       -0.488140   -1.170702    0.929106
     11          1           0       -0.658291   -0.984821   -0.975242
     12          1           0       -2.454637    0.850416    1.003457
     13          1           0       -2.742852   -0.740461   -0.209877
     14          1           0       -1.852632    0.388235   -0.556710
 ---------------------------------------------------------------------

 SCF Done:  E(RB2PLYPD3) =  -157.740254938     A.U. after   11 cycles
 E2(B2PLYPD3) =    -0.2511460616D+00 E(B2PLYPD3) =    -0.15799140099945D+03

 The electronic state is 1-A.
 Alpha  occ. eigenvalues --  -10.61081 -10.60734 -10.60168 -10.58639  -0.96383
 Alpha  occ. eigenvalues --   -0.85717  -0.77821  -0.67531  -0.56890  -0.50446
 Alpha  occ. eigenvalues --   -0.49056  -0.45458  -0.43802  -0.43085  -0.38619
 Alpha  occ. eigenvalues --   -0.35466  -0.33948
 Alpha virt. eigenvalues --    0.05286   0.06160   0.07906   0.08565   0.09801
 Alpha virt. eigenvalues --    0.11179   0.12752   0.13393   0.14884   0.15566
 Alpha virt. eigenvalues --    0.16113   0.16773   0.18324   0.19789   0.20730

 Mulliken charges:
               1
     1  C   -0.183295
     2  C   -0.123331
     3  H    0.056467
     4  H    0.037559
     5  H    0.087600
     6  C    0.001318
     7  H    0.069011
     8  H    0.050168
     9  C   -0.514577
    10  H   -0.008627
    11  H    0.071397
    12  H    0.065301
    13  H    0.032319
    14  H    0.358690
 Sum of Mulliken charges =   0.00000

 Dipole moment (field-independent basis, Debye):
    X=             -0.1295    Y=              0.4002    Z=             -0.2046  Tot=              0.4677
 Quadrupole moment (field-independent basis, Debye-Ang):
   XX=            -28.8191   YY=            -30.2640   ZZ=            -27.1743
   XY=             -0.9059   XZ=              1.1210   YZ=              0.5690

 Normal termination of Gaussian 09 at Wed Aug 26 23:06:11 2020.
