 Gaussian 09, Revision D.01,
 Gaussian 09:  ES64L-G09RevD.01 24-Apr-2013

 --------------------
 #p B2PLYPD3/Def2QZVP
 --------------------

 ----------
 butane_opt
 ----------
 Symbolic Z-matrix:
 Charge =  0 Multiplicity = 1

                         Standard orientation:
 ---------------------------------------------------------------------
 Center     Atomic      Atomic             Coordinates (Angstroms)
 Number     Number       Type             X           Y           Z
 ---------------------------------------------------------------------
      1          6           0        1.931627   -0.162221    0.112094
      2          6           0        0.508140    0.581382   -0.163172
      3          1           0        2.558928    0.318425    0.645947
      4          1           0        2.479016   -0.786182   -0.788456
      5          1           0        1.923897   -0.603010    0.819035
      6          6           0       -0.591656   -0.415700   -0.174271
      7          1           0        0.451009    1.503484   -1.157404
      8          1           0        0.207781    0.986104    0.512258
      9          6           0       -1.853835    0.030695    0.156843
     10          1           0       -0.087769   -1.150793    0.616465
     11          1           0       -0.739808   -0.967256   -0.969334
     12          1           0       -1.908559    0.801660    1.268292
     13          1           0       -2.678042   -0.850617   -0.117817
     14          1           0       -2.172109    0.543252   -0.417947
 ---------------------------------------------------------------------

 SCF Done:  E(RB2PLYPD3) =  -157.742122166     A.U. after   11 cycles
 E2(B2PLYPD3) =    -0.2494642578D+00 E(B2PLYPD3) =    -0.15799158642377D+03

 The electronic state is 1-A.
 Alpha  occ. eigenvalues --  -10.60986 -10.60191 -10.59008 -10.57769  -0.95615
 Alpha  occ. eigenvalues --   -0.88084  -0.79443  -0.69453  -0.55645  -0.51380
 Alpha  occ. eigenvalues --   -0.48942  -0.48333  -0.42407  -0.40774  -0.39821
 Alpha  occ. eigenvalues --   -0.37822  -0.34488
 Alpha virt. eigenvalues --    0.04699   0.06561   0.07613   0.08194   0.10982
 Alpha virt. eigenvalues --    0.11724   0.12440   0.13616   0.14641   0.15237
 Alpha virt. eigenvalues --    0.16351   0.17228   0.18858   0.19267   0.20465

 Mulliken charges:
               1
     1  C   -0.272809
     2  C   -0.216255
     3  H    0.044812
     4  H    0.050430
     5  H    0.170372
     6  C    0.036974
     7  H   -0.003554
     8  H    0.204605
     9  C   -0.268865
    10  H    0.003150
    11  H    0.042578
    12  H    0.005570
    13  H    0.027041
    14  H    0.175950
 Sum of Mulliken charges =   0.00000

 Dipole moment (field-independent basis, Debye):
    X=              0.0440    Y=             -0.1788    Z=              0.1041  Tot=              0.2115
 Quadrupole moment (field-independent basis, Debye-Ang):
   XX=            -28.8695   YY=            -29.5081   ZZ=            -28.0488
   XY=             -0.9976   XZ=              2.9286   YZ=              0.9307

 Normal termination of Gaussian 09 at Wed Aug 26 22:22:37 2020.
