 Gaussian 09, Revision D.01,
 Gaussian 09:  ES64L-G09RevD.01 24-Apr-2013

 --------------------
 #p B2PLYPD3/Def2QZVP
 --------------------

 ----------
 butane_opt
 ----------
 Symbolic Z-matrix:
 Charge =  0 Multiplicity = 1

                         Standard orientation:
 ---------------------------------------------------------------------
 Center     Atomic      Atomic             Coordinates (Angstroms)
 Number     Number       Type             X           Y           Z
 ---------------------------------------------------------------------
      1          6           0        1.903892    0.077374   -0.100970
      2          6           0        0.583884   -0.421402    0.076758
      3          1           0        2.773523   -0.728389   -0.304653
      4          1           0        1.929381    0.549447    0.581661
      5          1           0        1.502422    0.696947   -1.020492
      6          6           0       -0.432012    0.558604    0.160456
      7          1           0        0.487590   -1.237711    1.056389
      8          1           0        0.355319   -0.938098   -0.669774
      9          6           0       -1.951034   -0.162494   -0.109875
     10          1           0       -0.458875    0.826826   -0.593314
     11          1           0       -0.342260    1.549667    1.239074
     12          1           0       -1.994020   -0.517018   -0.802647
     13          1           0       -2.687965    0.527708   -0.655707
     14          1           0       -2.193487   -1.041867    1.011246
 ---------------------------------------------------------------------

 SCF Done:  E(RB2PLYPD3) =  -157.602219573     A.U. after   12 cycles
 E2(B2PLYPD3) =    -0.2531130816D+00 E(B2PLYPD3) =    -0.15785533265490D+03

 The electronic state is 1-A.
 Alpha  occ. eigenvalues --  -10.61873 -10.61795 -10.59464 -10.58730  -0.97766
 Alpha  occ. eigenvalues --   -0.87507  -0.78990  -0.69032  -0.58023  -0.51877
 Alpha  occ. eigenvalues --   -0.48168  -0.46834  -0.44242  -0.40892  -0.38070
 Alpha  occ. eigenvalues --   -0.36038  -0.34268
 Alpha virt. eigenvalues --    0.04110   0.06048   0.06720   0.07762   0.10309
 Alpha virt. eigenvalues --    0.10682   0.11888   0.12297   0.14338   0.15436
 Alpha virt. eigenvalues --    0.15788   0.16716   0.18245   0.19692   0.20256

 Mulliken charges:
               1
     1  C   -0.272974
     2  C   -0.025412
     3  H    0.063536
     4  H    0.181673
     5  H    0.031629
     6  C   -0.371552
     7  H   -0.027798
     8  H    0.087672
     9  C   -0.405220
    10  H    0.341402
    11  H    0.021919
    12  H    0.294084
    13  H    0.031603
    14  H    0.049438
 Sum of Mulliken charges =   0.00000

 Dipole moment (field-independent basis, Debye):
    X=              0.1833    Y=             -0.1377    Z=             -1.0207  Tot=              1.0461
 Quadrupole moment (field-independent basis, Debye-Ang):
   XX=            -30.8224   YY=            -30.0841   ZZ=            -27.6859
   XY=             -0.7433   XZ=              2.2651   YZ=              0.2961

 Normal termination of Gaussian 09 at Wed Aug 26 14:52:59 2020.
