 Gaussian 09, Revision D.01,
 Gaussian 09:  ES64L-G09RevD.01 24-Apr-2013

 --------------------
 #p B2PLYPD3/Def2QZVP
 --------------------

 ----------
 butane_opt
 ----------
 Symbolic Z-matrix:
 Charge =  0 Multiplicity = 1

                         Standard orientation:
 ---------------------------------------------------------------------
 Center     Atomic      Atomic             Coordinates (Angstroms)
 Number     Number       Type             X           Y           Z
 ---------------------------------------------------------------------
      1          6           0       -1.896138   -0.035352   -0.042083
      2          6           0       -0.539609    0.382765    0.013291
      3          1           0       -2.965367    0.975881   -0.305423
      4          1           0       -1.997338   -0.779273    0.881070
      5          1           0       -1.975750   -0.843390   -0.968571
      6          6           0        0.506390   -0.541393    0.180121
      7          1           0       -0.415082    1.328926    0.906808
      8          1           0       -0.322170    0.913309   -0.800287
      9          6           0        1.907100    0.167828   -0.059491
     10          1           0        0.519051   -1.145185   -0.687601
     11          1           0        0.239220   -1.236416    1.085873
     12          1           0        1.791817    0.532763   -0.781287
     13          1           0        2.668256   -0.633054   -0.684214
     14          1           0        2.590901    1.043355    0.802606
 ---------------------------------------------------------------------

 SCF Done:  E(RB2PLYPD3) =  -157.842062961     A.U. after   11 cycles
 E2(B2PLYPD3) =    -0.2543545613D+00 E(B2PLYPD3) =    -0.15809641752253D+03

 The electronic state is 1-A.
 Alpha  occ. eigenvalues --  -10.65846 -10.62673 -10.62233 -10.60624  -0.95337
 Alpha  occ. eigenvalues --   -0.84928  -0.73896  -0.66139  -0.55023  -0.49655
 Alpha  occ. eigenvalues --   -0.48806  -0.45206  -0.42174  -0.39616  -0.38735
 Alpha  occ. eigenvalues --   -0.37696  -0.34133
 Alpha virt. eigenvalues --    0.03629   0.04978   0.06890   0.07867   0.09360
 Alpha virt. eigenvalues --    0.09673   0.11973   0.12533   0.14148   0.14710
 Alpha virt. eigenvalues --    0.15874   0.16311   0.18466   0.19265   0.19883

 Mulliken charges:
               1
     1  C   -0.173069
     2  C   -0.002130
     3  H    0.046561
     4  H    0.043682
     5  H    0.024888
     6  C   -0.028338
     7  H   -0.006793
     8  H    0.051112
     9  C   -0.379307
    10  H    0.053067
    11  H    0.032024
    12  H    0.267000
    13  H    0.020135
    14  H    0.051169
 Sum of Mulliken charges =   0.00000

 Dipole moment (field-independent basis, Debye):
    X=              0.0553    Y=             -0.0845    Z=             -0.7460  Tot=              0.7528
 Quadrupole moment (field-independent basis, Debye-Ang):
   XX=            -32.0111   YY=            -29.7026   ZZ=            -28.9923
   XY=              0.4814   XZ=             -0.6818   YZ=             -0.1294

 Normal termination of Gaussian 09 at Wed Aug 26 21:20:08 2020.
