 Gaussian 09, Revision D.01,
 Gaussian 09:  ES64L-G09RevD.01 24-Apr-2013

 --------------------
 #p B2PLYPD3/Def2QZVP
 --------------------

 ----------
 butane_opt
 ----------
 Symbolic Z-matrix:
 Charge =  0 Multiplicity = 1

                         Standard orientation:
 ---------------------------------------------------------------------
 Center     Atomic      Atomic             Coordinates (Angstroms)
 Number     Number       Type             X           Y           Z
 ---------------------------------------------------------------------
      1          6           0        1.897893    0.100205   -0.040410
      2          6           0        0.601497   -0.460511    0.008104
      3          1           0        2.702396   -0.685901    0.242053
      4          1           0        1.678309    0.577504    0.778376
      5          1           0        2.262780    0.980313   -0.993355
      6          6           0       -0.559446    0.489983    0.037826
      7          1           0        0.548667   -1.269624    1.011051
      8          1           0        0.437717   -1.081147   -0.839319
      9          6           0       -1.943403   -0.146721   -0.042951
     10          1           0       -0.258618    0.995727   -0.819376
     11          1           0       -0.438092    1.302262    1.049126
     12          1           0       -2.106934   -0.813741   -0.965887
     13          1           0       -2.700873    0.657205    0.045007
     14          1           0       -2.104602   -0.560339    0.716910
 ---------------------------------------------------------------------

 SCF Done:  E(RB2PLYPD3) =  -157.964758016     A.U. after   11 cycles
 E2(B2PLYPD3) =    -0.2498063806D+00 E(B2PLYPD3) =    -0.15821456439645D+03

 The electronic state is 1-A.
 Alpha  occ. eigenvalues --  -10.62110 -10.61604 -10.60854 -10.58820  -0.94082
 Alpha  occ. eigenvalues --   -0.85967  -0.74313  -0.64642  -0.54728  -0.50628
 Alpha  occ. eigenvalues --   -0.49070  -0.48363  -0.42769  -0.40738  -0.40067
 Alpha  occ. eigenvalues --   -0.36321  -0.35006
 Alpha virt. eigenvalues --    0.05590   0.06341   0.07263   0.07536   0.10464
 Alpha virt. eigenvalues --    0.11889   0.12867   0.13307   0.14631   0.15205
 Alpha virt. eigenvalues --    0.15911   0.16065   0.19188   0.19719   0.21715

 Mulliken charges:
               1
     1  C   -0.180017
     2  C   -0.014628
     3  H    0.058083
     4  H    0.084777
     5  H    0.021229
     6  C   -0.043940
     7  H   -0.015068
     8  H    0.030991
     9  C   -0.187823
    10  H    0.065112
    11  H   -0.008981
    12  H    0.045672
    13  H    0.035864
    14  H    0.108730
 Sum of Mulliken charges =   0.00000

 Dipole moment (field-independent basis, Debye):
    X=             -0.2778    Y=             -0.1576    Z=              0.0295  Tot=              0.3207
 Quadrupole moment (field-independent basis, Debye-Ang):
   XX=            -29.6719   YY=            -29.7766   ZZ=            -28.4600
   XY=             -0.1897   XZ=             -0.2915   YZ=             -0.0731

 Normal termination of Gaussian 09 at Wed Aug 26 13:05:57 2020.
