 Gaussian 09, Revision D.01,
 Gaussian 09:  ES64L-G09RevD.01 24-Apr-2013

 --------------------
 #p B2PLYPD3/Def2QZVP
 --------------------

 ----------
 butane_opt
 ----------
 Symbolic Z-matrix:
 Charge =  0 Multiplicity = 1

                         Standard orientation:
 ---------------------------------------------------------------------
 Center     Atomic      Atomic             Coordinates (Angstroms)
 Number     Number       Type             X           Y           Z
 ---------------------------------------------------------------------
      1          6           0       -1.846932    0.110782   -0.083947
      2          6           0       -0.560057   -0.433685    0.117401
      3          1           0       -2.708709   -0.892148   -0.051129
      4          1           0       -2.193654    0.841889   -1.044178
      5          1           0       -1.924972    0.491785    0.645298
      6          6           0        0.544643    0.555979    0.105750
      7          1           0       -0.336026   -1.184725   -0.704150
      8          1           0       -0.547314   -1.254905    1.001133
      9          6           0        1.873485   -0.087514   -0.142450
     10          1           0        0.641538    1.632731    1.240355
     11          1           0        0.043636    0.839299   -0.548465
     12          1           0        2.410783   -1.158748    0.962372
     13          1           0        2.555482    0.558103   -0.524323
     14          1           0        1.992397   -0.746655   -0.957438
 ---------------------------------------------------------------------

 SCF Done:  E(RB2PLYPD3) =  -157.745514992     A.U. after   11 cycles
 E2(B2PLYPD3) =    -0.2555654889D+00 E(B2PLYPD3) =    -0.15800108048045D+03

 The electronic state is 1-A.
 Alpha  occ. eigenvalues --  -10.63904 -10.63022 -10.62475 -10.60696  -0.97372
 Alpha  occ. eigenvalues --   -0.86178  -0.76288  -0.66959  -0.56247  -0.52601
 Alpha  occ. eigenvalues --   -0.49610  -0.44202  -0.42944  -0.41636  -0.36461
 Alpha  occ. eigenvalues --   -0.35886  -0.33507
 Alpha virt. eigenvalues --    0.02452   0.04689   0.05397   0.07442   0.09055
 Alpha virt. eigenvalues --    0.10698   0.12056   0.12484   0.14092   0.15058
 Alpha virt. eigenvalues --    0.15238   0.15914   0.18650   0.19711   0.20150

 Mulliken charges:
               1
     1  C   -0.315361
     2  C   -0.000566
     3  H    0.026942
     4  H    0.045495
     5  H    0.217365
     6  C   -0.193078
     7  H    0.029494
     8  H    0.017462
     9  C   -0.117525
    10  H   -0.007046
    11  H    0.198927
    12  H   -0.004836
    13  H    0.064709
    14  H    0.038018
 Sum of Mulliken charges =   0.00000

 Dipole moment (field-independent basis, Debye):
    X=             -0.3297    Y=             -0.0458    Z=             -0.9488  Tot=              1.0055
 Quadrupole moment (field-independent basis, Debye-Ang):
   XX=            -30.7705   YY=            -29.8157   ZZ=            -29.3697
   XY=             -0.1036   XZ=             -1.6234   YZ=             -0.2641

 Normal termination of Gaussian 09 at Wed Aug 26 11:07:09 2020.
