 Gaussian 09, Revision D.01,
 Gaussian 09:  ES64L-G09RevD.01 24-Apr-2013

 --------------------
 #p B2PLYPD3/Def2QZVP
 --------------------

 ----------
 butane_opt
 ----------
 Symbolic Z-matrix:
 Charge =  0 Multiplicity = 1

                         Standard orientation:
 ---------------------------------------------------------------------
 Center     Atomic      Atomic             Coordinates (Angstroms)
 Number     Number       Type             X           Y           Z
 ---------------------------------------------------------------------
      1          6           0       -1.981968   -0.168170   -0.163129
      2          6           0       -0.581010    0.544602    0.120817
      3          1           0       -2.806607    0.613242   -0.384824
      4          1           0       -2.631173   -0.670614    0.725954
      5          1           0       -1.952267   -0.973380   -1.039223
      6          6           0        0.624486   -0.410648    0.350829
      7          1           0       -0.651201    1.534802    0.933629
      8          1           0       -0.416610    1.018996   -0.772557
      9          6           0        2.031068    0.089337   -0.187862
     10          1           0        0.410721   -1.217309   -0.466540
     11          1           0        0.350013   -1.105384    1.363983
     12          1           0        1.602630    0.454150   -1.122898
     13          1           0        2.807233   -0.694093   -0.637029
     14          1           0        2.731804    0.708864    0.675576
 ---------------------------------------------------------------------

 SCF Done:  E(RB2PLYPD3) =  -158.002828859     A.U. after   11 cycles
 E2(B2PLYPD3) =    -0.2534015379D+00 E(B2PLYPD3) =    -0.15825623039707D+03

 The electronic state is 1-A.
 Alpha  occ. eigenvalues --  -10.64462 -10.64326 -10.63847 -10.63473  -0.89529
 Alpha  occ. eigenvalues --   -0.81176  -0.71542  -0.64744  -0.51892  -0.48614
 Alpha  occ. eigenvalues --   -0.46569  -0.46166  -0.40879  -0.39736  -0.39414
 Alpha  occ. eigenvalues --   -0.36762  -0.34820
 Alpha virt. eigenvalues --    0.05220   0.06015   0.07562   0.08204   0.09901
 Alpha virt. eigenvalues --    0.10330   0.11977   0.12497   0.14036   0.15069
 Alpha virt. eigenvalues --    0.15912   0.16400   0.17765   0.18896   0.20414

 Mulliken charges:
               1
     1  C   -0.143111
     2  C   -0.038378
     3  H    0.041523
     4  H    0.029700
     5  H    0.042441
     6  C   -0.073141
     7  H    0.007502
     8  H    0.067452
     9  C   -0.154982
    10  H    0.026912
    11  H    0.032152
    12  H    0.069677
    13  H    0.043454
    14  H    0.048800
 Sum of Mulliken charges =   0.00000

 Dipole moment (field-independent basis, Debye):
    X=             -0.0314    Y=             -0.0329    Z=             -0.5141  Tot=              0.5161
 Quadrupole moment (field-independent basis, Debye-Ang):
   XX=            -29.2146   YY=            -30.4053   ZZ=            -29.2739
   XY=             -0.3519   XZ=             -0.2644   YZ=              0.5428

 Normal termination of Gaussian 09 at Wed Aug 26 11:36:23 2020.
