 Gaussian 09, Revision D.01,
 Gaussian 09:  ES64L-G09RevD.01 24-Apr-2013

 --------------------
 #p B2PLYPD3/Def2QZVP
 --------------------

 ----------
 butane_opt
 ----------
 Symbolic Z-matrix:
 Charge =  0 Multiplicity = 1

                         Standard orientation:
 ---------------------------------------------------------------------
 Center     Atomic      Atomic             Coordinates (Angstroms)
 Number     Number       Type             X           Y           Z
 ---------------------------------------------------------------------
      1          6           0        1.965843    0.061182    0.064974
      2          6           0        0.603626   -0.492431   -0.061805
      3          1           0        2.628755   -0.804909   -0.141808
      4          1           0        2.030970    0.748210    1.019234
      5          1           0        2.310429    0.740085   -0.740895
      6          6           0       -0.576528    0.572512    0.066437
      7          1           0        0.296864   -0.931459    0.587603
      8          1           0        0.486653   -1.364377   -1.005236
      9          6           0       -1.902690   -0.145806    0.020309
     10          1           0       -0.596140    1.515555   -0.905750
     11          1           0       -0.410444    1.152716    0.999955
     12          1           0       -1.791489   -0.451607   -0.666508
     13          1           0       -2.635934    0.538926   -0.785692
     14          1           0       -2.861167   -1.115884    1.099611
 ---------------------------------------------------------------------

 SCF Done:  E(RB2PLYPD3) =  -157.685986414     A.U. after   12 cycles
 E2(B2PLYPD3) =    -0.2563254334D+00 E(B2PLYPD3) =    -0.15794231184696D+03

 The electronic state is 1-A.
 Alpha  occ. eigenvalues --  -10.65074 -10.62890 -10.61615 -10.60463  -0.93840
 Alpha  occ. eigenvalues --   -0.86705  -0.74907  -0.67804  -0.51984  -0.50788
 Alpha  occ. eigenvalues --   -0.48664  -0.43680  -0.42824  -0.41945  -0.38116
 Alpha  occ. eigenvalues --   -0.36324  -0.32817
 Alpha virt. eigenvalues --    0.00060   0.04468   0.06398   0.06948   0.10132
 Alpha virt. eigenvalues --    0.11111   0.12270   0.12727   0.13724   0.14953
 Alpha virt. eigenvalues --    0.16051   0.16829   0.18129   0.18538   0.19195

 Mulliken charges:
               1
     1  C   -0.116660
     2  C   -0.207954
     3  H    0.048279
     4  H    0.042241
     5  H    0.041308
     6  C   -0.008683
     7  H    0.215866
     8  H   -0.001869
     9  C   -0.569749
    10  H    0.008573
    11  H    0.045237
    12  H    0.433869
    13  H    0.023073
    14  H    0.046468
 Sum of Mulliken charges =   0.00000

 Dipole moment (field-independent basis, Debye):
    X=              0.5137    Y=             -0.1541    Z=             -0.2272  Tot=              0.5825
 Quadrupole moment (field-independent basis, Debye-Ang):
   XX=            -31.3919   YY=            -29.5024   ZZ=            -28.6403
   XY=              0.8203   XZ=              0.2046   YZ=             -0.0778

 Normal termination of Gaussian 09 at Wed Aug 26 15:11:23 2020.
