 Gaussian 09, Revision D.01,
 Gaussian 09:  ES64L-G09RevD.01 24-Apr-2013

 --------------------
 #p B2PLYPD3/Def2QZVP
 --------------------

 ----------
 butane_opt
 ----------
 Symbolic Z-matrix:
 Charge =  0 Multiplicity = 1

                         Standard orientation:
 ---------------------------------------------------------------------
 Center     Atomic      Atomic             Coordinates (Angstroms)
 Number     Number       Type             X           Y           Z
 ---------------------------------------------------------------------
      1          6           0        2.065222   -0.151546   -0.169970
      2          6           0        0.533000    0.552325    0.282152
      3          1           0        2.829334    0.405115   -0.774583
      4          1           0        1.746328   -0.622032   -0.932801
      5          1           0        2.386477   -0.858167    0.729587
      6          6           0       -0.668805   -0.469470    0.094852
      7          1           0        0.341154    1.017910   -0.345666
      8          1           0        0.354222    1.384399    1.348184
      9          6           0       -1.920851    0.068116   -0.223051
     10          1           0       -0.579880   -1.265856    1.072607
     11          1           0       -0.433613   -0.777283   -0.448255
     12          1           0       -1.907844    0.523451    0.488487
     13          1           0       -2.723325   -0.751129    0.086090
     14          1           0       -2.064246    0.947039   -1.127551
 ---------------------------------------------------------------------

 SCF Done:  E(RB2PLYPD3) =  -157.510080099     A.U. after   11 cycles
 E2(B2PLYPD3) =    -0.2509448731D+00 E(B2PLYPD3) =    -0.15776102497221D+03

 The electronic state is 1-A.
 Alpha  occ. eigenvalues --  -10.61764 -10.61272 -10.58907 -10.57966  -0.96703
 Alpha  occ. eigenvalues --   -0.84780  -0.77090  -0.73103  -0.54670  -0.49535
 Alpha  occ. eigenvalues --   -0.48855  -0.47006  -0.43834  -0.41535  -0.38846
 Alpha  occ. eigenvalues --   -0.36950  -0.35406
 Alpha virt. eigenvalues --    0.05099   0.06016   0.07350   0.08446   0.11323
 Alpha virt. eigenvalues --    0.11553   0.12454   0.13234   0.14472   0.14960
 Alpha virt. eigenvalues --    0.16001   0.16553   0.17836   0.18705   0.20552

 Mulliken charges:
               1
     1  C   -0.208893
     2  C   -0.304953
     3  H    0.054645
     4  H    0.098003
     5  H    0.058969
     6  C   -0.644371
     7  H    0.295532
     8  H    0.010574
     9  C   -0.286564
    10  H    0.040208
    11  H    0.563153
    12  H    0.224746
    13  H    0.056300
    14  H    0.042651
 Sum of Mulliken charges =   0.00000

 Dipole moment (field-independent basis, Debye):
    X=             -0.0409    Y=             -0.1266    Z=             -0.5733  Tot=              0.5886
 Quadrupole moment (field-independent basis, Debye-Ang):
   XX=            -29.6882   YY=            -29.0216   ZZ=            -27.8505
   XY=             -0.6137   XZ=             -1.6489   YZ=             -1.1418

 Normal termination of Gaussian 09 at Wed Aug 26 15:57:05 2020.
