 Gaussian 09, Revision D.01,
 Gaussian 09:  ES64L-G09RevD.01 24-Apr-2013

 --------------------
 #p B2PLYPD3/Def2QZVP
 --------------------

 ----------
 butane_opt
 ----------
 Symbolic Z-matrix:
 Charge =  0 Multiplicity = 1

                         Standard orientation:
 ---------------------------------------------------------------------
 Center     Atomic      Atomic             Coordinates (Angstroms)
 Number     Number       Type             X           Y           Z
 ---------------------------------------------------------------------
      1          6           0        1.985942    0.141283   -0.179306
      2          6           0        0.440171   -0.610663    0.245512
      3          1           0        2.697546   -0.523425   -0.583957
      4          1           0        2.683361    0.955583    0.783164
      5          1           0        1.721899    0.575806   -0.996990
      6          6           0       -0.589379    0.470850    0.117837
      7          1           0        0.461521   -1.368585    1.156305
      8          1           0        0.375274   -0.881701   -0.404832
      9          6           0       -1.859872   -0.083529   -0.175702
     10          1           0       -0.496098    0.881750   -0.590369
     11          1           0       -0.571763    1.484659    1.134821
     12          1           0       -1.971884   -0.811288   -1.051440
     13          1           0       -2.642984    0.861210   -0.193190
     14          1           0       -2.118045   -0.681649    0.696433
 ---------------------------------------------------------------------

 SCF Done:  E(RB2PLYPD3) =  -157.667236572     A.U. after   11 cycles
 E2(B2PLYPD3) =    -0.2511688880D+00 E(B2PLYPD3) =    -0.15791840546017D+03

 The electronic state is 1-A.
 Alpha  occ. eigenvalues --  -10.62329 -10.61423 -10.60013 -10.59894  -0.96514
 Alpha  occ. eigenvalues --   -0.84597  -0.75250  -0.69872  -0.56281  -0.50175
 Alpha  occ. eigenvalues --   -0.48707  -0.47451  -0.43350  -0.40524  -0.39224
 Alpha  occ. eigenvalues --   -0.35824  -0.34950
 Alpha virt. eigenvalues --    0.04891   0.05717   0.06876   0.08551   0.10382
 Alpha virt. eigenvalues --    0.11315   0.12073   0.12401   0.14479   0.15573
 Alpha virt. eigenvalues --    0.16016   0.16427   0.18199   0.19534   0.21314

 Mulliken charges:
               1
     1  C   -0.196484
     2  C   -0.617481
     3  H    0.046582
     4  H    0.030171
     5  H    0.083893
     6  C   -0.195963
     7  H    0.078069
     8  H    0.548179
     9  C   -0.155515
    10  H    0.243789
    11  H   -0.003134
    12  H    0.044276
    13  H    0.042441
    14  H    0.051175
 Sum of Mulliken charges =   0.00000

 Dipole moment (field-independent basis, Debye):
    X=             -0.2362    Y=             -0.5586    Z=             -0.8114  Tot=              1.0130
 Quadrupole moment (field-independent basis, Debye-Ang):
   XX=            -30.9436   YY=            -28.9818   ZZ=            -28.0412
   XY=             -0.4280   XZ=             -0.3284   YZ=             -0.1215

 Normal termination of Gaussian 09 at Wed Aug 26 20:25:17 2020.
