 Gaussian 09, Revision D.01,
 Gaussian 09:  ES64L-G09RevD.01 24-Apr-2013

 --------------------
 #p B2PLYPD3/Def2QZVP
 --------------------

 ----------
 butane_opt
 ----------
 Symbolic Z-matrix:
 Charge =  0 Multiplicity = 1

                         Standard orientation:
 ---------------------------------------------------------------------
 Center     Atomic      Atomic             Coordinates (Angstroms)
 Number     Number       Type             X           Y           Z
 ---------------------------------------------------------------------
      1          6           0       -2.043944   -0.109973    0.013167
      2          6           0       -0.575398    0.641946   -0.088054
      3          1           0       -2.683646    0.326840    0.185547
      4          1           0       -2.162847   -0.948017    1.167800
      5          1           0       -2.279956   -0.626087   -0.844609
      6          6           0        0.636179   -0.562072    0.027397
      7          1           0       -0.557121    0.961541    0.553289
      8          1           0       -0.126747    1.353709   -1.169089
      9          6           0        1.927880    0.079866    0.073587
     10          1           0        0.565826   -1.181894   -0.842481
     11          1           0        0.606986   -1.020261    0.796542
     12          1           0        1.754949    0.350378   -0.616932
     13          1           0        2.803947   -0.763542   -0.616438
     14          1           0        2.410312    1.248724    1.229787
 ---------------------------------------------------------------------

 SCF Done:  E(RB2PLYPD3) =  -157.372015328     A.U. after   12 cycles
 E2(B2PLYPD3) =    -0.2554009300D+00 E(B2PLYPD3) =    -0.15762741625799D+03

 The electronic state is 1-A.
 Alpha  occ. eigenvalues --  -10.62604 -10.62237 -10.60709 -10.59513  -0.95029
 Alpha  occ. eigenvalues --   -0.87707  -0.78246  -0.71796  -0.56629  -0.51283
 Alpha  occ. eigenvalues --   -0.47889  -0.44249  -0.43779  -0.39825  -0.38804
 Alpha  occ. eigenvalues --   -0.37166  -0.33085
 Alpha virt. eigenvalues --    0.00619   0.04645   0.05157   0.07487   0.09789
 Alpha virt. eigenvalues --    0.10375   0.11664   0.13122   0.14300   0.14711
 Alpha virt. eigenvalues --    0.15873   0.16333   0.17937   0.19465   0.20402

 Mulliken charges:
               1
     1  C   -0.310397
     2  C   -0.532971
     3  H    0.234070
     4  H   -0.001251
     5  H    0.061526
     6  C   -0.058370
     7  H    0.464343
     8  H    0.048935
     9  C   -0.533522
    10  H    0.051302
    11  H    0.117994
    12  H    0.411808
    13  H    0.011358
    14  H    0.035175
 Sum of Mulliken charges =   0.00000

 Dipole moment (field-independent basis, Debye):
    X=             -0.8409    Y=              0.1625    Z=             -0.4901  Tot=              0.9868
 Quadrupole moment (field-independent basis, Debye-Ang):
   XX=            -31.3736   YY=            -29.4632   ZZ=            -27.6247
   XY=             -0.1973   XZ=             -0.7023   YZ=              1.1420

 Normal termination of Gaussian 09 at Wed Aug 26 18:53:59 2020.
