 Gaussian 09, Revision D.01,
 Gaussian 09:  ES64L-G09RevD.01 24-Apr-2013

 --------------------
 #p B2PLYPD3/Def2QZVP
 --------------------

 ----------
 butane_opt
 ----------
 Symbolic Z-matrix:
 Charge =  0 Multiplicity = 1

                         Standard orientation:
 ---------------------------------------------------------------------
 Center     Atomic      Atomic             Coordinates (Angstroms)
 Number     Number       Type             X           Y           Z
 ---------------------------------------------------------------------
      1          6           0        1.876386   -0.063350   -0.056511
      2          6           0        0.571197    0.427483    0.009631
      3          1           0        2.693275    0.752869    0.016724
      4          1           0        1.970232   -0.721629   -0.881811
      5          1           0        1.910998   -0.505444    0.828646
      6          6           0       -0.555544   -0.568006    0.178340
      7          1           0        0.539755    1.267186   -0.994893
      8          1           0        0.503387    0.991990    0.809566
      9          6           0       -1.930065    0.129006   -0.103619
     10          1           0       -0.485871   -1.230957    1.124223
     11          1           0       -0.210326   -1.359762   -0.596791
     12          1           0       -2.467919    1.307935    1.042009
     13          1           0       -2.418595   -0.447062   -0.803388
     14          1           0       -1.806775    0.394080   -0.711327
 ---------------------------------------------------------------------

 SCF Done:  E(RB2PLYPD3) =  -157.616355760     A.U. after   12 cycles
 E2(B2PLYPD3) =    -0.2531989339D+00 E(B2PLYPD3) =    -0.15786955469381D+03

 The electronic state is 1-A.
 Alpha  occ. eigenvalues --  -10.63192 -10.60854 -10.60022 -10.58149  -0.95526
 Alpha  occ. eigenvalues --   -0.90739  -0.76677  -0.66545  -0.55607  -0.51446
 Alpha  occ. eigenvalues --   -0.49189  -0.45546  -0.43276  -0.41298  -0.36864
 Alpha  occ. eigenvalues --   -0.36164  -0.35001
 Alpha virt. eigenvalues --    0.00438   0.05664   0.07172   0.07458   0.10146
 Alpha virt. eigenvalues --    0.10839   0.12317   0.12594   0.14290   0.15242
 Alpha virt. eigenvalues --    0.16666   0.17297   0.18104   0.18970   0.19886

 Mulliken charges:
               1
     1  C   -0.141530
     2  C   -0.041569
     3  H    0.042160
     4  H    0.046120
     5  H    0.054223
     6  C   -0.007509
     7  H   -0.024108
     8  H    0.059628
     9  C   -0.692497
    10  H    0.033108
    11  H    0.008378
    12  H    0.040609
    13  H    0.050051
    14  H    0.572937
 Sum of Mulliken charges =   0.00000

 Dipole moment (field-independent basis, Debye):
    X=              0.4074    Y=             -0.0972    Z=             -0.2123  Tot=              0.4695
 Quadrupole moment (field-independent basis, Debye-Ang):
   XX=            -31.4495   YY=            -29.3746   ZZ=            -27.4792
   XY=             -0.1237   XZ=              1.4265   YZ=              0.9875

 Normal termination of Gaussian 09 at Wed Aug 26 19:15:53 2020.
