 Gaussian 09, Revision D.01,
 Gaussian 09:  ES64L-G09RevD.01 24-Apr-2013

 --------------------
 #p B2PLYPD3/Def2QZVP
 --------------------

 ----------
 butane_opt
 ----------
 Symbolic Z-matrix:
 Charge =  0 Multiplicity = 1

                         Standard orientation:
 ---------------------------------------------------------------------
 Center     Atomic      Atomic             Coordinates (Angstroms)
 Number     Number       Type             X           Y           Z
 ---------------------------------------------------------------------
      1          6           0       -2.046682   -0.181033    0.151411
      2          6           0       -0.525732    0.579312   -0.156036
      3          1           0       -2.623424    0.303989    0.695598
      4          1           0       -1.856972   -0.601776    0.804870
      5          1           0       -2.765352   -0.756491   -0.924715
      6          6           0        0.658343   -0.397253   -0.167660
      7          1           0       -0.123786    1.119655    0.687219
      8          1           0       -0.659087    1.536175   -1.122792
      9          6           0        1.986589    0.015192    0.067202
     10          1           0        0.526496   -0.924275   -0.999452
     11          1           0        0.275932   -1.425886    0.685194
     12          1           0        1.993937    0.539640   -0.583443
     13          1           0        2.799976   -0.856319    0.079866
     14          1           0        1.997175    0.967983    1.308154
 ---------------------------------------------------------------------

 SCF Done:  E(RB2PLYPD3) =  -157.686539276     A.U. after   11 cycles
 E2(B2PLYPD3) =    -0.2546721877D+00 E(B2PLYPD3) =    -0.15794121146334D+03

 The electronic state is 1-A.
 Alpha  occ. eigenvalues --  -10.65129 -10.62675 -10.62601 -10.59797  -0.94252
 Alpha  occ. eigenvalues --   -0.87594  -0.77143  -0.66090  -0.54195  -0.52072
 Alpha  occ. eigenvalues --   -0.49282  -0.45409  -0.42810  -0.39691  -0.38386
 Alpha  occ. eigenvalues --   -0.36347  -0.33155
 Alpha virt. eigenvalues --    0.03524   0.05256   0.06277   0.07526   0.09595
 Alpha virt. eigenvalues --    0.10565   0.11552   0.12771   0.13540   0.14613
 Alpha virt. eigenvalues --    0.15654   0.16720   0.17338   0.19537   0.20001

 Mulliken charges:
               1
     1  C   -0.355843
     2  C   -0.083887
     3  H    0.067325
     4  H    0.248065
     5  H    0.049702
     6  C   -0.013174
     7  H    0.056776
     8  H    0.007746
     9  C   -0.305760
    10  H    0.065071
    11  H   -0.038681
    12  H    0.234039
    13  H    0.087209
    14  H   -0.018586
 Sum of Mulliken charges =   0.00000

 Dipole moment (field-independent basis, Debye):
    X=              0.0132    Y=             -0.2818    Z=             -0.3058  Tot=              0.4160
 Quadrupole moment (field-independent basis, Debye-Ang):
   XX=            -28.8039   YY=            -30.4308   ZZ=            -28.8574
   XY=             -0.7976   XZ=             -1.9193   YZ=              0.3360

 Normal termination of Gaussian 09 at Wed Aug 26 23:47:12 2020.
