 Gaussian 09, Revision D.01,
 Gaussian 09:  ES64L-G09RevD.01 24-Apr-2013

 --------------------
 #p B2PLYPD3/Def2QZVP
 --------------------

 ----------
 butane_opt
 ----------
 Symbolic Z-matrix:
 Charge =  0 Multiplicity = 1

                         Standard orientation:
 ---------------------------------------------------------------------
 Center     Atomic      Atomic             Coordinates (Angstroms)
 Number     Number       Type             X           Y           Z
 ---------------------------------------------------------------------
      1          6           0       -1.992699    0.192702    0.107358
      2          6           0       -0.454184   -0.565937   -0.057149
      3          1           0       -2.888009   -0.814900   -0.399952
      4          1           0       -1.943579    0.449354   -0.652751
      5          1           0       -2.139438    1.488472    1.158752
      6          6           0        0.570600    0.363525   -0.214414
      7          1           0       -0.528445   -1.154112   -0.725815
      8          1           0       -0.184053   -1.292613    1.105432
      9          6           0        1.860105   -0.068694    0.147320
     10          1           0        0.512244    1.023576    0.603162
     11          1           0        0.541237    1.076491   -1.335228
     12          1           0        1.927053   -0.489787    1.120764
     13          1           0        2.734629    0.892753   -0.084277
     14          1           0        2.065433   -0.708807   -0.688775
 ---------------------------------------------------------------------

 SCF Done:  E(RB2PLYPD3) =  -157.696258702     A.U. after   12 cycles
 E2(B2PLYPD3) =    -0.2583718776D+00 E(B2PLYPD3) =    -0.15795463057958D+03

 The electronic state is 1-A.
 Alpha  occ. eigenvalues --  -10.65567 -10.62971 -10.61430 -10.61137  -0.95651
 Alpha  occ. eigenvalues --   -0.85050  -0.75199  -0.66839  -0.56252  -0.51347
 Alpha  occ. eigenvalues --   -0.47333  -0.47027  -0.40375  -0.38238  -0.36880
 Alpha  occ. eigenvalues --   -0.35940  -0.34376
 Alpha virt. eigenvalues --   -0.00583   0.04995   0.05500   0.06748   0.09558
 Alpha virt. eigenvalues --    0.10238   0.11308   0.11749   0.13793   0.14693
 Alpha virt. eigenvalues --    0.15453   0.15750   0.17159   0.18927   0.20901

 Mulliken charges:
               1
     1  C   -0.424228
     2  C   -0.100363
     3  H    0.011033
     4  H    0.330717
     5  H    0.054662
     6  C   -0.032266
     7  H    0.124300
     8  H   -0.012141
     9  C   -0.142397
    10  H    0.053571
    11  H    0.007796
    12  H    0.075643
    13  H    0.016717
    14  H    0.036956
 Sum of Mulliken charges =   0.00000

 Dipole moment (field-independent basis, Debye):
    X=              0.3927    Y=              0.1518    Z=             -0.6031  Tot=              0.7355
 Quadrupole moment (field-independent basis, Debye-Ang):
   XX=            -33.5230   YY=            -29.6643   ZZ=            -28.3342
   XY=             -0.1927   XZ=              1.7082   YZ=              1.2341

 Normal termination of Gaussian 09 at Wed Aug 26 12:01:50 2020.
