 Gaussian 09, Revision D.01,
 Gaussian 09:  ES64L-G09RevD.01 24-Apr-2013

 --------------------
 #p B2PLYPD3/Def2QZVP
 --------------------

 ----------
 butane_opt
 ----------
 Symbolic Z-matrix:
 Charge =  0 Multiplicity = 1

                         Standard orientation:
 ---------------------------------------------------------------------
 Center     Atomic      Atomic             Coordinates (Angstroms)
 Number     Number       Type             X           Y           Z
 ---------------------------------------------------------------------
      1          6           0       -1.957215    0.102484   -0.150060
      2          6           0       -0.637716   -0.529485    0.183236
      3          1           0       -2.610774   -0.518829   -0.300856
      4          1           0       -2.098109    0.615603   -1.023151
      5          1           0       -2.097919    0.589877    0.533329
      6          6           0        0.588553    0.624205    0.137629
      7          1           0       -0.489725   -1.014420   -0.514257
      8          1           0       -0.731174   -1.224161    1.163915
      9          6           0        1.973549   -0.168414   -0.185627
     10          1           0        0.668122    1.627567    1.168117
     11          1           0        0.082460    0.877242   -0.303077
     12          1           0        2.611425   -0.957065    0.869735
     13          1           0        2.838227    0.529616   -0.667755
     14          1           0        2.024435   -0.698169   -0.837063
 ---------------------------------------------------------------------

 SCF Done:  E(RB2PLYPD3) =  -157.553705975     A.U. after   11 cycles
 E2(B2PLYPD3) =    -0.2508536733D+00 E(B2PLYPD3) =    -0.15780455964797D+03

 The electronic state is 1-A.
 Alpha  occ. eigenvalues --  -10.63433 -10.62383 -10.60194 -10.54223  -0.94566
 Alpha  occ. eigenvalues --   -0.85914  -0.78993  -0.72351  -0.57062  -0.54039
 Alpha  occ. eigenvalues --   -0.48645  -0.45419  -0.43813  -0.40946  -0.39382
 Alpha  occ. eigenvalues --   -0.38198  -0.33280
 Alpha virt. eigenvalues --    0.03937   0.06441   0.07402   0.08774   0.10021
 Alpha virt. eigenvalues --    0.11533   0.12861   0.13551   0.14610   0.15309
 Alpha virt. eigenvalues --    0.15989   0.17180   0.18407   0.19596   0.20488

 Mulliken charges:
               1
     1  C   -0.223660
     2  C   -0.163002
     3  H    0.047470
     4  H    0.013957
     5  H    0.143709
     6  C   -0.524138
     7  H    0.162703
     8  H    0.030661
     9  C   -0.237166
    10  H    0.019940
    11  H    0.502766
    12  H    0.027547
    13  H    0.026104
    14  H    0.173108
 Sum of Mulliken charges =   0.00000

 Dipole moment (field-independent basis, Debye):
    X=             -0.6663    Y=             -0.3857    Z=             -0.9069  Tot=              1.1896
 Quadrupole moment (field-independent basis, Debye-Ang):
   XX=            -28.4026   YY=            -28.9202   ZZ=            -28.0609
   XY=             -0.4998   XZ=             -0.5066   YZ=              0.3267

 Normal termination of Gaussian 09 at Wed Aug 26 19:10:42 2020.
