 Gaussian 09, Revision D.01,
 Gaussian 09:  ES64L-G09RevD.01 24-Apr-2013

 --------------------
 #p B2PLYPD3/Def2QZVP
 --------------------

 ----------
 butane_opt
 ----------
 Symbolic Z-matrix:
 Charge =  0 Multiplicity = 1

                         Standard orientation:
 ---------------------------------------------------------------------
 Center     Atomic      Atomic             Coordinates (Angstroms)
 Number     Number       Type             X           Y           Z
 ---------------------------------------------------------------------
      1          6           0       -1.909711    0.082924   -0.066946
      2          6           0       -0.582259   -0.446052    0.017177
      3          1           0       -2.655707   -0.700639    0.036309
      4          1           0       -1.997349    0.957857   -0.989318
      5          1           0       -1.925636    0.540160    0.677607
      6          6           0        0.494958    0.520251    0.180999
      7          1           0       -0.287800   -1.043753   -0.859305
      8          1           0       -0.667284   -1.193873    0.922092
      9          6           0        1.972356   -0.141689   -0.108738
     10          1           0        0.467238    1.029938    1.091103
     11          1           0        0.348119    1.100321   -0.605938
     12          1           0        2.406535   -0.793497    0.780250
     13          1           0        2.684770    0.599295   -0.255909
     14          1           0        1.775052   -0.588407   -0.931843
 ---------------------------------------------------------------------

 SCF Done:  E(RB2PLYPD3) =  -158.006488013     A.U. after   11 cycles
 E2(B2PLYPD3) =    -0.2466004655D+00 E(B2PLYPD3) =    -0.15825308847805D+03

 The electronic state is 1-A.
 Alpha  occ. eigenvalues --  -10.59997 -10.59240 -10.58860 -10.58420  -0.94085
 Alpha  occ. eigenvalues --   -0.84755  -0.74833  -0.66625  -0.56013  -0.51655
 Alpha  occ. eigenvalues --   -0.50279  -0.47183  -0.44322  -0.41768  -0.39352
 Alpha  occ. eigenvalues --   -0.37076  -0.36296
 Alpha virt. eigenvalues --    0.05861   0.06986   0.08081   0.08642   0.10913
 Alpha virt. eigenvalues --    0.12029   0.12947   0.13966   0.14810   0.15302
 Alpha virt. eigenvalues --    0.15951   0.16463   0.18924   0.20264   0.22177

 Mulliken charges:
               1
     1  C   -0.219577
     2  C   -0.002804
     3  H    0.055718
     4  H    0.008466
     5  H    0.134994
     6  C   -0.090021
     7  H    0.021714
     8  H    0.000450
     9  C   -0.164588
    10  H    0.034379
    11  H    0.064112
    12  H    0.033605
    13  H    0.044611
    14  H    0.078941
 Sum of Mulliken charges =   0.00000

 Dipole moment (field-independent basis, Debye):
    X=              0.0264    Y=              0.1607    Z=              0.1581  Tot=              0.2269
 Quadrupole moment (field-independent basis, Debye-Ang):
   XX=            -29.5782   YY=            -29.1534   ZZ=            -27.8936
   XY=              0.8955   XZ=             -0.8155   YZ=             -0.1606

 Normal termination of Gaussian 09 at Wed Aug 26 18:46:48 2020.
