 Gaussian 09, Revision D.01,
 Gaussian 09:  ES64L-G09RevD.01 24-Apr-2013

 --------------------
 #p B2PLYPD3/Def2QZVP
 --------------------

 ----------
 butane_opt
 ----------
 Symbolic Z-matrix:
 Charge =  0 Multiplicity = 1

                         Standard orientation:
 ---------------------------------------------------------------------
 Center     Atomic      Atomic             Coordinates (Angstroms)
 Number     Number       Type             X           Y           Z
 ---------------------------------------------------------------------
      1          6           0       -1.923759    0.104263   -0.013519
      2          6           0       -0.567576   -0.506106    0.013930
      3          1           0       -2.702707   -0.682391   -0.016318
      4          1           0       -2.068011    0.830325   -0.931567
      5          1           0       -1.953429    0.698187    0.811646
      6          6           0        0.553441    0.516256    0.041171
      7          1           0       -0.444262   -1.123429   -0.833719
      8          1           0       -0.494932   -1.122794    0.826787
      9          6           0        1.923391   -0.117035   -0.052235
     10          1           0        0.431427    1.224722    1.002545
     11          1           0        0.410022    1.121615   -0.747191
     12          1           0        2.156005   -0.875232    0.935281
     13          1           0        2.643017    0.588000   -0.105537
     14          1           0        2.109895   -0.643267   -0.878001
 ---------------------------------------------------------------------

 SCF Done:  E(RB2PLYPD3) =  -158.079898152     A.U. after   11 cycles
 E2(B2PLYPD3) =    -0.2456848762D+00 E(B2PLYPD3) =    -0.15832558302844D+03

 The electronic state is 1-A.
 Alpha  occ. eigenvalues --  -10.60353 -10.59507 -10.59468 -10.58438  -0.92202
 Alpha  occ. eigenvalues --   -0.84203  -0.73275  -0.67485  -0.54742  -0.50589
 Alpha  occ. eigenvalues --   -0.49591  -0.46993  -0.43582  -0.40547  -0.39128
 Alpha  occ. eigenvalues --   -0.37939  -0.37775
 Alpha virt. eigenvalues --    0.05769   0.06829   0.08174   0.08822   0.11039
 Alpha virt. eigenvalues --    0.12045   0.12957   0.13973   0.14736   0.15226
 Alpha virt. eigenvalues --    0.15789   0.16451   0.19769   0.20523   0.21967

 Mulliken charges:
               1
     1  C   -0.151001
     2  C   -0.034084
     3  H    0.047105
     4  H    0.022054
     5  H    0.058778
     6  C   -0.043626
     7  H    0.027293
     8  H    0.040915
     9  C   -0.131248
    10  H    0.005370
    11  H    0.051690
    12  H    0.014788
    13  H    0.046434
    14  H    0.045533
 Sum of Mulliken charges =   0.00000

 Dipole moment (field-independent basis, Debye):
    X=              0.0944    Y=              0.0051    Z=             -0.2397  Tot=              0.2576
 Quadrupole moment (field-independent basis, Debye-Ang):
   XX=            -29.7190   YY=            -28.6893   ZZ=            -28.1311
   XY=              0.6859   XZ=             -0.8755   YZ=             -0.1599

 Normal termination of Gaussian 09 at Wed Aug 26 09:44:49 2020.
