 Gaussian 09, Revision D.01,
 Gaussian 09:  ES64L-G09RevD.01 24-Apr-2013

 --------------------
 #p B2PLYPD3/Def2QZVP
 --------------------

 ----------
 butane_opt
 ----------
 Symbolic Z-matrix:
 Charge =  0 Multiplicity = 1

                         Standard orientation:
 ---------------------------------------------------------------------
 Center     Atomic      Atomic             Coordinates (Angstroms)
 Number     Number       Type             X           Y           Z
 ---------------------------------------------------------------------
      1          6           0        1.898000    0.097289   -0.051512
      2          6           0        0.548840   -0.532356    0.117321
      3          1           0        2.636934   -0.627053   -0.729276
      4          1           0        2.713115    1.129052    0.902766
      5          1           0        1.642432    0.423117   -0.819489
      6          6           0       -0.522480    0.438989   -0.015453
      7          1           0        0.205732   -1.239182    1.144424
      8          1           0        0.417762   -0.831383   -0.368717
      9          6           0       -1.890234   -0.093791   -0.051801
     10          1           0       -0.181912    0.918050   -0.859122
     11          1           0       -0.564548    1.266559    0.901219
     12          1           0       -2.211768   -0.725748   -0.907193
     13          1           0       -2.917069    0.852888   -0.098923
     14          1           0       -1.945432   -0.627084    0.842974
 ---------------------------------------------------------------------

 SCF Done:  E(RB2PLYPD3) =  -157.358953745     A.U. after   12 cycles
 E2(B2PLYPD3) =    -0.2540605154D+00 E(B2PLYPD3) =    -0.15761301426004D+03

 The electronic state is 1-A.
 Alpha  occ. eigenvalues --  -10.63837 -10.62661 -10.61025 -10.60335  -0.99843
 Alpha  occ. eigenvalues --   -0.85803  -0.76960  -0.69300  -0.57304  -0.51751
 Alpha  occ. eigenvalues --   -0.48485  -0.46444  -0.41388  -0.40727  -0.38647
 Alpha  occ. eigenvalues --   -0.36975  -0.35369
 Alpha virt. eigenvalues --    0.02238   0.04909   0.07511   0.08179   0.08762
 Alpha virt. eigenvalues --    0.10459   0.12205   0.12956   0.14403   0.15292
 Alpha virt. eigenvalues --    0.15942   0.16694   0.18393   0.19186   0.20320

 Mulliken charges:
               1
     1  C   -0.282330
     2  C   -0.888635
     3  H    0.034391
     4  H    0.056329
     5  H    0.215056
     6  C    0.045405
     7  H    0.028444
     8  H    0.762483
     9  C   -0.153485
    10  H    0.034994
    11  H    0.023491
    12  H    0.036765
    13  H    0.012205
    14  H    0.074887
 Sum of Mulliken charges =   0.00000

 Dipole moment (field-independent basis, Debye):
    X=             -0.0581    Y=             -0.1026    Z=             -0.7791  Tot=              0.7880
 Quadrupole moment (field-independent basis, Debye-Ang):
   XX=            -30.9054   YY=            -30.0638   ZZ=            -28.0591
   XY=              1.1723   XZ=             -0.8036   YZ=              0.8965

 Normal termination of Gaussian 09 at Wed Aug 26 22:07:13 2020.
