 Gaussian 09, Revision D.01,
 Gaussian 09:  ES64L-G09RevD.01 24-Apr-2013

 --------------------
 #p B2PLYPD3/Def2QZVP
 --------------------

 ----------
 butane_opt
 ----------
 Symbolic Z-matrix:
 Charge =  0 Multiplicity = 1

                         Standard orientation:
 ---------------------------------------------------------------------
 Center     Atomic      Atomic             Coordinates (Angstroms)
 Number     Number       Type             X           Y           Z
 ---------------------------------------------------------------------
      1          6           0        1.888084    0.008430   -0.210813
      2          6           0        0.658159   -0.386835    0.389755
      3          1           0        2.763119   -0.879471   -0.789684
      4          1           0        2.601706    1.082433    0.636799
      5          1           0        1.636535    0.284442   -1.114799
      6          6           0       -0.574982    0.620379   -0.071631
      7          1           0        0.956909   -1.017634    1.735647
      8          1           0        0.398475   -1.071009   -0.306367
      9          6           0       -2.070567   -0.170275   -0.139345
     10          1           0       -0.113798    0.870405   -0.805430
     11          1           0       -0.511396    1.728006    0.856257
     12          1           0       -2.210587   -1.262645   -0.877472
     13          1           0       -2.688856    0.377589   -0.011547
     14          1           0       -2.236270   -0.542305    0.868798
 ---------------------------------------------------------------------

 SCF Done:  E(RB2PLYPD3) =  -157.705747335     A.U. after   12 cycles
 E2(B2PLYPD3) =    -0.2585428506D+00 E(B2PLYPD3) =    -0.15796429018546D+03

 The electronic state is 1-A.
 Alpha  occ. eigenvalues --  -10.65747 -10.65259 -10.64320 -10.62193  -0.93337
 Alpha  occ. eigenvalues --   -0.85311  -0.75816  -0.66038  -0.53104  -0.50406
 Alpha  occ. eigenvalues --   -0.47891  -0.45993  -0.41613  -0.40107  -0.38229
 Alpha  occ. eigenvalues --   -0.35323  -0.32716
 Alpha virt. eigenvalues --    0.02723   0.05357   0.05497   0.06350   0.08223
 Alpha virt. eigenvalues --    0.09673   0.11269   0.12486   0.13769   0.14052
 Alpha virt. eigenvalues --    0.15459   0.16329   0.17811   0.18347   0.19231

 Mulliken charges:
               1
     1  C   -0.183959
     2  C   -0.103903
     3  H    0.031482
     4  H    0.003604
     5  H    0.086650
     6  C   -0.142279
     7  H    0.015712
     8  H    0.110162
     9  C   -0.254596
    10  H    0.148827
    11  H    0.004238
    12  H    0.054800
    13  H    0.174155
    14  H    0.055107
 Sum of Mulliken charges =   0.00000

 Dipole moment (field-independent basis, Debye):
    X=             -0.9487    Y=             -0.3928    Z=             -0.8105  Tot=              1.3082
 Quadrupole moment (field-independent basis, Debye-Ang):
   XX=            -30.9303   YY=            -30.6301   ZZ=            -29.2072
   XY=             -0.0271   XZ=             -1.5436   YZ=              1.1537

 Normal termination of Gaussian 09 at Wed Aug 26 19:44:29 2020.
