 Gaussian 09, Revision D.01,
 Gaussian 09:  ES64L-G09RevD.01 24-Apr-2013

 --------------------
 #p B2PLYPD3/Def2QZVP
 --------------------

 ----------
 butane_opt
 ----------
 Symbolic Z-matrix:
 Charge =  0 Multiplicity = 1

                         Standard orientation:
 ---------------------------------------------------------------------
 Center     Atomic      Atomic             Coordinates (Angstroms)
 Number     Number       Type             X           Y           Z
 ---------------------------------------------------------------------
      1          6           0       -1.824782   -0.045994    0.152195
      2          6           0       -0.607847    0.434099   -0.317158
      3          1           0       -2.477146    0.778463    0.709459
      4          1           0       -1.626553   -0.736542    1.129005
      5          1           0       -2.445982   -0.690221   -0.554403
      6          6           0        0.450376   -0.575373   -0.134654
      7          1           0       -0.348311    1.153331    0.430891
      8          1           0       -0.452685    1.169770   -1.265335
      9          6           0        1.976800    0.114170    0.164375
     10          1           0        0.252996   -1.171741   -0.814760
     11          1           0        0.296826   -1.074642    0.807248
     12          1           0        2.098199    0.333031   -0.597948
     13          1           0        2.641303   -0.452682   -0.119740
     14          1           0        2.094077    1.129826    1.087034
 ---------------------------------------------------------------------

 SCF Done:  E(RB2PLYPD3) =  -157.820836108     A.U. after   11 cycles
 E2(B2PLYPD3) =    -0.2514548178D+00 E(B2PLYPD3) =    -0.15807229092551D+03

 The electronic state is 1-A.
 Alpha  occ. eigenvalues --  -10.61745 -10.59718 -10.58946 -10.58198  -0.94177
 Alpha  occ. eigenvalues --   -0.87978  -0.76669  -0.66524  -0.55596  -0.49923
 Alpha  occ. eigenvalues --   -0.48284  -0.46662  -0.43569  -0.41692  -0.37428
 Alpha  occ. eigenvalues --   -0.35738  -0.34552
 Alpha virt. eigenvalues --    0.05325   0.06151   0.07674   0.08203   0.10838
 Alpha virt. eigenvalues --    0.11035   0.11819   0.14047   0.15093   0.15349
 Alpha virt. eigenvalues --    0.15930   0.16483   0.19115   0.19467   0.21630

 Mulliken charges:
               1
     1  C   -0.154404
     2  C   -0.032874
     3  H    0.039823
     4  H    0.033810
     5  H    0.042737
     6  C   -0.100073
     7  H    0.030192
     8  H    0.022948
     9  C   -0.409508
    10  H    0.085148
    11  H    0.042298
    12  H    0.259483
    13  H    0.069038
    14  H    0.071381
 Sum of Mulliken charges =   0.00000

 Dipole moment (field-independent basis, Debye):
    X=              0.2977    Y=              0.1208    Z=             -0.3173  Tot=              0.4515
 Quadrupole moment (field-independent basis, Debye-Ang):
   XX=            -29.8174   YY=            -28.7960   ZZ=            -27.9906
   XY=              0.5537   XZ=             -1.2732   YZ=              1.1385

 Normal termination of Gaussian 09 at Wed Aug 26 16:06:10 2020.
