 Gaussian 09, Revision D.01,
 Gaussian 09:  ES64L-G09RevD.01 24-Apr-2013

 --------------------
 #p B2PLYPD3/Def2QZVP
 --------------------

 ----------
 butane_opt
 ----------
 Symbolic Z-matrix:
 Charge =  0 Multiplicity = 1

                         Standard orientation:
 ---------------------------------------------------------------------
 Center     Atomic      Atomic             Coordinates (Angstroms)
 Number     Number       Type             X           Y           Z
 ---------------------------------------------------------------------
      1          6           0       -1.964260   -0.020068    0.132800
      2          6           0       -0.658875    0.462857   -0.104536
      3          1           0       -2.815790    0.802128   -0.207941
      4          1           0       -2.042789   -0.598380    1.108604
      5          1           0       -2.019910   -0.796957   -0.785793
      6          6           0        0.548762   -0.612913    0.060358
      7          1           0       -0.490088    0.803003    0.400863
      8          1           0       -0.495960    1.308121   -1.311511
      9          6           0        1.968801    0.176760    0.007930
     10          1           0        0.531469   -1.481343   -0.821204
     11          1           0        0.343491   -1.288233    0.940057
     12          1           0        2.060432    0.141661   -0.526524
     13          1           0        2.803727   -0.500915   -0.582060
     14          1           0        2.758847    1.571102    1.206192
 ---------------------------------------------------------------------

 SCF Done:  E(RB2PLYPD3) =  -156.700553851     A.U. after   14 cycles
 E2(B2PLYPD3) =    -0.2636376550D+00 E(B2PLYPD3) =    -0.15696419150645D+03

 The electronic state is 1-A.
 Alpha  occ. eigenvalues --  -10.66409 -10.65955 -10.62953 -10.60543  -0.96909
 Alpha  occ. eigenvalues --   -0.93331  -0.76189  -0.71185  -0.53462  -0.50005
 Alpha  occ. eigenvalues --   -0.48022  -0.44926  -0.42037  -0.38019  -0.37315
 Alpha  occ. eigenvalues --   -0.35117  -0.32750
 Alpha virt. eigenvalues --   -0.04628   0.03872   0.05380   0.06050   0.09424
 Alpha virt. eigenvalues --    0.10861   0.11166   0.12132   0.14241   0.14708
 Alpha virt. eigenvalues --    0.15815   0.16543   0.17711   0.18458   0.19235

 Mulliken charges:
               1
     1  C   -0.129076
     2  C   -0.717152
     3  H    0.062797
     4  H    0.065522
     5  H    0.034708
     6  C    0.038562
     7  H    0.660160
     8  H    0.006515
     9  C   -0.989021
    10  H    0.003750
    11  H    0.044517
    12  H    0.832716
    13  H    0.037587
    14  H    0.048416
 Sum of Mulliken charges =   0.00000

 Dipole moment (field-independent basis, Debye):
    X=             -0.2457    Y=             -0.2369    Z=             -0.2313  Tot=              0.4123
 Quadrupole moment (field-independent basis, Debye-Ang):
   XX=            -30.9122   YY=            -29.5471   ZZ=            -28.2434
   XY=              0.2014   XZ=             -1.9148   YZ=              0.8926

 Normal termination of Gaussian 09 at Wed Aug 26 10:12:47 2020.
