 Gaussian 09, Revision D.01,
 Gaussian 09:  ES64L-G09RevD.01 24-Apr-2013

 --------------------
 #p B2PLYPD3/Def2QZVP
 --------------------

 ----------
 butane_opt
 ----------
 Symbolic Z-matrix:
 Charge =  0 Multiplicity = 1

                         Standard orientation:
 ---------------------------------------------------------------------
 Center     Atomic      Atomic             Coordinates (Angstroms)
 Number     Number       Type             X           Y           Z
 ---------------------------------------------------------------------
      1          6           0       -1.859877    0.056422   -0.072543
      2          6           0       -0.582092   -0.471175    0.112173
      3          1           0       -2.680596   -0.734440   -0.537762
      4          1           0       -1.935792    0.702147   -0.870160
      5          1           0       -2.164152    0.805847    0.986417
      6          6           0        0.454565    0.532164    0.164926
      7          1           0       -0.525971   -1.083255   -0.735809
      8          1           0       -0.567549   -1.038382    0.772010
      9          6           0        1.927942   -0.141375   -0.129472
     10          1           0        0.529376    1.158952    1.021987
     11          1           0        0.267552    1.204716   -0.751550
     12          1           0        2.541702   -1.089320    0.998488
     13          1           0        2.891455    0.607412   -0.582151
     14          1           0        2.000742   -0.389898   -0.751968
 ---------------------------------------------------------------------

 SCF Done:  E(RB2PLYPD3) =  -157.625682947     A.U. after   11 cycles
 E2(B2PLYPD3) =    -0.2518134115D+00 E(B2PLYPD3) =    -0.15787749635835D+03

 The electronic state is 1-A.
 Alpha  occ. eigenvalues --  -10.63076 -10.62656 -10.62301 -10.56767  -0.95656
 Alpha  occ. eigenvalues --   -0.86803  -0.76417  -0.70254  -0.56529  -0.52574
 Alpha  occ. eigenvalues --   -0.49440  -0.44823  -0.43506  -0.41021  -0.38002
 Alpha  occ. eigenvalues --   -0.36207  -0.35530
 Alpha virt. eigenvalues --    0.03683   0.05058   0.07133   0.07850   0.09881
 Alpha virt. eigenvalues --    0.10412   0.11463   0.12464   0.14060   0.15625
 Alpha virt. eigenvalues --    0.16083   0.16997   0.18762   0.19577   0.20386

 Mulliken charges:
               1
     1  C   -0.136657
     2  C   -0.052922
     3  H    0.029080
     4  H    0.049911
     5  H    0.009055
     6  C    0.004586
     7  H    0.017744
     8  H    0.093731
     9  C   -0.661759
    10  H    0.064517
    11  H    0.028023
    12  H    0.014835
    13  H    0.028775
    14  H    0.511081
 Sum of Mulliken charges =   0.00000

 Dipole moment (field-independent basis, Debye):
    X=             -0.3553    Y=             -0.0893    Z=             -0.7497  Tot=              0.8344
 Quadrupole moment (field-independent basis, Debye-Ang):
   XX=            -32.6413   YY=            -29.3971   ZZ=            -27.6718
   XY=              0.3689   XZ=              0.0128   YZ=              0.0663

 Normal termination of Gaussian 09 at Wed Aug 26 13:24:34 2020.
