 Gaussian 09, Revision D.01,
 Gaussian 09:  ES64L-G09RevD.01 24-Apr-2013

 --------------------
 #p B2PLYPD3/Def2QZVP
 --------------------

 ----------
 butane_opt
 ----------
 Symbolic Z-matrix:
 Charge =  0 Multiplicity = 1

                         Standard orientation:
 ---------------------------------------------------------------------
 Center     Atomic      Atomic             Coordinates (Angstroms)
 Number     Number       Type             X           Y           Z
 ---------------------------------------------------------------------
      1          6           0        1.964174    0.149940    0.006036
      2          6           0        0.507664   -0.490780   -0.008122
      3          1           0        2.787530   -0.706806   -0.347340
      4          1           0        2.200548    1.184903    1.092368
      5          1           0        1.896551    0.293859   -0.562205
      6          6           0       -0.571407    0.478606   -0.097528
      7          1           0        0.296337   -1.255599    1.016476
      8          1           0        0.563949   -1.217663   -0.789664
      9          6           0       -1.891730   -0.117895    0.079368
     10          1           0       -0.499459    1.168219   -1.065489
     11          1           0       -0.385730    1.101247    0.701505
     12          1           0       -2.122743   -0.678786   -0.780152
     13          1           0       -2.778985    0.722002   -0.127374
     14          1           0       -2.010207   -0.730600    0.983355
 ---------------------------------------------------------------------

 SCF Done:  E(RB2PLYPD3) =  -157.483152983     A.U. after   12 cycles
 E2(B2PLYPD3) =    -0.2521594233D+00 E(B2PLYPD3) =    -0.15773531240666D+03

 The electronic state is 1-A.
 Alpha  occ. eigenvalues --  -10.62770 -10.62356 -10.60803 -10.60473  -0.94872
 Alpha  occ. eigenvalues --   -0.88275  -0.75136  -0.66509  -0.54622  -0.49933
 Alpha  occ. eigenvalues --   -0.49016  -0.46924  -0.42764  -0.40281  -0.37550
 Alpha  occ. eigenvalues --   -0.37028  -0.36470
 Alpha virt. eigenvalues --    0.03995   0.06018   0.07116   0.07181   0.10462
 Alpha virt. eigenvalues --    0.10908   0.11960   0.12762   0.14459   0.15431
 Alpha virt. eigenvalues --    0.15451   0.16234   0.17934   0.19726   0.21075

 Mulliken charges:
               1
     1  C   -0.928420
     2  C    0.018795
     3  H    0.073113
     4  H    0.051469
     5  H    0.730172
     6  C   -0.025280
     7  H   -0.004355
     8  H    0.035975
     9  C   -0.148704
    10  H    0.009216
    11  H    0.060225
    12  H    0.044458
    13  H    0.020413
    14  H    0.062924
 Sum of Mulliken charges =   0.00000

 Dipole moment (field-independent basis, Debye):
    X=             -0.1964    Y=              0.0149    Z=             -0.5392  Tot=              0.5740
 Quadrupole moment (field-independent basis, Debye-Ang):
   XX=            -31.0311   YY=            -29.2051   ZZ=            -28.0406
   XY=              0.0216   XZ=             -0.6585   YZ=              0.6999

 Normal termination of Gaussian 09 at Wed Aug 26 13:47:09 2020.
