 Gaussian 09, Revision D.01,
 Gaussian 09:  ES64L-G09RevD.01 24-Apr-2013

 --------------------
 #p B2PLYPD3/Def2QZVP
 --------------------

 ----------
 butane_opt
 ----------
 Symbolic Z-matrix:
 Charge =  0 Multiplicity = 1

                         Standard orientation:
 ---------------------------------------------------------------------
 Center     Atomic      Atomic             Coordinates (Angstroms)
 Number     Number       Type             X           Y           Z
 ---------------------------------------------------------------------
      1          6           0        2.049448    0.123099    0.076728
      2          6           0        0.587906   -0.540665    0.048209
      3          1           0        2.604249   -0.636330   -0.514097
      4          1           0        2.570872    1.393285    1.076698
      5          1           0        1.853698    0.336880   -0.648716
      6          6           0       -0.613830    0.499551   -0.190337
      7          1           0        0.406598   -1.007163    0.961353
      8          1           0        0.337302   -1.372433   -0.848863
      9          6           0       -1.975471   -0.098541    0.142929
     10          1           0       -0.621165    1.203586   -1.214644
     11          1           0       -0.473780    0.845101    0.318907
     12          1           0       -1.945916   -0.919333   -0.754159
     13          1           0       -2.919853    0.872839    0.109481
     14          1           0       -2.100325   -0.617096    1.048868
 ---------------------------------------------------------------------

 SCF Done:  E(RB2PLYPD3) =  -157.386471672     A.U. after   12 cycles
 E2(B2PLYPD3) =    -0.2563905725D+00 E(B2PLYPD3) =    -0.15764286224470D+03

 The electronic state is 1-A.
 Alpha  occ. eigenvalues --  -10.63663 -10.63530 -10.61864 -10.58597  -0.94495
 Alpha  occ. eigenvalues --   -0.87834  -0.73945  -0.69924  -0.55316  -0.48683
 Alpha  occ. eigenvalues --   -0.46026  -0.45185  -0.41749  -0.39489  -0.38526
 Alpha  occ. eigenvalues --   -0.37170  -0.34889
 Alpha virt. eigenvalues --   -0.00103   0.04659   0.06988   0.07912   0.10289
 Alpha virt. eigenvalues --    0.11053   0.11726   0.12545   0.13578   0.15173
 Alpha virt. eigenvalues --    0.15757   0.16469   0.17502   0.18969   0.19724

 Mulliken charges:
               1
     1  C   -0.516276
     2  C   -0.029198
     3  H    0.058161
     4  H    0.069533
     5  H    0.382327
     6  C   -0.761748
     7  H    0.059699
     8  H    0.012011
     9  C   -0.147105
    10  H    0.058002
    11  H    0.668624
    12  H    0.043201
    13  H    0.031564
    14  H    0.071206
 Sum of Mulliken charges =   0.00000

 Dipole moment (field-independent basis, Debye):
    X=              0.0898    Y=              0.2885    Z=             -0.0617  Tot=              0.3084
 Quadrupole moment (field-independent basis, Debye-Ang):
   XX=            -32.2652   YY=            -28.7763   ZZ=            -27.9393
   XY=              0.4245   XZ=             -1.5143   YZ=              0.9069

 Normal termination of Gaussian 09 at Wed Aug 26 11:26:48 2020.
