 Gaussian 09, Revision D.01,
 Gaussian 09:  ES64L-G09RevD.01 24-Apr-2013

 --------------------
 #p B2PLYPD3/Def2QZVP
 --------------------

 ----------
 butane_opt
 ----------
 Symbolic Z-matrix:
 Charge =  0 Multiplicity = 1

                         Standard orientation:
 ---------------------------------------------------------------------
 Center     Atomic      Atomic             Coordinates (Angstroms)
 Number     Number       Type             X           Y           Z
 ---------------------------------------------------------------------
      1          6           0        1.937851    0.041897   -0.109831
      2          6           0        0.584704   -0.400003    0.164982
      3          1           0        2.969821   -1.057016   -0.057411
      4          1           0        2.134056    0.576358    0.641122
      5          1           0        2.184683    0.844520   -1.254009
      6          6           0       -0.560655    0.583301    0.097408
      7          1           0        0.768359   -0.864066    1.120358
      8          1           0        0.208611   -1.125313   -0.711581
      9          6           0       -2.016958   -0.189067   -0.143703
     10          1           0       -0.217032    0.907122   -0.519710
     11          1           0       -0.604366    1.716481    1.195387
     12          1           0       -1.975746   -0.591643   -0.765877
     13          1           0       -2.557072    0.416938   -0.691227
     14          1           0       -2.580965   -1.040153    0.989812
 ---------------------------------------------------------------------

 SCF Done:  E(RB2PLYPD3) =  -157.529788843     A.U. after   12 cycles
 E2(B2PLYPD3) =    -0.2556698966D+00 E(B2PLYPD3) =    -0.15778545873965D+03

 The electronic state is 1-A.
 Alpha  occ. eigenvalues --  -10.65124 -10.63302 -10.62487 -10.60958  -0.95424
 Alpha  occ. eigenvalues --   -0.88335  -0.79757  -0.66674  -0.54664  -0.50743
 Alpha  occ. eigenvalues --   -0.49281  -0.44243  -0.42877  -0.40190  -0.39012
 Alpha  occ. eigenvalues --   -0.35259  -0.34392
 Alpha virt. eigenvalues --    0.02891   0.03806   0.05402   0.07539   0.08899
 Alpha virt. eigenvalues --    0.09636   0.11337   0.12367   0.13194   0.14631
 Alpha virt. eigenvalues --    0.15917   0.16344   0.17678   0.18699   0.19714

 Mulliken charges:
               1
     1  C   -0.205897
     2  C   -0.004584
     3  H    0.021474
     4  H    0.121002
     5  H    0.007144
     6  C   -0.381752
     7  H    0.056954
     8  H    0.025253
     9  C   -0.457498
    10  H    0.367637
    11  H   -0.024056
    12  H    0.359930
    13  H    0.059674
    14  H    0.054717
 Sum of Mulliken charges =   0.00000

 Dipole moment (field-independent basis, Debye):
    X=             -0.2248    Y=             -0.3710    Z=             -0.5091  Tot=              0.6689
 Quadrupole moment (field-independent basis, Debye-Ang):
   XX=            -30.9401   YY=            -30.6094   ZZ=            -28.4067
   XY=              0.9042   XZ=              2.4806   YZ=             -0.9034

 Normal termination of Gaussian 09 at Wed Aug 26 19:19:47 2020.
