 Gaussian 09, Revision D.01,
 Gaussian 09:  ES64L-G09RevD.01 24-Apr-2013

 --------------------
 #p B2PLYPD3/Def2QZVP
 --------------------

 ----------
 butane_opt
 ----------
 Symbolic Z-matrix:
 Charge =  0 Multiplicity = 1

                         Standard orientation:
 ---------------------------------------------------------------------
 Center     Atomic      Atomic             Coordinates (Angstroms)
 Number     Number       Type             X           Y           Z
 ---------------------------------------------------------------------
      1          6           0        2.027718   -0.151891   -0.069547
      2          6           0        0.563478    0.548901    0.136200
      3          1           0        2.805288    0.527439   -0.399313
      4          1           0        1.888694   -0.866738   -0.976366
      5          1           0        2.326504   -0.848262    0.854260
      6          6           0       -0.612419   -0.453019    0.075336
      7          1           0        0.416885    1.103737   -0.717223
      8          1           0        0.466699    1.409284    1.081392
      9          6           0       -1.954358    0.099804   -0.124294
     10          1           0       -0.809760   -1.253558    1.098335
     11          1           0       -0.401625   -0.999178   -0.711864
     12          1           0       -2.169067    0.620579    0.717582
     13          1           0       -2.707238   -0.707806   -0.092964
     14          1           0       -1.962899    0.751737   -0.960010
 ---------------------------------------------------------------------

 SCF Done:  E(RB2PLYPD3) =  -158.046513879     A.U. after   11 cycles
 E2(B2PLYPD3) =    -0.2484568537D+00 E(B2PLYPD3) =    -0.15829497073228D+03

 The electronic state is 1-A.
 Alpha  occ. eigenvalues --  -10.63065 -10.62838 -10.61125 -10.58329  -0.91506
 Alpha  occ. eigenvalues --   -0.82723  -0.72821  -0.66081  -0.53751  -0.49767
 Alpha  occ. eigenvalues --   -0.48877  -0.46733  -0.42743  -0.40484  -0.39030
 Alpha  occ. eigenvalues --   -0.37564  -0.36256
 Alpha virt. eigenvalues --    0.05590   0.06542   0.07785   0.08361   0.10790
 Alpha virt. eigenvalues --    0.11943   0.12525   0.13170   0.14633   0.15114
 Alpha virt. eigenvalues --    0.15360   0.16410   0.19294   0.19424   0.21495

 Mulliken charges:
               1
     1  C   -0.150189
     2  C   -0.075935
     3  H    0.061994
     4  H    0.031612
     5  H    0.052877
     6  C   -0.057925
     7  H    0.062090
     8  H    0.009778
     9  C   -0.135898
    10  H   -0.011334
    11  H    0.074694
    12  H    0.054190
    13  H    0.045306
    14  H    0.038739
 Sum of Mulliken charges =   0.00000

 Dipole moment (field-independent basis, Debye):
    X=             -0.0621    Y=              0.1341    Z=             -0.4837  Tot=              0.5057
 Quadrupole moment (field-independent basis, Debye-Ang):
   XX=            -29.3584   YY=            -29.4183   ZZ=            -28.6347
   XY=              0.5002   XZ=             -0.7689   YZ=             -0.2124

 Normal termination of Gaussian 09 at Wed Aug 26 13:44:47 2020.
