 Gaussian 09, Revision D.01,
 Gaussian 09:  ES64L-G09RevD.01 24-Apr-2013

 --------------------
 #p B2PLYPD3/Def2QZVP
 --------------------

 ----------
 butane_opt
 ----------
 Symbolic Z-matrix:
 Charge =  0 Multiplicity = 1

                         Standard orientation:
 ---------------------------------------------------------------------
 Center     Atomic      Atomic             Coordinates (Angstroms)
 Number     Number       Type             X           Y           Z
 ---------------------------------------------------------------------
      1          6           0       -1.888594   -0.199838   -0.083894
      2          6           0       -0.535392    0.503803    0.124078
      3          1           0       -2.725281    0.587313   -0.607112
      4          1           0       -2.492934   -1.122562    1.015504
      5          1           0       -1.917306   -0.473711   -0.808415
      6          6           0        0.584859   -0.351370    0.021236
      7          1           0       -0.508407    1.390767    1.264277
      8          1           0       -0.428946    1.108314   -0.628789
      9          6           0        1.892928    0.090592   -0.014932
     10          1           0        0.347778   -1.020019   -0.934579
     11          1           0        0.788620   -1.140790    0.904257
     12          1           0        1.912739    0.757321   -0.936346
     13          1           0        2.911493   -0.838719   -0.145547
     14          1           0        1.789436    0.492966    0.597826
 ---------------------------------------------------------------------

 SCF Done:  E(RB2PLYPD3) =  -157.588121855     A.U. after   12 cycles
 E2(B2PLYPD3) =    -0.2545479274D+00 E(B2PLYPD3) =    -0.15784266978203D+03

 The electronic state is 1-A.
 Alpha  occ. eigenvalues --  -10.63766 -10.63213 -10.61720 -10.58994  -0.97983
 Alpha  occ. eigenvalues --   -0.89344  -0.77549  -0.66249  -0.57462  -0.52641
 Alpha  occ. eigenvalues --   -0.50545  -0.46291  -0.43038  -0.38976  -0.38182
 Alpha  occ. eigenvalues --   -0.35584  -0.34153
 Alpha virt. eigenvalues --    0.03306   0.04890   0.06161   0.06979   0.09261
 Alpha virt. eigenvalues --    0.09942   0.11885   0.12460   0.14668   0.14894
 Alpha virt. eigenvalues --    0.15840   0.16471   0.18636   0.19239   0.19992

 Mulliken charges:
               1
     1  C   -0.438600
     2  C   -0.045704
     3  H    0.018620
     4  H    0.048232
     5  H    0.329211
     6  C    0.041879
     7  H   -0.015717
     8  H    0.091258
     9  C   -0.496936
    10  H    0.003581
    11  H    0.009086
    12  H    0.030819
    13  H    0.052349
    14  H    0.371921
 Sum of Mulliken charges =   0.00000

 Dipole moment (field-independent basis, Debye):
    X=              0.1173    Y=             -0.0434    Z=             -0.7698  Tot=              0.7799
 Quadrupole moment (field-independent basis, Debye-Ang):
   XX=            -30.9461   YY=            -30.2679   ZZ=            -28.4494
   XY=             -0.4268   XZ=              1.4145   YZ=             -0.7208

 Normal termination of Gaussian 09 at Wed Aug 26 13:36:40 2020.
