 Gaussian 09, Revision D.01,
 Gaussian 09:  ES64L-G09RevD.01 24-Apr-2013

 --------------------
 #p B2PLYPD3/Def2QZVP
 --------------------

 ----------
 butane_opt
 ----------
 Symbolic Z-matrix:
 Charge =  0 Multiplicity = 1

                         Standard orientation:
 ---------------------------------------------------------------------
 Center     Atomic      Atomic             Coordinates (Angstroms)
 Number     Number       Type             X           Y           Z
 ---------------------------------------------------------------------
      1          6           0       -1.913579   -0.186555   -0.050589
      2          6           0       -0.473688    0.600029   -0.010315
      3          1           0       -2.744335    0.427688   -0.423859
      4          1           0       -2.123582   -0.417157    0.726313
      5          1           0       -2.180521   -1.024938   -0.775100
      6          6           0        0.577679   -0.397042    0.367168
      7          1           0       -0.758589    1.315309    0.776993
      8          1           0       -0.034231    0.931889   -0.929046
      9          6           0        1.822097   -0.004072   -0.158093
     10          1           0        0.408917   -1.176118   -0.395314
     11          1           0        0.757119   -0.755736    1.241241
     12          1           0        1.498634    0.389096   -1.123941
     13          1           0        2.580949   -0.954333   -0.596459
     14          1           0        2.520585    1.190142    0.610152
 ---------------------------------------------------------------------

 SCF Done:  E(RB2PLYPD3) =  -157.893664387     A.U. after   11 cycles
 E2(B2PLYPD3) =    -0.2522076799D+00 E(B2PLYPD3) =    -0.15814587206683D+03

 The electronic state is 1-A.
 Alpha  occ. eigenvalues --  -10.65130 -10.62082 -10.59000 -10.58299  -0.95034
 Alpha  occ. eigenvalues --   -0.84904  -0.73644  -0.67569  -0.56823  -0.51990
 Alpha  occ. eigenvalues --   -0.50081  -0.45250  -0.43500  -0.40799  -0.39316
 Alpha  occ. eigenvalues --   -0.37216  -0.33430
 Alpha virt. eigenvalues --    0.03971   0.06106   0.07597   0.08520   0.09457
 Alpha virt. eigenvalues --    0.10759   0.11917   0.12781   0.14189   0.15152
 Alpha virt. eigenvalues --    0.16155   0.17248   0.18918   0.19169   0.21148

 Mulliken charges:
               1
     1  C   -0.239441
     2  C   -0.062259
     3  H    0.024272
     4  H    0.162483
     5  H    0.018299
     6  C   -0.060966
     7  H    0.039188
     8  H    0.077166
     9  C   -0.145913
    10  H    0.064331
    11  H    0.055946
    12  H    0.047614
    13  H    0.043338
    14  H   -0.024057
 Sum of Mulliken charges =   0.00000

 Dipole moment (field-independent basis, Debye):
    X=             -0.8133    Y=             -0.5094    Z=             -0.1554  Tot=              0.9721
 Quadrupole moment (field-independent basis, Debye-Ang):
   XX=            -31.8907   YY=            -29.7647   ZZ=            -27.9422
   XY=             -1.1981   XZ=             -0.8321   YZ=              0.4471

 Normal termination of Gaussian 09 at Wed Aug 26 19:32:50 2020.
