 Gaussian 09, Revision D.01,
 Gaussian 09:  ES64L-G09RevD.01 24-Apr-2013

 --------------------
 #p B2PLYPD3/Def2QZVP
 --------------------

 ----------
 butane_opt
 ----------
 Symbolic Z-matrix:
 Charge =  0 Multiplicity = 1

                         Standard orientation:
 ---------------------------------------------------------------------
 Center     Atomic      Atomic             Coordinates (Angstroms)
 Number     Number       Type             X           Y           Z
 ---------------------------------------------------------------------
      1          6           0        1.992145    0.072615    0.081535
      2          6           0        0.549598   -0.411313   -0.069431
      3          1           0        2.856847   -0.909009   -0.270542
      4          1           0        1.876787    1.015565    1.158648
      5          1           0        2.001922    0.322934   -0.601149
      6          6           0       -0.531462    0.601170   -0.161775
      7          1           0        0.502749   -1.295073    0.921895
      8          1           0        0.672576   -0.806963   -0.853640
      9          6           0       -1.991336   -0.164364    0.099411
     10          1           0       -0.691681    1.330582   -0.977923
     11          1           0       -0.034935    0.964412    0.407566
     12          1           0       -2.598825   -1.040961   -0.946460
     13          1           0       -2.774998    0.468673    0.549786
     14          1           0       -1.924113   -0.638807    0.913379
 ---------------------------------------------------------------------

 SCF Done:  E(RB2PLYPD3) =  -157.556492895     A.U. after   11 cycles
 E2(B2PLYPD3) =    -0.2552855191D+00 E(B2PLYPD3) =    -0.15781177841408D+03

 The electronic state is 1-A.
 Alpha  occ. eigenvalues --  -10.63131 -10.62049 -10.60868 -10.59532  -0.96496
 Alpha  occ. eigenvalues --   -0.85899  -0.77414  -0.69341  -0.57623  -0.50342
 Alpha  occ. eigenvalues --   -0.48247  -0.44342  -0.41928  -0.39830  -0.39198
 Alpha  occ. eigenvalues --   -0.35458  -0.34464
 Alpha virt. eigenvalues --    0.03085   0.04426   0.07338   0.07911   0.09728
 Alpha virt. eigenvalues --    0.10285   0.11173   0.12912   0.14122   0.14746
 Alpha virt. eigenvalues --    0.15541   0.16487   0.17503   0.19358   0.21060

 Mulliken charges:
               1
     1  C   -0.596892
     2  C   -0.083770
     3  H    0.043665
     4  H    0.034932
     5  H    0.466265
     6  C   -0.265011
     7  H    0.026300
     8  H    0.104794
     9  C   -0.162481
    10  H    0.046431
    11  H    0.222212
    12  H    0.030791
    13  H    0.036699
    14  H    0.096064
 Sum of Mulliken charges =   0.00000

 Dipole moment (field-independent basis, Debye):
    X=              0.0320    Y=              0.1445    Z=             -0.2416  Tot=              0.2833
 Quadrupole moment (field-independent basis, Debye-Ang):
   XX=            -30.8151   YY=            -29.6647   ZZ=            -28.0812
   XY=             -0.6424   XZ=             -2.1420   YZ=              0.4181

 Normal termination of Gaussian 09 at Wed Aug 26 16:02:19 2020.
