 Gaussian 09, Revision D.01,
 Gaussian 09:  ES64L-G09RevD.01 24-Apr-2013

 --------------------
 #p B2PLYPD3/Def2QZVP
 --------------------

 ----------
 butane_opt
 ----------
 Symbolic Z-matrix:
 Charge =  0 Multiplicity = 1

                         Standard orientation:
 ---------------------------------------------------------------------
 Center     Atomic      Atomic             Coordinates (Angstroms)
 Number     Number       Type             X           Y           Z
 ---------------------------------------------------------------------
      1          6           0       -2.001145   -0.194299   -0.128620
      2          6           0       -0.589702    0.649331    0.183177
      3          1           0       -2.873014    0.582504   -0.303079
      4          1           0       -2.580699   -0.678906    0.630474
      5          1           0       -1.928892   -1.102002   -1.083879
      6          6           0        0.626399   -0.475540    0.243764
      7          1           0       -0.374723    1.432229    1.027505
      8          1           0       -0.243591    1.097615   -0.812782
      9          6           0        1.945234    0.088629   -0.227869
     10          1           0        0.545172   -1.130633   -0.542548
     11          1           0        0.802738   -1.234194    1.261882
     12          1           0        1.901996    0.593846   -1.039345
     13          1           0        2.645381   -0.644379   -0.036740
     14          1           0        2.220913    0.675193    0.475795
 ---------------------------------------------------------------------

 SCF Done:  E(RB2PLYPD3) =  -157.978413085     A.U. after   11 cycles
 E2(B2PLYPD3) =    -0.2511284274D+00 E(B2PLYPD3) =    -0.15822954151197D+03

 The electronic state is 1-A.
 Alpha  occ. eigenvalues --  -10.64996 -10.64342 -10.61518 -10.55629  -0.90255
 Alpha  occ. eigenvalues --   -0.81819  -0.72705  -0.66676  -0.54629  -0.49575
 Alpha  occ. eigenvalues --   -0.47276  -0.45490  -0.42596  -0.40156  -0.38264
 Alpha  occ. eigenvalues --   -0.37357  -0.34963
 Alpha virt. eigenvalues --    0.05423   0.06075   0.07787   0.08598   0.10533
 Alpha virt. eigenvalues --    0.11847   0.12434   0.13703   0.14393   0.15272
 Alpha virt. eigenvalues --    0.15620   0.16496   0.18512   0.19550   0.20894

 Mulliken charges:
               1
     1  C   -0.145321
     2  C   -0.091702
     3  H    0.030572
     4  H    0.053400
     5  H    0.039991
     6  C   -0.057483
     7  H    0.059166
     8  H    0.045989
     9  C   -0.124920
    10  H    0.063551
    11  H    0.005521
    12  H    0.045472
    13  H    0.037206
    14  H    0.038557
 Sum of Mulliken charges =   0.00000

 Dipole moment (field-independent basis, Debye):
    X=              0.1284    Y=              0.1492    Z=              0.0013  Tot=              0.1968
 Quadrupole moment (field-independent basis, Debye-Ang):
   XX=            -28.9272   YY=            -28.9167   ZZ=            -28.8785
   XY=              0.2404   XZ=             -0.3445   YZ=              0.4695

 Normal termination of Gaussian 09 at Wed Aug 26 09:51:14 2020.
