 Gaussian 09, Revision D.01,
 Gaussian 09:  ES64L-G09RevD.01 24-Apr-2013

 --------------------
 #p B2PLYPD3/Def2QZVP
 --------------------

 ----------
 butane_opt
 ----------
 Symbolic Z-matrix:
 Charge =  0 Multiplicity = 1

                         Standard orientation:
 ---------------------------------------------------------------------
 Center     Atomic      Atomic             Coordinates (Angstroms)
 Number     Number       Type             X           Y           Z
 ---------------------------------------------------------------------
      1          6           0        1.916045   -0.137540   -0.174059
      2          6           0        0.575424    0.426832    0.131652
      3          1           0        2.952734    0.887486   -0.203194
      4          1           0        1.974418   -0.808311   -1.059433
      5          1           0        2.155530   -0.664253    0.733563
      6          6           0       -0.499395   -0.487945    0.251181
      7          1           0        0.401407    1.049695   -0.729750
      8          1           0        0.451781    1.407091    1.113795
      9          6           0       -1.969220    0.094888   -0.202039
     10          1           0       -0.744348   -1.520822    1.347416
     11          1           0       -0.263823   -0.787735   -0.368149
     12          1           0       -2.507475    1.224130    0.886499
     13          1           0       -2.710005   -0.628526   -0.796925
     14          1           0       -1.847339    0.463837   -0.964231
 ---------------------------------------------------------------------

 SCF Done:  E(RB2PLYPD3) =  -157.591911466     A.U. after   12 cycles
 E2(B2PLYPD3) =    -0.2576640545D+00 E(B2PLYPD3) =    -0.15784957552097D+03

 The electronic state is 1-A.
 Alpha  occ. eigenvalues --  -10.64507 -10.64330 -10.64013 -10.62073  -0.97974
 Alpha  occ. eigenvalues --   -0.84368  -0.77380  -0.66840  -0.54911  -0.51310
 Alpha  occ. eigenvalues --   -0.48677  -0.45679  -0.41092  -0.39686  -0.37428
 Alpha  occ. eigenvalues --   -0.35140  -0.34284
 Alpha virt. eigenvalues --    0.02062   0.04057   0.05093   0.07248   0.08295
 Alpha virt. eigenvalues --    0.09678   0.11111   0.12140   0.13354   0.14961
 Alpha virt. eigenvalues --    0.15577   0.15755   0.17780   0.19104   0.19342

 Mulliken charges:
               1
     1  C   -0.167872
     2  C   -0.020844
     3  H    0.025119
     4  H    0.066411
     5  H    0.073298
     6  C   -0.550582
     7  H    0.049739
     8  H   -0.006271
     9  C   -0.258177
    10  H    0.023076
    11  H    0.520650
    12  H    0.013237
    13  H    0.044542
    14  H    0.187674
 Sum of Mulliken charges =   0.00000

 Dipole moment (field-independent basis, Debye):
    X=              0.3767    Y=             -0.4178    Z=             -1.3413  Tot=              1.4545
 Quadrupole moment (field-independent basis, Debye-Ang):
   XX=            -32.0949   YY=            -30.4710   ZZ=            -28.6929
   XY=             -0.0356   XZ=              1.2972   YZ=              0.4432

 Normal termination of Gaussian 09 at Wed Aug 26 16:25:06 2020.
