 Gaussian 09, Revision D.01,
 Gaussian 09:  ES64L-G09RevD.01 24-Apr-2013

 --------------------
 #p B2PLYPD3/Def2QZVP
 --------------------

 ----------
 butane_opt
 ----------
 Symbolic Z-matrix:
 Charge =  0 Multiplicity = 1

                         Standard orientation:
 ---------------------------------------------------------------------
 Center     Atomic      Atomic             Coordinates (Angstroms)
 Number     Number       Type             X           Y           Z
 ---------------------------------------------------------------------
      1          6           0       -1.999777   -0.178162   -0.156351
      2          6           0       -0.599745    0.568815    0.108895
      3          1           0       -2.757822    0.453142    0.373818
      4          1           0       -1.943312   -0.361702    0.405535
      5          1           0       -2.467193   -1.180714   -1.203884
      6          6           0        0.630462   -0.440325    0.206254
      7          1           0       -0.504621    1.586051    1.163253
      8          1           0       -0.198811    0.920674   -0.639866
      9          6           0        1.990047    0.086261   -0.236650
     10          1           0        0.620840   -0.971776   -0.483012
     11          1           0        0.522779   -1.463867    1.343395
     12          1           0        1.746506    1.030889   -1.214930
     13          1           0        2.899957   -0.863912    0.186120
     14          1           0        1.955749    0.631681    0.536682
 ---------------------------------------------------------------------

 SCF Done:  E(RB2PLYPD3) =  -157.167594220     A.U. after   12 cycles
 E2(B2PLYPD3) =    -0.2616607657D+00 E(B2PLYPD3) =    -0.15742925498542D+03

 The electronic state is 1-A.
 Alpha  occ. eigenvalues --  -10.64697 -10.64076 -10.62365 -10.61707  -0.95389
 Alpha  occ. eigenvalues --   -0.90271  -0.76779  -0.68112  -0.52022  -0.47465
 Alpha  occ. eigenvalues --   -0.46325  -0.45666  -0.41952  -0.40015  -0.37947
 Alpha  occ. eigenvalues --   -0.35111  -0.33923
 Alpha virt. eigenvalues --    0.01926   0.03220   0.03890   0.06199   0.09633
 Alpha virt. eigenvalues --    0.10522   0.11386   0.11887   0.13182   0.14626
 Alpha virt. eigenvalues --    0.15560   0.16284   0.16819   0.18370   0.20269

 Mulliken charges:
               1
     1  C   -0.903741
     2  C   -0.125405
     3  H    0.064412
     4  H    0.736469
     5  H    0.088166
     6  C   -0.201714
     7  H    0.017078
     8  H    0.143330
     9  C   -0.255951
    10  H    0.213590
    11  H   -0.034494
    12  H    0.045916
    13  H    0.069247
    14  H    0.143096
 Sum of Mulliken charges =   0.00000

 Dipole moment (field-independent basis, Debye):
    X=             -0.1815    Y=             -0.0407    Z=             -0.0794  Tot=              0.2022
 Quadrupole moment (field-independent basis, Debye-Ang):
   XX=            -30.3084   YY=            -29.4943   ZZ=            -29.1962
   XY=              0.6809   XZ=             -0.0542   YZ=              0.8475

 Normal termination of Gaussian 09 at Wed Aug 26 22:01:12 2020.
