 Gaussian 09, Revision D.01,
 Gaussian 09:  ES64L-G09RevD.01 24-Apr-2013

 --------------------
 #p B2PLYPD3/Def2QZVP
 --------------------

 ----------
 butane_opt
 ----------
 Symbolic Z-matrix:
 Charge =  0 Multiplicity = 1

                         Standard orientation:
 ---------------------------------------------------------------------
 Center     Atomic      Atomic             Coordinates (Angstroms)
 Number     Number       Type             X           Y           Z
 ---------------------------------------------------------------------
      1          6           0       -1.897878    0.094118    0.139263
      2          6           0       -0.616937   -0.469354   -0.178726
      3          1           0       -2.787965   -0.771434    0.139441
      4          1           0       -2.144675    0.230866   -0.396621
      5          1           0       -1.769946    1.110909    1.266567
      6          6           0        0.486699    0.600454   -0.222523
      7          1           0       -0.592782   -1.167066   -0.975089
      8          1           0       -0.106367   -1.198639    0.700236
      9          6           0        1.932759   -0.172771    0.120774
     10          1           0        0.251441    0.976734    0.448979
     11          1           0        0.460874    1.399670   -1.149132
     12          1           0        2.107828   -0.644683    0.959619
     13          1           0        2.763487    0.386057    0.521330
     14          1           0        2.390251   -0.637098   -0.668059
 ---------------------------------------------------------------------

 SCF Done:  E(RB2PLYPD3) =  -157.407996765     A.U. after   12 cycles
 E2(B2PLYPD3) =    -0.2518011651D+00 E(B2PLYPD3) =    -0.15765979792968D+03

 The electronic state is 1-A.
 Alpha  occ. eigenvalues --  -10.61648 -10.61400 -10.60284 -10.58372  -0.95387
 Alpha  occ. eigenvalues --   -0.87218  -0.79349  -0.69761  -0.55963  -0.50572
 Alpha  occ. eigenvalues --   -0.48913  -0.46831  -0.43545  -0.40201  -0.38774
 Alpha  occ. eigenvalues --   -0.36312  -0.35172
 Alpha virt. eigenvalues --    0.03858   0.06458   0.06716   0.08133   0.10190
 Alpha virt. eigenvalues --    0.11516   0.12717   0.13752   0.14467   0.15420
 Alpha virt. eigenvalues --    0.15970   0.16717   0.18965   0.19288   0.20962

 Mulliken charges:
               1
     1  C   -0.813519
     2  C    0.070982
     3  H    0.059269
     4  H    0.608741
     5  H    0.040873
     6  C   -0.322322
     7  H    0.034536
     8  H    0.006050
     9  C   -0.129994
    10  H    0.291984
    11  H    0.035696
    12  H    0.053985
    13  H    0.010792
    14  H    0.052925
 Sum of Mulliken charges =   0.00000

 Dipole moment (field-independent basis, Debye):
    X=              0.0762    Y=              0.0038    Z=             -0.2040  Tot=              0.2178
 Quadrupole moment (field-independent basis, Debye-Ang):
   XX=            -28.6156   YY=            -29.3157   ZZ=            -27.9191
   XY=             -0.4349   XZ=              2.2834   YZ=              0.7871

 Normal termination of Gaussian 09 at Wed Aug 26 19:22:05 2020.
