 Gaussian 09, Revision D.01,
 Gaussian 09:  ES64L-G09RevD.01 24-Apr-2013

 --------------------
 #p B2PLYPD3/Def2QZVP
 --------------------

 ----------
 butane_opt
 ----------
 Symbolic Z-matrix:
 Charge =  0 Multiplicity = 1

                         Standard orientation:
 ---------------------------------------------------------------------
 Center     Atomic      Atomic             Coordinates (Angstroms)
 Number     Number       Type             X           Y           Z
 ---------------------------------------------------------------------
      1          6           0       -1.984043    0.126613    0.125784
      2          6           0       -0.603870   -0.526458   -0.062296
      3          1           0       -2.766683   -0.508301   -0.612915
      4          1           0       -2.034936    0.057350   -0.392207
      5          1           0       -2.448895    1.640906    1.352607
      6          6           0        0.563858    0.468949   -0.234371
      7          1           0       -0.761884   -1.376430   -0.903987
      8          1           0       -0.296803   -1.192208    0.895328
      9          6           0        2.040425   -0.055052    0.106205
     10          1           0        0.653969    0.973909    0.387554
     11          1           0        0.569491    1.236192   -1.251809
     12          1           0        1.898998   -1.084585    1.315565
     13          1           0        2.794637    0.688701    0.086588
     14          1           0        2.293882   -0.519848   -0.488656
 ---------------------------------------------------------------------

 SCF Done:  E(RB2PLYPD3) =  -156.724583785     A.U. after   14 cycles
 E2(B2PLYPD3) =    -0.2651326355D+00 E(B2PLYPD3) =    -0.15698971642085D+03

 The electronic state is 1-A.
 Alpha  occ. eigenvalues --  -10.66333 -10.65779 -10.61534 -10.60765  -0.99992
 Alpha  occ. eigenvalues --   -0.90822  -0.79197  -0.70628  -0.53042  -0.50048
 Alpha  occ. eigenvalues --   -0.49367  -0.44633  -0.41596  -0.39529  -0.36079
 Alpha  occ. eigenvalues --   -0.35912  -0.30508
 Alpha virt. eigenvalues --   -0.04907   0.02880   0.03492   0.06856   0.08924
 Alpha virt. eigenvalues --    0.10133   0.11777   0.12875   0.13494   0.14986
 Alpha virt. eigenvalues --    0.16107   0.16259   0.17423   0.19081   0.20133

 Mulliken charges:
               1
     1  C   -1.097397
     2  C    0.013137
     3  H    0.044054
     4  H    0.939296
     5  H    0.049624
     6  C   -0.296731
     7  H    0.019644
     8  H    0.038007
     9  C   -0.332107
    10  H    0.312345
    11  H    0.012992
    12  H   -0.003886
    13  H    0.062456
    14  H    0.238565
 Sum of Mulliken charges =   0.00000

 Dipole moment (field-independent basis, Debye):
    X=              0.4833    Y=              0.3301    Z=             -1.3588  Tot=              1.4795
 Quadrupole moment (field-independent basis, Debye-Ang):
   XX=            -30.5373   YY=            -29.2131   ZZ=            -28.8617
   XY=              0.4378   XZ=              1.2841   YZ=              1.6753

 Normal termination of Gaussian 09 at Wed Aug 26 14:57:06 2020.
