 Gaussian 09, Revision D.01,
 Gaussian 09:  ES64L-G09RevD.01 24-Apr-2013

 --------------------
 #p B2PLYPD3/Def2QZVP
 --------------------

 ----------
 butane_opt
 ----------
 Symbolic Z-matrix:
 Charge =  0 Multiplicity = 1

                         Standard orientation:
 ---------------------------------------------------------------------
 Center     Atomic      Atomic             Coordinates (Angstroms)
 Number     Number       Type             X           Y           Z
 ---------------------------------------------------------------------
      1          6           0       -2.013496    0.002721    0.042000
      2          6           0       -0.616469   -0.443968   -0.153260
      3          1           0       -2.699906   -0.795289    0.471079
      4          1           0       -2.482451    0.992813   -0.947168
      5          1           0       -1.633085    0.480840    0.984518
      6          6           0        0.527154    0.620200    0.035107
      7          1           0       -0.452984   -0.968333   -1.030556
      8          1           0       -0.411103   -1.169756    0.530546
      9          6           0        2.008552   -0.134564    0.018328
     10          1           0        0.129050    1.191045    0.989871
     11          1           0        0.731879    1.175132   -0.635521
     12          1           0        2.560192   -0.916274    1.009117
     13          1           0        2.599325    0.364531   -0.207548
     14          1           0        2.224640   -0.621043   -0.817394
 ---------------------------------------------------------------------

 SCF Done:  E(RB2PLYPD3) =  -157.827478649     A.U. after   11 cycles
 E2(B2PLYPD3) =    -0.2510896962D+00 E(B2PLYPD3) =    -0.15807856834520D+03

 The electronic state is 1-A.
 Alpha  occ. eigenvalues --  -10.63895 -10.61583 -10.59415 -10.59208  -0.92235
 Alpha  occ. eigenvalues --   -0.86511  -0.76278  -0.68134  -0.55155  -0.50707
 Alpha  occ. eigenvalues --   -0.47983  -0.45498  -0.42110  -0.41076  -0.38018
 Alpha  occ. eigenvalues --   -0.37349  -0.36087
 Alpha virt. eigenvalues --    0.04578   0.05743   0.08239   0.08624   0.09667
 Alpha virt. eigenvalues --    0.10897   0.12075   0.13783   0.14414   0.15024
 Alpha virt. eigenvalues --    0.15932   0.16359   0.18924   0.20116   0.21026

 Mulliken charges:
               1
     1  C   -0.183505
     2  C   -0.027789
     3  H    0.065968
     4  H    0.028475
     5  H    0.037794
     6  C   -0.095841
     7  H    0.022620
     8  H    0.062250
     9  C   -0.303692
    10  H    0.029829
    11  H    0.106967
    12  H    0.022100
    13  H    0.193286
    14  H    0.041538
 Sum of Mulliken charges =   0.00000

 Dipole moment (field-independent basis, Debye):
    X=              0.4462    Y=             -0.0488    Z=             -0.3287  Tot=              0.5564
 Quadrupole moment (field-independent basis, Debye-Ang):
   XX=            -29.8759   YY=            -29.1101   ZZ=            -28.5011
   XY=              1.1722   XZ=             -1.9857   YZ=             -1.1284

 Normal termination of Gaussian 09 at Wed Aug 26 21:35:11 2020.
