 Gaussian 09, Revision D.01,
 Gaussian 09:  ES64L-G09RevD.01 24-Apr-2013

 --------------------
 #p B2PLYPD3/Def2QZVP
 --------------------

 ----------
 butane_opt
 ----------
 Symbolic Z-matrix:
 Charge =  0 Multiplicity = 1

                         Standard orientation:
 ---------------------------------------------------------------------
 Center     Atomic      Atomic             Coordinates (Angstroms)
 Number     Number       Type             X           Y           Z
 ---------------------------------------------------------------------
      1          6           0       -2.019261    0.098820    0.131077
      2          6           0       -0.493562   -0.578595    0.004483
      3          1           0       -2.600964   -0.357879   -0.739096
      4          1           0       -1.848964    0.088872   -0.476214
      5          1           0       -2.590958    1.234602    1.324694
      6          6           0        0.588810    0.500316   -0.189171
      7          1           0       -0.733493   -1.323040   -0.936265
      8          1           0       -0.416066   -0.868668    0.583795
      9          6           0        1.990026   -0.079311    0.139697
     10          1           0        0.516763    1.013683    0.556892
     11          1           0        0.421166    1.321953   -1.302766
     12          1           0        2.180408   -0.861955    1.223118
     13          1           0        2.641551    0.574570   -0.150900
     14          1           0        2.034478   -0.469523   -0.599768
 ---------------------------------------------------------------------

 SCF Done:  E(RB2PLYPD3) =  -156.934958974     A.U. after   13 cycles
 E2(B2PLYPD3) =    -0.2595730336D+00 E(B2PLYPD3) =    -0.15719453200800D+03

 The electronic state is 1-A.
 Alpha  occ. eigenvalues --  -10.62232 -10.61544 -10.61224 -10.58772  -0.98938
 Alpha  occ. eigenvalues --   -0.91920  -0.83249  -0.72396  -0.56123  -0.50213
 Alpha  occ. eigenvalues --   -0.47777  -0.46465  -0.41383  -0.40342  -0.39526
 Alpha  occ. eigenvalues --   -0.37069  -0.29065
 Alpha virt. eigenvalues --    0.00123   0.04165   0.05476   0.06775   0.09582
 Alpha virt. eigenvalues --    0.10480   0.11727   0.12909   0.14379   0.15363
 Alpha virt. eigenvalues --    0.16159   0.16798   0.18442   0.19340   0.19970

 Mulliken charges:
               1
     1  C   -0.930479
     2  C   -0.585874
     3  H    0.039258
     4  H    0.761682
     5  H    0.064988
     6  C   -0.107347
     7  H    0.050816
     8  H    0.541055
     9  C   -0.313856
    10  H    0.145518
    11  H    0.015517
    12  H    0.066087
    13  H    0.055395
    14  H    0.197240
 Sum of Mulliken charges =   0.00000

 Dipole moment (field-independent basis, Debye):
    X=              1.1116    Y=              0.0811    Z=             -0.8077  Tot=              1.3764
 Quadrupole moment (field-independent basis, Debye-Ang):
   XX=            -31.8282   YY=            -29.7334   ZZ=            -26.4407
   XY=             -1.0377   XZ=              1.7873   YZ=              0.7836

 Normal termination of Gaussian 09 at Wed Aug 26 23:05:07 2020.
