 Gaussian 09, Revision D.01,
 Gaussian 09:  ES64L-G09RevD.01 24-Apr-2013

 --------------------
 #p B2PLYPD3/Def2QZVP
 --------------------

 ----------
 butane_opt
 ----------
 Symbolic Z-matrix:
 Charge =  0 Multiplicity = 1

                         Standard orientation:
 ---------------------------------------------------------------------
 Center     Atomic      Atomic             Coordinates (Angstroms)
 Number     Number       Type             X           Y           Z
 ---------------------------------------------------------------------
      1          6           0        1.915103    0.103673   -0.055420
      2          6           0        0.515101   -0.523690    0.058104
      3          1           0        2.672505   -0.535731   -0.373370
      4          1           0        2.378064    0.862917    0.954759
      5          1           0        1.949938    0.638078   -0.885026
      6          6           0       -0.539706    0.474582    0.026557
      7          1           0        0.516140   -1.435142    1.090883
      8          1           0        0.313517   -0.912217   -0.653548
      9          6           0       -1.891345   -0.128110   -0.053018
     10          1           0       -0.507840    1.197048   -0.851901
     11          1           0       -0.452337    1.280759    0.956319
     12          1           0       -2.013898   -0.833940   -0.955060
     13          1           0       -2.710762    0.763553    0.082681
     14          1           0       -2.140246   -0.584059    0.776918
 ---------------------------------------------------------------------

 SCF Done:  E(RB2PLYPD3) =  -157.938187689     A.U. after   11 cycles
 E2(B2PLYPD3) =    -0.2492608438D+00 E(B2PLYPD3) =    -0.15818744853254D+03

 The electronic state is 1-A.
 Alpha  occ. eigenvalues --  -10.61881 -10.60700 -10.60570 -10.60366  -0.94201
 Alpha  occ. eigenvalues --   -0.84115  -0.74932  -0.66834  -0.55108  -0.49271
 Alpha  occ. eigenvalues --   -0.49163  -0.48182  -0.41569  -0.40336  -0.38712
 Alpha  occ. eigenvalues --   -0.37900  -0.35742
 Alpha virt. eigenvalues --    0.05268   0.06251   0.07016   0.08246   0.10576
 Alpha virt. eigenvalues --    0.11323   0.12690   0.13081   0.14865   0.15146
 Alpha virt. eigenvalues --    0.15546   0.16161   0.19250   0.19777   0.21704

 Mulliken charges:
               1
     1  C   -0.132320
     2  C   -0.221462
     3  H    0.039271
     4  H    0.026780
     5  H    0.052535
     6  C   -0.002806
     7  H    0.007442
     8  H    0.214907
     9  C   -0.142627
    10  H    0.032143
    11  H    0.002560
    12  H    0.039100
    13  H    0.022325
    14  H    0.062152
 Sum of Mulliken charges =   0.00000

 Dipole moment (field-independent basis, Debye):
    X=             -0.0078    Y=             -0.1238    Z=             -0.5734  Tot=              0.5866
 Quadrupole moment (field-independent basis, Debye-Ang):
   XX=            -29.8888   YY=            -29.4686   ZZ=            -28.3377
   XY=             -0.0105   XZ=             -1.1777   YZ=              0.4796

 Normal termination of Gaussian 09 at Wed Aug 26 09:39:13 2020.
