 Gaussian 09, Revision D.01,
 Gaussian 09:  ES64L-G09RevD.01 24-Apr-2013

 --------------------
 #p B2PLYPD3/Def2QZVP
 --------------------

 ----------
 butane_opt
 ----------
 Symbolic Z-matrix:
 Charge =  0 Multiplicity = 1

                         Standard orientation:
 ---------------------------------------------------------------------
 Center     Atomic      Atomic             Coordinates (Angstroms)
 Number     Number       Type             X           Y           Z
 ---------------------------------------------------------------------
      1          6           0        1.941651   -0.081028    0.002503
      2          6           0        0.609556    0.522876    0.006737
      3          1           0        2.890430    0.836579   -0.533629
      4          1           0        1.815411   -0.297545   -0.629990
      5          1           0        2.423852   -1.109108    1.064728
      6          6           0       -0.469913   -0.667848   -0.067162
      7          1           0        0.519039    0.813494   -0.756774
      8          1           0        0.419986    1.501717    1.103971
      9          6           0       -2.038846    0.134486    0.053793
     10          1           0       -0.452935   -1.157679    0.682215
     11          1           0       -0.521144   -1.182149   -0.918939
     12          1           0       -2.165101    0.675979    0.857807
     13          1           0       -2.653172   -0.478687    0.008272
     14          1           0       -2.531053    0.946478   -0.852883
 ---------------------------------------------------------------------

 SCF Done:  E(RB2PLYPD3) =  -157.452607694     A.U. after   12 cycles
 E2(B2PLYPD3) =    -0.2532592240D+00 E(B2PLYPD3) =    -0.15770586691824D+03

 The electronic state is 1-A.
 Alpha  occ. eigenvalues --  -10.62867 -10.62489 -10.60835 -10.59304  -0.96916
 Alpha  occ. eigenvalues --   -0.85848  -0.77360  -0.71407  -0.56839  -0.51476
 Alpha  occ. eigenvalues --   -0.49390  -0.46198  -0.43837  -0.39723  -0.39587
 Alpha  occ. eigenvalues --   -0.35537  -0.34231
 Alpha virt. eigenvalues --    0.02661   0.05798   0.06646   0.06923   0.09253
 Alpha virt. eigenvalues --    0.10785   0.12200   0.13468   0.13989   0.14553
 Alpha virt. eigenvalues --    0.15217   0.16752   0.17676   0.18764   0.20260

 Mulliken charges:
               1
     1  C   -0.755278
     2  C   -0.218157
     3  H    0.018968
     4  H    0.616716
     5  H    0.046930
     6  C   -0.114222
     7  H    0.276575
     8  H    0.001669
     9  C   -0.234774
    10  H    0.106814
    11  H    0.056572
    12  H    0.069682
    13  H    0.127506
    14  H    0.000998
 Sum of Mulliken charges =   0.00000

 Dipole moment (field-independent basis, Debye):
    X=             -0.5452    Y=             -0.8311    Z=             -0.4280  Tot=              1.0822
 Quadrupole moment (field-independent basis, Debye-Ang):
   XX=            -31.2279   YY=            -29.0539   ZZ=            -27.8952
   XY=             -0.0442   XZ=             -1.0160   YZ=             -0.5094

 Normal termination of Gaussian 09 at Wed Aug 26 10:43:43 2020.
