 Gaussian 09, Revision D.01,
 Gaussian 09:  ES64L-G09RevD.01 24-Apr-2013

 --------------------
 #p B2PLYPD3/Def2QZVP
 --------------------

 ----------
 butane_opt
 ----------
 Symbolic Z-matrix:
 Charge =  0 Multiplicity = 1

                         Standard orientation:
 ---------------------------------------------------------------------
 Center     Atomic      Atomic             Coordinates (Angstroms)
 Number     Number       Type             X           Y           Z
 ---------------------------------------------------------------------
      1          6           0       -2.057464   -0.127442   -0.107203
      2          6           0       -0.540684    0.516846    0.222191
      3          1           0       -2.720091    0.569515   -0.702525
      4          1           0       -2.583694   -0.930032    0.780801
      5          1           0       -1.828644   -0.554018   -0.792181
      6          6           0        0.670267   -0.480655    0.086550
      7          1           0       -0.390993    1.279221    1.241691
      8          1           0       -0.405664    1.295188   -0.605833
      9          6           0        1.941963    0.092641   -0.154468
     10          1           0        0.251848   -1.275189   -0.892277
     11          1           0        0.641705   -1.097678    0.911529
     12          1           0        2.249768    0.900573   -1.111602
     13          1           0        2.676741   -0.748517    0.137385
     14          1           0        2.024526    0.552601    0.750590
 ---------------------------------------------------------------------

 SCF Done:  E(RB2PLYPD3) =  -157.912940432     A.U. after   11 cycles
 E2(B2PLYPD3) =    -0.2522630661D+00 E(B2PLYPD3) =    -0.15816520349764D+03

 The electronic state is 1-A.
 Alpha  occ. eigenvalues --  -10.64433 -10.62736 -10.61732 -10.60880  -0.91991
 Alpha  occ. eigenvalues --   -0.84694  -0.73418  -0.64923  -0.52885  -0.48591
 Alpha  occ. eigenvalues --   -0.48128  -0.46768  -0.43749  -0.40319  -0.37748
 Alpha  occ. eigenvalues --   -0.37374  -0.34241
 Alpha virt. eigenvalues --    0.05225   0.06090   0.07360   0.07916   0.10040
 Alpha virt. eigenvalues --    0.10953   0.12263   0.12976   0.14237   0.15220
 Alpha virt. eigenvalues --    0.15642   0.16180   0.18301   0.18856   0.19879

 Mulliken charges:
               1
     1  C   -0.319038
     2  C   -0.038345
     3  H    0.044106
     4  H    0.044914
     5  H    0.227253
     6  C   -0.019347
     7  H    0.000918
     8  H    0.024114
     9  C   -0.177752
    10  H   -0.030860
    11  H    0.068370
    12  H    0.057166
    13  H    0.046469
    14  H    0.072032
 Sum of Mulliken charges =   0.00000

 Dipole moment (field-independent basis, Debye):
    X=              0.3782    Y=             -0.0283    Z=             -0.0177  Tot=              0.3797
 Quadrupole moment (field-independent basis, Debye-Ang):
   XX=            -30.0467   YY=            -29.7364   ZZ=            -28.4863
   XY=              0.5662   XZ=              1.6165   YZ=             -1.6163

 Normal termination of Gaussian 09 at Wed Aug 26 23:38:57 2020.
