 Gaussian 09, Revision D.01,
 Gaussian 09:  ES64L-G09RevD.01 24-Apr-2013

 --------------------
 #p B2PLYPD3/Def2QZVP
 --------------------

 ----------
 butane_opt
 ----------
 Symbolic Z-matrix:
 Charge =  0 Multiplicity = 1

                         Standard orientation:
 ---------------------------------------------------------------------
 Center     Atomic      Atomic             Coordinates (Angstroms)
 Number     Number       Type             X           Y           Z
 ---------------------------------------------------------------------
      1          6           0       -1.865061    0.108754    0.151370
      2          6           0       -0.568788   -0.498639   -0.220851
      3          1           0       -2.839860   -0.812440    0.036826
      4          1           0       -1.939203    0.404128   -0.423085
      5          1           0       -2.114396    0.844967    1.129720
      6          6           0        0.521477    0.567517   -0.224441
      7          1           0       -0.491009   -1.042841   -1.106699
      8          1           0       -0.134162   -0.982749    0.504152
      9          6           0        1.913379   -0.157358    0.124005
     10          1           0        0.079370    1.192600    0.800585
     11          1           0        0.643594    1.356677   -0.976473
     12          1           0        1.833182   -1.125184    1.165071
     13          1           0        2.630560    0.524074    0.335521
     14          1           0        2.325879   -0.480878   -0.446118
 ---------------------------------------------------------------------

 SCF Done:  E(RB2PLYPD3) =  -157.525218830     A.U. after   11 cycles
 E2(B2PLYPD3) =    -0.2507230893D+00 E(B2PLYPD3) =    -0.15777594191937D+03

 The electronic state is 1-A.
 Alpha  occ. eigenvalues --  -10.63368 -10.59484 -10.59362 -10.58653  -0.94753
 Alpha  occ. eigenvalues --   -0.87294  -0.78749  -0.68096  -0.56014  -0.50225
 Alpha  occ. eigenvalues --   -0.49277  -0.48519  -0.43328  -0.40126  -0.39057
 Alpha  occ. eigenvalues --   -0.36800  -0.35293
 Alpha virt. eigenvalues --    0.05035   0.06157   0.07960   0.08111   0.10406
 Alpha virt. eigenvalues --    0.11513   0.12051   0.14090   0.14697   0.15033
 Alpha virt. eigenvalues --    0.15835   0.16402   0.18746   0.20232   0.21247

 Mulliken charges:
               1
     1  C   -0.758047
     2  C   -0.011962
     3  H    0.024923
     4  H    0.571918
     5  H    0.080243
     6  C   -0.031870
     7  H    0.041639
     8  H    0.091676
     9  C   -0.345737
    10  H    0.009616
    11  H    0.042622
    12  H    0.007339
    13  H    0.046345
    14  H    0.231293
 Sum of Mulliken charges =   0.00000

 Dipole moment (field-independent basis, Debye):
    X=              0.4749    Y=              0.3093    Z=             -0.6701  Tot=              0.8776
 Quadrupole moment (field-independent basis, Debye-Ang):
   XX=            -29.2908   YY=            -28.9687   ZZ=            -28.2600
   XY=             -0.5408   XZ=             -0.9965   YZ=              0.0837

 Normal termination of Gaussian 09 at Wed Aug 26 13:00:14 2020.
