 Gaussian 09, Revision D.01,
 Gaussian 09:  ES64L-G09RevD.01 24-Apr-2013

 --------------------
 #p B2PLYPD3/Def2QZVP
 --------------------

 ----------
 butane_opt
 ----------
 Symbolic Z-matrix:
 Charge =  0 Multiplicity = 1

                         Standard orientation:
 ---------------------------------------------------------------------
 Center     Atomic      Atomic             Coordinates (Angstroms)
 Number     Number       Type             X           Y           Z
 ---------------------------------------------------------------------
      1          6           0       -1.970947    0.159006   -0.130361
      2          6           0       -0.539592   -0.586690    0.113592
      3          1           0       -2.773948   -0.493615   -0.129409
      4          1           0       -2.143110    0.929545   -0.942100
      5          1           0       -2.290130    0.641363    0.635259
      6          6           0        0.601798    0.360413    0.144193
      7          1           0       -0.144386   -1.033030   -0.804442
      8          1           0       -0.282255   -1.249938    1.006370
      9          6           0        1.899253   -0.032228   -0.148497
     10          1           0        0.540367    1.421253    1.499503
     11          1           0        0.479239    0.920093   -0.568203
     12          1           0        2.065499   -0.934897    0.702357
     13          1           0        2.664543    0.814816   -0.380709
     14          1           0        1.941109   -0.418594   -0.892192
 ---------------------------------------------------------------------

 SCF Done:  E(RB2PLYPD3) =  -157.845531057     A.U. after   12 cycles
 E2(B2PLYPD3) =    -0.2512095217D+00 E(B2PLYPD3) =    -0.15809674057900D+03

 The electronic state is 1-A.
 Alpha  occ. eigenvalues --  -10.63494 -10.62281 -10.59978 -10.59782  -0.96239
 Alpha  occ. eigenvalues --   -0.85690  -0.77564  -0.67870  -0.56825  -0.51145
 Alpha  occ. eigenvalues --   -0.49809  -0.47809  -0.44308  -0.42620  -0.41090
 Alpha  occ. eigenvalues --   -0.36939  -0.30731
 Alpha virt. eigenvalues --    0.03431   0.05964   0.06455   0.08236   0.10533
 Alpha virt. eigenvalues --    0.11638   0.11828   0.13826   0.14215   0.14835
 Alpha virt. eigenvalues --    0.15761   0.16464   0.18613   0.19262   0.20078

 Mulliken charges:
               1
     1  C   -0.103454
     2  C   -0.070664
     3  H    0.034821
     4  H    0.032269
     5  H    0.061539
     6  C   -0.050643
     7  H    0.047324
     8  H    0.055278
     9  C   -0.250557
    10  H   -0.107556
    11  H    0.110589
    12  H    0.022227
    13  H    0.060753
    14  H    0.158074
 Sum of Mulliken charges =   0.00000

 Dipole moment (field-independent basis, Debye):
    X=             -0.3093    Y=             -0.5414    Z=             -1.4014  Tot=              1.5338
 Quadrupole moment (field-independent basis, Debye-Ang):
   XX=            -28.0110   YY=            -30.5389   ZZ=            -29.5781
   XY=             -0.5187   XZ=             -2.2535   YZ=             -2.1726

 Normal termination of Gaussian 09 at Wed Aug 26 18:54:14 2020.
