 Gaussian 09, Revision D.01,
 Gaussian 09:  ES64L-G09RevD.01 24-Apr-2013

 --------------------
 #p B2PLYPD3/Def2QZVP
 --------------------

 ----------
 butane_opt
 ----------
 Symbolic Z-matrix:
 Charge =  0 Multiplicity = 1

                         Standard orientation:
 ---------------------------------------------------------------------
 Center     Atomic      Atomic             Coordinates (Angstroms)
 Number     Number       Type             X           Y           Z
 ---------------------------------------------------------------------
      1          6           0        1.865445    0.022283   -0.076435
      2          6           0        0.616252   -0.422655    0.118307
      3          1           0        2.560906   -0.713854   -0.045731
      4          1           0        2.173495    0.548504    0.614319
      5          1           0        1.905008    0.739561   -1.070736
      6          6           0       -0.529554    0.578613    0.084146
      7          1           0        0.549198   -0.965814    0.958928
      8          1           0        0.384158   -1.253344   -0.622800
      9          6           0       -1.969361   -0.161953   -0.031566
     10          1           0       -0.203924    1.148613   -0.810298
     11          1           0       -0.433313    1.603018    1.064839
     12          1           0       -1.819507   -0.788927   -0.879516
     13          1           0       -2.571719    0.334256   -0.688830
     14          1           0       -2.440992   -0.749739    0.913108
 ---------------------------------------------------------------------

 SCF Done:  E(RB2PLYPD3) =  -157.970063995     A.U. after   11 cycles
 E2(B2PLYPD3) =    -0.2496976157D+00 E(B2PLYPD3) =    -0.15821976161076D+03

 The electronic state is 1-A.
 Alpha  occ. eigenvalues --  -10.64491 -10.61241 -10.58365 -10.56963  -0.94182
 Alpha  occ. eigenvalues --   -0.84519  -0.74578  -0.66570  -0.55235  -0.51845
 Alpha  occ. eigenvalues --   -0.49217  -0.48034  -0.41534  -0.40938  -0.39021
 Alpha  occ. eigenvalues --   -0.36764  -0.34782
 Alpha virt. eigenvalues --    0.05625   0.06575   0.06972   0.08374   0.10723
 Alpha virt. eigenvalues --    0.11921   0.12503   0.13248   0.14862   0.15238
 Alpha virt. eigenvalues --    0.16253   0.16993   0.18448   0.19211   0.20953

 Mulliken charges:
               1
     1  C   -0.129482
     2  C    0.027985
     3  H    0.039866
     4  H    0.059661
     5  H    0.007539
     6  C   -0.062657
     7  H    0.024497
     8  H    0.003809
     9  C   -0.165282
    10  H    0.037485
    11  H   -0.012407
    12  H    0.045116
    13  H    0.054781
    14  H    0.069089
 Sum of Mulliken charges =   0.00000

 Dipole moment (field-independent basis, Debye):
    X=              0.1009    Y=             -0.5756    Z=             -0.1705  Tot=              0.6087
 Quadrupole moment (field-independent basis, Debye-Ang):
   XX=            -28.7791   YY=            -29.6418   ZZ=            -28.2428
   XY=              0.4062   XZ=              1.4497   YZ=             -0.7584

 Normal termination of Gaussian 09 at Wed Aug 26 14:17:55 2020.
