 Gaussian 09, Revision D.01,
 Gaussian 09:  ES64L-G09RevD.01 24-Apr-2013

 --------------------
 #p B2PLYPD3/Def2QZVP
 --------------------

 ----------
 butane_opt
 ----------
 Symbolic Z-matrix:
 Charge =  0 Multiplicity = 1

                         Standard orientation:
 ---------------------------------------------------------------------
 Center     Atomic      Atomic             Coordinates (Angstroms)
 Number     Number       Type             X           Y           Z
 ---------------------------------------------------------------------
      1          6           0        1.986904    0.053283    0.035361
      2          6           0        0.665970   -0.496953    0.042022
      3          1           0        2.762087   -0.832423   -0.378331
      4          1           0        1.979932    1.143207    1.165865
      5          1           0        1.997647    0.368678   -0.727433
      6          6           0       -0.567336    0.641272   -0.019358
      7          1           0        0.732618   -0.884570    0.554848
      8          1           0        0.192524   -1.188720   -0.861631
      9          6           0       -1.991154   -0.180265    0.046294
     10          1           0       -0.475349    1.411121   -1.048187
     11          1           0       -0.499326    1.092943    0.689523
     12          1           0       -2.002775   -0.553154   -0.721134
     13          1           0       -2.680372    0.341421   -0.480316
     14          1           0       -2.573288   -1.002524    1.180878
 ---------------------------------------------------------------------

 SCF Done:  E(RB2PLYPD3) =  -157.315774252     A.U. after   12 cycles
 E2(B2PLYPD3) =    -0.2550499906D+00 E(B2PLYPD3) =    -0.15757082424267D+03

 The electronic state is 1-A.
 Alpha  occ. eigenvalues --  -10.62239 -10.61732 -10.60644 -10.58033  -0.94785
 Alpha  occ. eigenvalues --   -0.87738  -0.77495  -0.74739  -0.55302  -0.49065
 Alpha  occ. eigenvalues --   -0.46670  -0.43874  -0.42428  -0.41166  -0.38415
 Alpha  occ. eigenvalues --   -0.37949  -0.33501
 Alpha virt. eigenvalues --    0.02292   0.04202   0.05667   0.07839   0.10290
 Alpha virt. eigenvalues --    0.10703   0.11772   0.12567   0.13274   0.15560
 Alpha virt. eigenvalues --    0.15958   0.17416   0.17789   0.19126   0.20534

 Mulliken charges:
               1
     1  C   -0.282793
     2  C   -0.629833
     3  H    0.034236
     4  H    0.033415
     5  H    0.222511
     6  C   -0.147973
     7  H    0.552310
     8  H    0.045363
     9  C   -0.305727
    10  H    0.021453
    11  H    0.176753
    12  H    0.175614
    13  H    0.050011
    14  H    0.054662
 Sum of Mulliken charges =   0.00000

 Dipole moment (field-independent basis, Debye):
    X=             -0.3740    Y=              0.0556    Z=             -0.6643  Tot=              0.7643
 Quadrupole moment (field-independent basis, Debye-Ang):
   XX=            -30.8866   YY=            -29.1941   ZZ=            -27.3836
   XY=              0.1296   XZ=             -0.0433   YZ=             -0.1210

 Normal termination of Gaussian 09 at Wed Aug 26 22:38:14 2020.
