 Gaussian 09, Revision D.01,
 Gaussian 09:  ES64L-G09RevD.01 24-Apr-2013

 --------------------
 #p B2PLYPD3/Def2QZVP
 --------------------

 ----------
 butane_opt
 ----------
 Symbolic Z-matrix:
 Charge =  0 Multiplicity = 1

                         Standard orientation:
 ---------------------------------------------------------------------
 Center     Atomic      Atomic             Coordinates (Angstroms)
 Number     Number       Type             X           Y           Z
 ---------------------------------------------------------------------
      1          6           0       -1.867488   -0.103495    0.124940
      2          6           0       -0.530413    0.529312   -0.129168
      3          1           0       -2.574438    0.771731    0.033725
      4          1           0       -1.831018   -0.905580    1.048873
      5          1           0       -2.107687   -0.598247   -0.703745
      6          6           0        0.525640   -0.547313   -0.052677
      7          1           0       -0.531962    0.942237    0.508108
      8          1           0       -0.658272    1.130804   -1.057572
      9          6           0        1.886268    0.161194   -0.002665
     10          1           0        0.184943   -1.245247   -0.733293
     11          1           0        0.530177   -1.243883    0.861942
     12          1           0        1.926799    0.267655   -0.537675
     13          1           0        2.718016   -0.735305   -0.259989
     14          1           0        2.259405    1.377642    1.197049
 ---------------------------------------------------------------------

 SCF Done:  E(RB2PLYPD3) =  -157.119145808     A.U. after   12 cycles
 E2(B2PLYPD3) =    -0.2540412004D+00 E(B2PLYPD3) =    -0.15737318700794D+03

 The electronic state is 1-A.
 Alpha  occ. eigenvalues --  -10.64234 -10.60821 -10.59803 -10.56316  -0.95738
 Alpha  occ. eigenvalues --   -0.89703  -0.75731  -0.71046  -0.56389  -0.51452
 Alpha  occ. eigenvalues --   -0.49748  -0.45278  -0.41270  -0.40486  -0.38742
 Alpha  occ. eigenvalues --   -0.37852  -0.34430
 Alpha virt. eigenvalues --    0.00166   0.05734   0.06913   0.07741   0.10710
 Alpha virt. eigenvalues --    0.11068   0.12339   0.13061   0.13934   0.15083
 Alpha virt. eigenvalues --    0.15641   0.16754   0.18306   0.19491   0.21524

 Mulliken charges:
               1
     1  C   -0.154695
     2  C   -0.394777
     3  H    0.033387
     4  H    0.048750
     5  H    0.049521
     6  C    0.049165
     7  H    0.359208
     8  H    0.043749
     9  C   -0.974779
    10  H    0.053348
    11  H    0.019748
    12  H    0.759195
    13  H    0.060254
    14  H    0.047926
 Sum of Mulliken charges =   0.00000

 Dipole moment (field-independent basis, Debye):
    X=             -0.2706    Y=              0.0227    Z=             -0.5456  Tot=              0.6094
 Quadrupole moment (field-independent basis, Debye-Ang):
   XX=            -31.5365   YY=            -27.8213   ZZ=            -27.9159
   XY=             -0.3671   XZ=              0.3060   YZ=              0.4497

 Normal termination of Gaussian 09 at Wed Aug 26 11:57:20 2020.
