 Gaussian 09, Revision D.01,
 Gaussian 09:  ES64L-G09RevD.01 24-Apr-2013

 --------------------
 #p B2PLYPD3/Def2QZVP
 --------------------

 ----------
 butane_opt
 ----------
 Symbolic Z-matrix:
 Charge =  0 Multiplicity = 1

                         Standard orientation:
 ---------------------------------------------------------------------
 Center     Atomic      Atomic             Coordinates (Angstroms)
 Number     Number       Type             X           Y           Z
 ---------------------------------------------------------------------
      1          6           0        2.010965   -0.155300   -0.178451
      2          6           0        0.512735    0.643014    0.135300
      3          1           0        2.558194    0.219093   -0.795312
      4          1           0        1.737722   -0.601506   -0.878381
      5          1           0        2.634364   -0.768449    1.041120
      6          6           0       -0.619533   -0.513817    0.190934
      7          1           0        0.261763    0.804757   -0.476261
      8          1           0        0.645767    1.565972    1.171705
      9          6           0       -1.944313    0.065018   -0.089855
     10          1           0       -0.363077   -1.078161    1.029681
     11          1           0       -0.286360   -1.050887   -0.630451
     12          1           0       -2.070637    0.649020    0.674869
     13          1           0       -2.838091   -0.922397   -0.186127
     14          1           0       -2.038772    0.949073   -1.298413
 ---------------------------------------------------------------------

 SCF Done:  E(RB2PLYPD3) =  -157.523069686     A.U. after   11 cycles
 E2(B2PLYPD3) =    -0.2545561767D+00 E(B2PLYPD3) =    -0.15777762586259D+03

 The electronic state is 1-A.
 Alpha  occ. eigenvalues --  -10.64995 -10.61399 -10.60388 -10.60265  -0.94417
 Alpha  occ. eigenvalues --   -0.86090  -0.78683  -0.69197  -0.55029  -0.48923
 Alpha  occ. eigenvalues --   -0.47862  -0.45539  -0.42591  -0.40871  -0.39014
 Alpha  occ. eigenvalues --   -0.35165  -0.34498
 Alpha virt. eigenvalues --    0.03837   0.04468   0.07231   0.07650   0.09355
 Alpha virt. eigenvalues --    0.10433   0.11915   0.12672   0.13148   0.15114
 Alpha virt. eigenvalues --    0.16021   0.17297   0.17472   0.18275   0.20846

 Mulliken charges:
               1
     1  C   -0.294427
     2  C   -0.687949
     3  H    0.099520
     4  H    0.150413
     5  H    0.045126
     6  C   -0.050179
     7  H    0.602823
     8  H    0.040682
     9  C   -0.193982
    10  H    0.065983
    11  H    0.059283
    12  H    0.108265
    13  H    0.043515
    14  H    0.010927
 Sum of Mulliken charges =   0.00000

 Dipole moment (field-independent basis, Debye):
    X=             -0.0002    Y=             -0.2965    Z=             -0.2677  Tot=              0.3995
 Quadrupole moment (field-independent basis, Debye-Ang):
   XX=            -31.0267   YY=            -30.0513   ZZ=            -27.3199
   XY=              0.0560   XZ=             -1.2412   YZ=             -0.0485

 Normal termination of Gaussian 09 at Wed Aug 26 15:59:55 2020.
