 Gaussian 09, Revision D.01,
 Gaussian 09:  ES64L-G09RevD.01 24-Apr-2013

 --------------------
 #p B2PLYPD3/Def2QZVP
 --------------------

 ----------
 butane_opt
 ----------
 Symbolic Z-matrix:
 Charge =  0 Multiplicity = 1

                         Standard orientation:
 ---------------------------------------------------------------------
 Center     Atomic      Atomic             Coordinates (Angstroms)
 Number     Number       Type             X           Y           Z
 ---------------------------------------------------------------------
      1          6           0        1.951789   -0.145774    0.152807
      2          6           0        0.584194    0.425804   -0.244984
      3          1           0        2.774969    0.781181    0.424106
      4          1           0        2.144086   -0.514828   -0.518608
      5          1           0        1.280636   -0.852226    1.118986
      6          6           0       -0.546208   -0.518310   -0.154436
      7          1           0        0.684959    1.144732   -1.249273
      8          1           0        0.487456    1.117832    0.586618
      9          6           0       -1.936050    0.160335    0.158289
     10          1           0       -0.419367   -0.960183    0.617236
     11          1           0       -0.393031   -1.328721   -0.881171
     12          1           0       -1.920259    0.952985    1.046884
     13          1           0       -2.742251   -0.504487   -0.060774
     14          1           0       -2.219548    0.631382   -0.554067
 ---------------------------------------------------------------------

 SCF Done:  E(RB2PLYPD3) =  -157.824651594     A.U. after   11 cycles
 E2(B2PLYPD3) =    -0.2509426394D+00 E(B2PLYPD3) =    -0.15807559423322D+03

 The electronic state is 1-A.
 Alpha  occ. eigenvalues --  -10.61057 -10.60939 -10.59010 -10.58765  -0.93532
 Alpha  occ. eigenvalues --   -0.85502  -0.77043  -0.67788  -0.55678  -0.51330
 Alpha  occ. eigenvalues --   -0.48930  -0.46112  -0.44078  -0.39963  -0.38333
 Alpha  occ. eigenvalues --   -0.37456  -0.35076
 Alpha virt. eigenvalues --    0.05061   0.06475   0.07867   0.08228   0.10310
 Alpha virt. eigenvalues --    0.11739   0.12139   0.14214   0.14467   0.14895
 Alpha virt. eigenvalues --    0.15685   0.16242   0.18209   0.19930   0.21931

 Mulliken charges:
               1
     1  C   -0.369400
     2  C   -0.039553
     3  H    0.050630
     4  H    0.257796
     5  H    0.029336
     6  C   -0.114505
     7  H    0.003305
     8  H    0.045295
     9  C   -0.170987
    10  H    0.121434
    11  H    0.020565
    12  H    0.050326
    13  H    0.030932
    14  H    0.084826
 Sum of Mulliken charges =   0.00000

 Dipole moment (field-independent basis, Debye):
    X=             -0.3704    Y=              0.0962    Z=             -0.3199  Tot=              0.4988
 Quadrupole moment (field-independent basis, Debye-Ang):
   XX=            -29.3704   YY=            -28.9535   ZZ=            -28.9315
   XY=              0.8216   XZ=             -0.3532   YZ=              1.0351

 Normal termination of Gaussian 09 at Wed Aug 26 18:34:02 2020.
