 Gaussian 09, Revision D.01,
 Gaussian 09:  ES64L-G09RevD.01 24-Apr-2013

 --------------------
 #p B2PLYPD3/Def2QZVP
 --------------------

 ----------
 butane_opt
 ----------
 Symbolic Z-matrix:
 Charge =  0 Multiplicity = 1

                         Standard orientation:
 ---------------------------------------------------------------------
 Center     Atomic      Atomic             Coordinates (Angstroms)
 Number     Number       Type             X           Y           Z
 ---------------------------------------------------------------------
      1          6           0        1.841855    0.027017    0.040166
      2          6           0        0.610444   -0.449337   -0.181498
      3          1           0        2.711855   -0.661894    0.691444
      4          1           0        1.482150    0.505615    0.927962
      5          1           0        2.684393    0.923943   -0.919496
      6          6           0       -0.477411    0.538771   -0.019295
      7          1           0        0.413294   -1.238406    0.727104
      8          1           0        0.346498   -1.148055   -1.032317
      9          6           0       -1.990345   -0.117832    0.053224
     10          1           0       -0.348705    1.200347   -0.806201
     11          1           0       -0.278624    1.341449    1.052531
     12          1           0       -2.161422   -0.574987   -0.795786
     13          1           0       -2.635945    0.412726   -0.122659
     14          1           0       -2.120757   -0.752452    0.921838
 ---------------------------------------------------------------------

 SCF Done:  E(RB2PLYPD3) =  -157.863057135     A.U. after   11 cycles
 E2(B2PLYPD3) =    -0.2539322011D+00 E(B2PLYPD3) =    -0.15811698933611D+03

 The electronic state is 1-A.
 Alpha  occ. eigenvalues --  -10.64272 -10.63396 -10.62195 -10.57333  -0.95200
 Alpha  occ. eigenvalues --   -0.86519  -0.74997  -0.64761  -0.55123  -0.51044
 Alpha  occ. eigenvalues --   -0.49071  -0.48147  -0.43563  -0.41066  -0.37617
 Alpha  occ. eigenvalues --   -0.36166  -0.32803
 Alpha virt. eigenvalues --    0.04317   0.05078   0.06737   0.07111   0.09967
 Alpha virt. eigenvalues --    0.10436   0.12630   0.13775   0.14403   0.15108
 Alpha virt. eigenvalues --    0.15842   0.16641   0.19152   0.19540   0.20712

 Mulliken charges:
               1
     1  C   -0.187884
     2  C   -0.006175
     3  H    0.043447
     4  H    0.082210
     5  H    0.009343
     6  C   -0.030486
     7  H    0.019758
     8  H    0.029515
     9  C   -0.206474
    10  H    0.058520
    11  H   -0.017141
    12  H    0.035342
    13  H    0.113557
    14  H    0.056469
 Sum of Mulliken charges =   0.00000

 Dipole moment (field-independent basis, Debye):
    X=             -0.8767    Y=             -0.3354    Z=              0.0480  Tot=              0.9399
 Quadrupole moment (field-independent basis, Debye-Ang):
   XX=            -29.9989   YY=            -30.2166   ZZ=            -28.5111
   XY=             -0.1859   XZ=              1.3993   YZ=             -0.7977

 Normal termination of Gaussian 09 at Wed Aug 26 12:53:46 2020.
