 Gaussian 09, Revision D.01,
 Gaussian 09:  ES64L-G09RevD.01 24-Apr-2013

 --------------------
 #p B2PLYPD3/Def2QZVP
 --------------------

 ----------
 butane_opt
 ----------
 Symbolic Z-matrix:
 Charge =  0 Multiplicity = 1

                         Standard orientation:
 ---------------------------------------------------------------------
 Center     Atomic      Atomic             Coordinates (Angstroms)
 Number     Number       Type             X           Y           Z
 ---------------------------------------------------------------------
      1          6           0       -1.942357   -0.192022    0.115260
      2          6           0       -0.476351    0.632568   -0.072983
      3          1           0       -2.827413    0.659914   -0.205519
      4          1           0       -2.205343   -1.047015    1.166144
      5          1           0       -2.005190   -0.525082   -0.600553
      6          6           0        0.576687   -0.471169   -0.124536
      7          1           0       -0.192579    0.804271    0.346538
      8          1           0       -0.397419    1.499460   -1.143729
      9          6           0        1.813285    0.038703    0.165641
     10          1           0        0.659537   -1.201698   -1.227364
     11          1           0        0.175943   -0.891109    0.701593
     12          1           0        2.004528    0.366321   -0.426065
     13          1           0        2.743008   -0.734448   -0.510383
     14          1           0        2.217346    1.020902    1.399046
 ---------------------------------------------------------------------

 SCF Done:  E(RB2PLYPD3) =  -156.745280678     A.U. after   13 cycles
 E2(B2PLYPD3) =    -0.2592779220D+00 E(B2PLYPD3) =    -0.15700455860018D+03

 The electronic state is 1-A.
 Alpha  occ. eigenvalues --  -10.63575 -10.62985 -10.62166 -10.62060  -0.99881
 Alpha  occ. eigenvalues --   -0.88444  -0.81357  -0.71036  -0.54218  -0.51372
 Alpha  occ. eigenvalues --   -0.47461  -0.46101  -0.44306  -0.40099  -0.38430
 Alpha  occ. eigenvalues --   -0.36334  -0.32303
 Alpha virt. eigenvalues --    0.01302   0.03414   0.04959   0.06802   0.09871
 Alpha virt. eigenvalues --    0.10756   0.11583   0.12378   0.13868   0.15299
 Alpha virt. eigenvalues --    0.15449   0.15909   0.17023   0.18086   0.20579

 Mulliken charges:
               1
     1  C   -0.381318
     2  C   -0.919421
     3  H    0.027434
     4  H    0.064007
     5  H    0.301357
     6  C    0.021081
     7  H    0.842824
     8  H    0.025125
     9  C   -0.634449
    10  H    0.025097
    11  H    0.079119
    12  H    0.505231
    13  H    0.002375
    14  H    0.041538
 Sum of Mulliken charges =   0.00000

 Dipole moment (field-independent basis, Debye):
    X=             -0.1803    Y=             -0.0465    Z=             -0.6289  Tot=              0.6559
 Quadrupole moment (field-independent basis, Debye-Ang):
   XX=            -31.5445   YY=            -29.9044   ZZ=            -27.5894
   XY=              2.0207   XZ=             -0.9651   YZ=              0.0837

 Normal termination of Gaussian 09 at Wed Aug 26 22:47:36 2020.
