 Gaussian 09, Revision D.01,
 Gaussian 09:  ES64L-G09RevD.01 24-Apr-2013

 --------------------
 #p B2PLYPD3/Def2QZVP
 --------------------

 ----------
 butane_opt
 ----------
 Symbolic Z-matrix:
 Charge =  0 Multiplicity = 1

                         Standard orientation:
 ---------------------------------------------------------------------
 Center     Atomic      Atomic             Coordinates (Angstroms)
 Number     Number       Type             X           Y           Z
 ---------------------------------------------------------------------
      1          6           0       -1.887238    0.049961   -0.044543
      2          6           0       -0.501389   -0.464865    0.136563
      3          1           0       -2.764496   -0.819387   -0.314301
      4          1           0       -1.621837    0.650279   -1.005890
      5          1           0       -2.259918    1.043636    0.786810
      6          6           0        0.514993    0.511585    0.040430
      7          1           0       -0.476730   -1.219180   -0.789332
      8          1           0       -0.606195   -1.047348    1.004637
      9          6           0        1.875125   -0.121348   -0.046195
     10          1           0        0.524237    1.363960    0.922052
     11          1           0        0.258305    1.171392   -0.717410
     12          1           0        2.552543   -0.810114    0.917323
     13          1           0        2.527646    0.414713   -0.556935
     14          1           0        1.857501   -0.599948   -0.764481
 ---------------------------------------------------------------------

 SCF Done:  E(RB2PLYPD3) =  -157.919196933     A.U. after   11 cycles
 E2(B2PLYPD3) =    -0.2518723510D+00 E(B2PLYPD3) =    -0.15817106928408D+03

 The electronic state is 1-A.
 Alpha  occ. eigenvalues --  -10.64384 -10.61378 -10.60608 -10.58621  -0.94622
 Alpha  occ. eigenvalues --   -0.85810  -0.74084  -0.65889  -0.54543  -0.51199
 Alpha  occ. eigenvalues --   -0.49731  -0.45753  -0.41314  -0.39814  -0.38459
 Alpha  occ. eigenvalues --   -0.37472  -0.35286
 Alpha virt. eigenvalues --    0.05218   0.05819   0.07109   0.08119   0.10134
 Alpha virt. eigenvalues --    0.11304   0.11973   0.12668   0.13880   0.15659
 Alpha virt. eigenvalues --    0.16306   0.17161   0.19137   0.19391   0.21346

 Mulliken charges:
               1
     1  C   -0.184497
     2  C    0.011880
     3  H    0.056276
     4  H    0.029779
     5  H    0.026444
     6  C   -0.006619
     7  H    0.015817
     8  H    0.041702
     9  C   -0.240427
    10  H    0.008355
    11  H    0.037443
    12  H    0.043244
    13  H    0.035319
    14  H    0.125285
 Sum of Mulliken charges =   0.00000

 Dipole moment (field-independent basis, Debye):
    X=              0.3578    Y=             -0.1686    Z=             -0.6250  Tot=              0.7396
 Quadrupole moment (field-independent basis, Debye-Ang):
   XX=            -30.4936   YY=            -29.2420   ZZ=            -28.7854
   XY=              0.6806   XZ=             -0.8356   YZ=             -0.1327

 Normal termination of Gaussian 09 at Wed Aug 26 14:57:34 2020.
