 Gaussian 09, Revision D.01,
 Gaussian 09:  ES64L-G09RevD.01 24-Apr-2013

 --------------------
 #p B2PLYPD3/Def2QZVP
 --------------------

 ----------
 butane_opt
 ----------
 Symbolic Z-matrix:
 Charge =  0 Multiplicity = 1

                         Standard orientation:
 ---------------------------------------------------------------------
 Center     Atomic      Atomic             Coordinates (Angstroms)
 Number     Number       Type             X           Y           Z
 ---------------------------------------------------------------------
      1          6           0        1.902107    0.118873   -0.123131
      2          6           0        0.598712   -0.489824    0.137142
      3          1           0        2.789822   -0.727282   -0.347470
      4          1           0        2.204138    0.768103    0.810136
      5          1           0        1.894835    0.617295   -0.923035
      6          6           0       -0.510457    0.561027    0.120514
      7          1           0        0.616422   -1.286144    1.178633
      8          1           0        0.374821   -0.863518   -0.606770
      9          6           0       -1.984120   -0.157164   -0.120738
     10          1           0       -0.293797    1.057309   -0.705404
     11          1           0       -0.634549    1.214047    0.957481
     12          1           0       -1.910587   -0.887414   -1.061104
     13          1           0       -2.760289    0.655652   -0.172557
     14          1           0       -2.318270   -0.745520    0.787372
 ---------------------------------------------------------------------

 SCF Done:  E(RB2PLYPD3) =  -157.986951671     A.U. after   11 cycles
 E2(B2PLYPD3) =    -0.2479389198D+00 E(B2PLYPD3) =    -0.15823489059119D+03

 The electronic state is 1-A.
 Alpha  occ. eigenvalues --  -10.62426 -10.60249 -10.60171 -10.59507  -0.93415
 Alpha  occ. eigenvalues --   -0.82269  -0.72834  -0.68262  -0.56046  -0.49369
 Alpha  occ. eigenvalues --   -0.48299  -0.46761  -0.42367  -0.41611  -0.39455
 Alpha  occ. eigenvalues --   -0.37453  -0.36137
 Alpha virt. eigenvalues --    0.05447   0.06578   0.08069   0.08786   0.10838
 Alpha virt. eigenvalues --    0.11617   0.12539   0.13241   0.14659   0.14852
 Alpha virt. eigenvalues --    0.15645   0.16630   0.19116   0.19685   0.21455

 Mulliken charges:
               1
     1  C   -0.154384
     2  C   -0.182457
     3  H    0.020860
     4  H    0.042839
     5  H    0.068158
     6  C   -0.064742
     7  H    0.017046
     8  H    0.178822
     9  C   -0.163279
    10  H    0.068642
    11  H    0.037542
    12  H    0.036117
    13  H    0.047720
    14  H    0.047116
 Sum of Mulliken charges =   0.00000

 Dipole moment (field-independent basis, Debye):
    X=             -0.1265    Y=              0.2976    Z=             -0.3189  Tot=              0.4542
 Quadrupole moment (field-independent basis, Debye-Ang):
   XX=            -30.6742   YY=            -29.2470   ZZ=            -27.9333
   XY=             -0.3506   XZ=             -0.9398   YZ=              0.2887

 Normal termination of Gaussian 09 at Wed Aug 26 23:01:55 2020.
