 Gaussian 09, Revision D.01,
 Gaussian 09:  ES64L-G09RevD.01 24-Apr-2013

 --------------------
 #p B2PLYPD3/Def2QZVP
 --------------------

 ----------
 butane_opt
 ----------
 Symbolic Z-matrix:
 Charge =  0 Multiplicity = 1

                         Standard orientation:
 ---------------------------------------------------------------------
 Center     Atomic      Atomic             Coordinates (Angstroms)
 Number     Number       Type             X           Y           Z
 ---------------------------------------------------------------------
      1          6           0       -2.039084   -0.244435   -0.119863
      2          6           0       -0.544144    0.568268   -0.021899
      3          1           0       -2.700856    0.446990   -0.312430
      4          1           0       -2.344589   -0.304260    0.716708
      5          1           0       -2.026996   -1.304019   -0.884074
      6          6           0        0.643365   -0.392586    0.440995
      7          1           0       -0.828824    1.745344    0.919882
      8          1           0       -0.428326    0.938992   -1.030160
      9          6           0        1.978108    0.106304   -0.207421
     10          1           0        0.249357   -1.112778   -0.175242
     11          1           0        0.702765   -0.815720    1.524683
     12          1           0        1.534546    0.334661   -1.159700
     13          1           0        3.021587   -1.034048   -0.630144
     14          1           0        2.591866    0.879533    0.479609
 ---------------------------------------------------------------------

 SCF Done:  E(RB2PLYPD3) =  -157.857286001     A.U. after   11 cycles
 E2(B2PLYPD3) =    -0.2556488951D+00 E(B2PLYPD3) =    -0.15811293489637D+03

 The electronic state is 1-A.
 Alpha  occ. eigenvalues --  -10.67129 -10.66213 -10.62971 -10.60302  -0.90459
 Alpha  occ. eigenvalues --   -0.83982  -0.72735  -0.66196  -0.53343  -0.49220
 Alpha  occ. eigenvalues --   -0.48342  -0.44271  -0.42723  -0.42262  -0.38999
 Alpha  occ. eigenvalues --   -0.35255  -0.32872
 Alpha virt. eigenvalues --    0.03249   0.05086   0.06126   0.07824   0.08725
 Alpha virt. eigenvalues --    0.10231   0.11316   0.13316   0.14248   0.14425
 Alpha virt. eigenvalues --    0.15155   0.16218   0.18014   0.18150   0.19843

 Mulliken charges:
               1
     1  C   -0.178140
     2  C   -0.092050
     3  H    0.058187
     4  H    0.093133
     5  H    0.045074
     6  C   -0.067975
     7  H   -0.036828
     8  H    0.082272
     9  C   -0.168308
    10  H    0.079047
    11  H    0.053205
    12  H    0.077976
    13  H   -0.022864
    14  H    0.077271
 Sum of Mulliken charges =   0.00000

 Dipole moment (field-independent basis, Debye):
    X=             -0.8031    Y=             -0.0843    Z=             -0.0876  Tot=              0.8123
 Quadrupole moment (field-independent basis, Debye-Ang):
   XX=            -31.3981   YY=            -30.9457   ZZ=            -28.7925
   XY=              0.9387   XZ=              0.8289   YZ=              0.0716

 Normal termination of Gaussian 09 at Wed Aug 26 11:52:12 2020.
