 Gaussian 09, Revision D.01,
 Gaussian 09:  ES64L-G09RevD.01 24-Apr-2013

 --------------------
 #p B2PLYPD3/Def2QZVP
 --------------------

 ----------
 butane_opt
 ----------
 Symbolic Z-matrix:
 Charge =  0 Multiplicity = 1

                         Standard orientation:
 ---------------------------------------------------------------------
 Center     Atomic      Atomic             Coordinates (Angstroms)
 Number     Number       Type             X           Y           Z
 ---------------------------------------------------------------------
      1          6           0       -1.947215    0.025746   -0.071293
      2          6           0       -0.678652   -0.439750    0.181854
      3          1           0       -2.683358   -0.746147   -0.527516
      4          1           0       -1.651753    0.333119   -0.818616
      5          1           0       -2.306857    1.142774    0.964555
      6          6           0        0.503732    0.564788   -0.062191
      7          1           0       -0.765664   -0.915833   -0.513367
      8          1           0       -0.588767   -0.944811    1.196864
      9          6           0        2.041144   -0.166533   -0.094241
     10          1           0        0.723472    1.335237    0.638174
     11          1           0        0.278642    1.107036   -1.052472
     12          1           0        2.175876   -0.729653    0.965665
     13          1           0        2.891734    0.538726    0.300023
     14          1           0        2.412628   -1.025958   -0.878082
 ---------------------------------------------------------------------

 SCF Done:  E(RB2PLYPD3) =  -157.814522810     A.U. after   11 cycles
 E2(B2PLYPD3) =    -0.2531853199D+00 E(B2PLYPD3) =    -0.15806770812937D+03

 The electronic state is 1-A.
 Alpha  occ. eigenvalues --  -10.64464 -10.63742 -10.61629 -10.58837  -0.98842
 Alpha  occ. eigenvalues --   -0.82714  -0.71913  -0.67865  -0.56886  -0.52108
 Alpha  occ. eigenvalues --   -0.48231  -0.46694  -0.41801  -0.39304  -0.38688
 Alpha  occ. eigenvalues --   -0.36465  -0.34386
 Alpha virt. eigenvalues --    0.03930   0.05558   0.07757   0.08198   0.09850
 Alpha virt. eigenvalues --    0.10748   0.11542   0.12683   0.13583   0.14202
 Alpha virt. eigenvalues --    0.15644   0.17067   0.18738   0.19539   0.20127

 Mulliken charges:
               1
     1  C   -0.269286
     2  C   -0.194226
     3  H    0.055746
     4  H    0.186168
     5  H   -0.017217
     6  C   -0.036194
     7  H    0.217710
     8  H    0.037336
     9  C   -0.174144
    10  H    0.059339
    11  H    0.018723
    12  H    0.020778
    13  H    0.039509
    14  H    0.055758
 Sum of Mulliken charges =   0.00000

 Dipole moment (field-independent basis, Debye):
    X=              0.2860    Y=             -0.4042    Z=             -0.4652  Tot=              0.6794
 Quadrupole moment (field-independent basis, Debye-Ang):
   XX=            -31.5169   YY=            -29.6492   ZZ=            -28.4228
   XY=              1.7330   XZ=              2.4476   YZ=              1.2366

 Normal termination of Gaussian 09 at Wed Aug 26 19:11:22 2020.
