 Gaussian 09, Revision D.01,
 Gaussian 09:  ES64L-G09RevD.01 24-Apr-2013

 --------------------
 #p B2PLYPD3/Def2QZVP
 --------------------

 ----------
 butane_opt
 ----------
 Symbolic Z-matrix:
 Charge =  0 Multiplicity = 1

                         Standard orientation:
 ---------------------------------------------------------------------
 Center     Atomic      Atomic             Coordinates (Angstroms)
 Number     Number       Type             X           Y           Z
 ---------------------------------------------------------------------
      1          6           0       -2.024944   -0.197119   -0.140272
      2          6           0       -0.507168    0.614097    0.114820
      3          1           0       -2.835456    0.423237   -0.659423
      4          1           0       -2.522691   -0.730482    0.866368
      5          1           0       -1.455719   -0.889719   -0.823067
      6          6           0        0.623430   -0.366499    0.217975
      7          1           0       -0.498181    1.620469    1.048943
      8          1           0       -0.012372    0.830420   -0.574261
      9          6           0        1.897325    0.030789   -0.114612
     10          1           0        0.402526   -1.371965   -0.689657
     11          1           0        0.417408   -0.840462    1.312717
     12          1           0        1.754311    0.856237   -1.346661
     13          1           0        2.648022   -0.814031   -0.006449
     14          1           0        2.170297    0.428697    0.404023
 ---------------------------------------------------------------------

 SCF Done:  E(RB2PLYPD3) =  -157.639767202     A.U. after   11 cycles
 E2(B2PLYPD3) =    -0.2566097204D+00 E(B2PLYPD3) =    -0.15789637692216D+03

 The electronic state is 1-A.
 Alpha  occ. eigenvalues --  -10.64558 -10.64307 -10.62077 -10.60241  -0.96646
 Alpha  occ. eigenvalues --   -0.85539  -0.74952  -0.66006  -0.56374  -0.51024
 Alpha  occ. eigenvalues --   -0.49212  -0.44554  -0.43341  -0.40713  -0.37155
 Alpha  occ. eigenvalues --   -0.35065  -0.33484
 Alpha virt. eigenvalues --    0.03900   0.05661   0.06039   0.06747   0.09800
 Alpha virt. eigenvalues --    0.11007   0.12050   0.13116   0.14167   0.14809
 Alpha virt. eigenvalues --    0.15847   0.16027   0.16493   0.19348   0.21755

 Mulliken charges:
               1
     1  C   -0.169071
     2  C   -0.187658
     3  H    0.061067
     4  H    0.049708
     5  H    0.082594
     6  C   -0.019439
     7  H    0.004668
     8  H    0.176618
     9  C   -0.496760
    10  H   -0.007229
    11  H    0.028977
    12  H    0.011325
    13  H    0.078681
    14  H    0.386520
 Sum of Mulliken charges =   0.00000

 Dipole moment (field-independent basis, Debye):
    X=              0.3389    Y=             -0.0705    Z=              0.3703  Tot=              0.5069
 Quadrupole moment (field-independent basis, Debye-Ang):
   XX=            -28.3529   YY=            -30.8345   ZZ=            -29.3236
   XY=             -0.3812   XZ=              0.8411   YZ=             -0.1213

 Normal termination of Gaussian 09 at Wed Aug 26 16:28:35 2020.
