 Gaussian 09, Revision D.01,
 Gaussian 09:  ES64L-G09RevD.01 24-Apr-2013

 --------------------
 #p B2PLYPD3/Def2QZVP
 --------------------

 ----------
 butane_opt
 ----------
 Symbolic Z-matrix:
 Charge =  0 Multiplicity = 1

                         Standard orientation:
 ---------------------------------------------------------------------
 Center     Atomic      Atomic             Coordinates (Angstroms)
 Number     Number       Type             X           Y           Z
 ---------------------------------------------------------------------
      1          6           0       -2.019458   -0.145235   -0.102723
      2          6           0       -0.527264    0.629146   -0.012871
      3          1           0       -2.599216    0.396293    0.127292
      4          1           0       -2.109678   -0.467890    0.829491
      5          1           0       -2.333286   -1.167442   -1.077477
      6          6           0        0.663352   -0.441662    0.192698
      7          1           0       -0.608802    1.495612    0.896098
      8          1           0       -0.334909    0.901958   -0.852327
      9          6           0        1.875785    0.037275   -0.074266
     10          1           0        0.602711   -0.985689   -0.469719
     11          1           0        0.455475   -1.444661    1.463224
     12          1           0        1.797080    0.644992   -1.057016
     13          1           0        2.707164   -0.739133   -0.747932
     14          1           0        2.468970    0.888816    0.871339
 ---------------------------------------------------------------------

 SCF Done:  E(RB2PLYPD3) =  -157.676761110     A.U. after   12 cycles
 E2(B2PLYPD3) =    -0.2561708185D+00 E(B2PLYPD3) =    -0.15793293192874D+03

 The electronic state is 1-A.
 Alpha  occ. eigenvalues --  -10.65521 -10.63349 -10.62315 -10.60034  -0.95533
 Alpha  occ. eigenvalues --   -0.87007  -0.76094  -0.66598  -0.54997  -0.50322
 Alpha  occ. eigenvalues --   -0.48015  -0.46319  -0.42208  -0.41141  -0.38114
 Alpha  occ. eigenvalues --   -0.35962  -0.32161
 Alpha virt. eigenvalues --    0.03084   0.04796   0.05321   0.07171   0.09203
 Alpha virt. eigenvalues --    0.10257   0.11020   0.12804   0.13207   0.14415
 Alpha virt. eigenvalues --    0.15836   0.16938   0.17690   0.18763   0.19754

 Mulliken charges:
               1
     1  C   -0.326172
     2  C   -0.104473
     3  H    0.184376
     4  H    0.067904
     5  H    0.046021
     6  C   -0.159100
     7  H    0.030415
     8  H    0.138026
     9  C   -0.155721
    10  H    0.215499
    11  H   -0.045323
    12  H    0.043944
    13  H    0.034451
    14  H    0.030153
 Sum of Mulliken charges =   0.00000

 Dipole moment (field-independent basis, Debye):
    X=             -0.3647    Y=              0.5336    Z=             -0.8291  Tot=              1.0513
 Quadrupole moment (field-independent basis, Debye-Ang):
   XX=            -30.5944   YY=            -30.2851   ZZ=            -28.6890
   XY=             -0.0623   XZ=             -2.4442   YZ=              1.9248

 Normal termination of Gaussian 09 at Wed Aug 26 16:33:12 2020.
