 Gaussian 09, Revision D.01,
 Gaussian 09:  ES64L-G09RevD.01 24-Apr-2013

 --------------------
 #p B2PLYPD3/Def2QZVP
 --------------------

 ----------
 butane_opt
 ----------
 Symbolic Z-matrix:
 Charge =  0 Multiplicity = 1

                         Standard orientation:
 ---------------------------------------------------------------------
 Center     Atomic      Atomic             Coordinates (Angstroms)
 Number     Number       Type             X           Y           Z
 ---------------------------------------------------------------------
      1          6           0       -2.002544   -0.214127    0.147097
      2          6           0       -0.571751    0.690541   -0.235384
      3          1           0       -2.714791    0.150875    1.054374
      4          1           0       -1.707896   -0.748456    0.829690
      5          1           0       -2.762378   -0.625416   -0.817684
      6          6           0        0.553240   -0.468161   -0.287523
      7          1           0       -0.177880    1.013395    0.733944
      8          1           0       -0.711550    1.464178   -0.986216
      9          6           0        1.977101    0.080548    0.208668
     10          1           0        0.940819   -0.976026   -1.222956
     11          1           0        0.265636   -1.196476    0.499426
     12          1           0        2.215077    0.649432   -0.415717
     13          1           0        2.850784   -0.810312    0.106689
     14          1           0        2.065900    0.545997    1.221303
 ---------------------------------------------------------------------

 SCF Done:  E(RB2PLYPD3) =  -157.933270344     A.U. after   11 cycles
 E2(B2PLYPD3) =    -0.2516767483D+00 E(B2PLYPD3) =    -0.15818494709275D+03

 The electronic state is 1-A.
 Alpha  occ. eigenvalues --  -10.63809 -10.62759 -10.62217 -10.59576  -0.89375
 Alpha  occ. eigenvalues --   -0.82416  -0.74313  -0.67477  -0.54555  -0.49927
 Alpha  occ. eigenvalues --   -0.46533  -0.45066  -0.43334  -0.40761  -0.38341
 Alpha  occ. eigenvalues --   -0.35810  -0.35529
 Alpha virt. eigenvalues --    0.05403   0.06092   0.08296   0.08785   0.10369
 Alpha virt. eigenvalues --    0.10981   0.12045   0.12896   0.14369   0.15307
 Alpha virt. eigenvalues --    0.16745   0.17123   0.17759   0.18291   0.20524

 Mulliken charges:
               1
     1  C   -0.236618
     2  C   -0.099358
     3  H    0.014527
     4  H    0.127156
     5  H    0.059313
     6  C   -0.061468
     7  H    0.063880
     8  H    0.068777
     9  C   -0.215560
    10  H    0.039015
    11  H    0.055057
    12  H    0.131967
    13  H    0.017673
    14  H    0.035640
 Sum of Mulliken charges =   0.00000

 Dipole moment (field-independent basis, Debye):
    X=              0.2764    Y=              0.0987    Z=              0.0896  Tot=              0.3069
 Quadrupole moment (field-independent basis, Debye-Ang):
   XX=            -30.7812   YY=            -29.7935   ZZ=            -27.5896
   XY=              0.7310   XZ=             -0.4037   YZ=             -0.6933

 Normal termination of Gaussian 09 at Wed Aug 26 23:43:57 2020.
