 Gaussian 09, Revision D.01,
 Gaussian 09:  ES64L-G09RevD.01 24-Apr-2013

 --------------------
 #p B2PLYPD3/Def2QZVP
 --------------------

 ----------
 butane_opt
 ----------
 Symbolic Z-matrix:
 Charge =  0 Multiplicity = 1

                         Standard orientation:
 ---------------------------------------------------------------------
 Center     Atomic      Atomic             Coordinates (Angstroms)
 Number     Number       Type             X           Y           Z
 ---------------------------------------------------------------------
      1          6           0       -2.010170   -0.174355   -0.228047
      2          6           0       -0.568011    0.577060    0.283832
      3          1           0       -2.671526    0.374828   -0.814538
      4          1           0       -2.994120   -0.815128    0.752597
      5          1           0       -1.664309   -0.492180   -0.782735
      6          6           0        0.619918   -0.497266    0.192545
      7          1           0       -0.670830    1.371818    1.299837
      8          1           0       -0.304640    1.159073   -0.641012
      9          6           0        1.945519    0.098877   -0.196183
     10          1           0        0.582072   -1.275986   -0.623006
     11          1           0        0.875001   -1.129633    1.184680
     12          1           0        2.093599    0.817831   -1.148265
     13          1           0        2.635813   -0.741959   -0.083692
     14          1           0        2.195405    0.705440    0.543254
 ---------------------------------------------------------------------

 SCF Done:  E(RB2PLYPD3) =  -157.776617542     A.U. after   11 cycles
 E2(B2PLYPD3) =    -0.2527039582D+00 E(B2PLYPD3) =    -0.15802932150044D+03

 The electronic state is 1-A.
 Alpha  occ. eigenvalues --  -10.65746 -10.63253 -10.60534 -10.59776  -0.90878
 Alpha  occ. eigenvalues --   -0.86127  -0.74079  -0.65811  -0.52185  -0.50575
 Alpha  occ. eigenvalues --   -0.48979  -0.45867  -0.41371  -0.40372  -0.39093
 Alpha  occ. eigenvalues --   -0.36477  -0.35003
 Alpha virt. eigenvalues --    0.04584   0.05795   0.07389   0.07937   0.08767
 Alpha virt. eigenvalues --    0.11223   0.12001   0.12792   0.14087   0.15148
 Alpha virt. eigenvalues --    0.16203   0.16614   0.18101   0.19159   0.20585

 Mulliken charges:
               1
     1  C   -0.538885
     2  C   -0.099045
     3  H    0.058142
     4  H    0.030020
     5  H    0.428297
     6  C   -0.033518
     7  H    0.048522
     8  H    0.053523
     9  C   -0.143446
    10  H    0.037062
    11  H    0.020832
    12  H    0.025314
    13  H    0.048641
    14  H    0.064540
 Sum of Mulliken charges =   0.00000

 Dipole moment (field-independent basis, Debye):
    X=              0.4233    Y=              0.2230    Z=             -0.3678  Tot=              0.6035
 Quadrupole moment (field-independent basis, Debye-Ang):
   XX=            -30.0369   YY=            -29.5959   ZZ=            -28.2704
   XY=             -0.8331   XZ=              0.8991   YZ=             -0.0204

 Normal termination of Gaussian 09 at Wed Aug 26 10:02:27 2020.
