 Gaussian 09, Revision D.01,
 Gaussian 09:  ES64L-G09RevD.01 24-Apr-2013

 --------------------
 #p B2PLYPD3/Def2QZVP
 --------------------

 ----------
 butane_opt
 ----------
 Symbolic Z-matrix:
 Charge =  0 Multiplicity = 1

                         Standard orientation:
 ---------------------------------------------------------------------
 Center     Atomic      Atomic             Coordinates (Angstroms)
 Number     Number       Type             X           Y           Z
 ---------------------------------------------------------------------
      1          6           0       -1.957399   -0.178606   -0.187422
      2          6           0       -0.472247    0.542014    0.124178
      3          1           0       -2.778288    0.641180   -0.563250
      4          1           0       -2.365828   -0.919783    0.827189
      5          1           0       -1.831233   -0.810032   -0.874074
      6          6           0        0.600255   -0.430009    0.241853
      7          1           0       -0.573656    1.676050    1.263622
      8          1           0        0.024423    0.769875   -0.469812
      9          6           0        1.891865    0.059191   -0.146283
     10          1           0        0.278693   -0.925541   -0.344027
     11          1           0        0.593449   -1.020088    1.062655
     12          1           0        1.702817    0.786023   -1.372230
     13          1           0        2.763310   -0.859348   -0.241678
     14          1           0        1.811472    0.706128    0.517649
 ---------------------------------------------------------------------

 SCF Done:  E(RB2PLYPD3) =  -157.666357375     A.U. after   12 cycles
 E2(B2PLYPD3) =    -0.2541214617D+00 E(B2PLYPD3) =    -0.15792047883716D+03

 The electronic state is 1-A.
 Alpha  occ. eigenvalues --  -10.64218 -10.63077 -10.62544 -10.56880  -1.00206
 Alpha  occ. eigenvalues --   -0.83454  -0.76181  -0.72038  -0.56879  -0.51358
 Alpha  occ. eigenvalues --   -0.47757  -0.46426  -0.43207  -0.40656  -0.38123
 Alpha  occ. eigenvalues --   -0.37429  -0.33959
 Alpha virt. eigenvalues --    0.03974   0.05613   0.05911   0.07564   0.10403
 Alpha virt. eigenvalues --    0.11134   0.11970   0.12835   0.13615   0.15105
 Alpha virt. eigenvalues --    0.15614   0.15715   0.17966   0.19635   0.20075

 Mulliken charges:
               1
     1  C   -0.191290
     2  C   -0.288136
     3  H    0.060560
     4  H    0.037760
     5  H    0.106088
     6  C   -0.217101
     7  H   -0.044277
     8  H    0.302501
     9  C   -0.212164
    10  H    0.209854
    11  H    0.033205
    12  H    0.002903
    13  H    0.073241
    14  H    0.126856
 Sum of Mulliken charges =   0.00000

 Dipole moment (field-independent basis, Debye):
    X=              0.0450    Y=             -1.2515    Z=             -0.4716  Tot=              1.3382
 Quadrupole moment (field-independent basis, Debye-Ang):
   XX=            -29.9142   YY=            -29.7735   ZZ=            -29.4361
   XY=             -0.6976   XZ=              1.1911   YZ=             -0.3976

 Normal termination of Gaussian 09 at Wed Aug 26 22:46:29 2020.
