 Gaussian 09, Revision D.01,
 Gaussian 09:  ES64L-G09RevD.01 24-Apr-2013

 --------------------
 #p B2PLYPD3/Def2QZVP
 --------------------

 ----------
 butane_opt
 ----------
 Symbolic Z-matrix:
 Charge =  0 Multiplicity = 1

                         Standard orientation:
 ---------------------------------------------------------------------
 Center     Atomic      Atomic             Coordinates (Angstroms)
 Number     Number       Type             X           Y           Z
 ---------------------------------------------------------------------
      1          6           0        2.007127    0.016096   -0.196410
      2          6           0        0.602880   -0.402842    0.365026
      3          1           0        2.854718   -0.804613   -0.537114
      4          1           0        2.448148    0.792626    0.477282
      5          1           0        1.615881    0.422536   -0.980963
      6          6           0       -0.520939    0.637122    0.138486
      7          1           0        0.617948   -0.905510    1.235271
      8          1           0        0.386754   -0.955838   -0.364335
      9          6           0       -2.016499   -0.261403   -0.197824
     10          1           0       -0.184936    1.054341   -0.866613
     11          1           0       -0.754979    1.471974    0.889755
     12          1           0       -2.017514   -0.811150   -0.866338
     13          1           0       -2.838974    0.517555   -0.330011
     14          1           0       -2.562464   -0.715760    0.687392
 ---------------------------------------------------------------------

 SCF Done:  E(RB2PLYPD3) =  -157.967234775     A.U. after   11 cycles
 E2(B2PLYPD3) =    -0.2487484534D+00 E(B2PLYPD3) =    -0.15821598322820D+03

 The electronic state is 1-A.
 Alpha  occ. eigenvalues --  -10.64204 -10.60155 -10.59723 -10.58288  -0.91430
 Alpha  occ. eigenvalues --   -0.82276  -0.74712  -0.67996  -0.56276  -0.50889
 Alpha  occ. eigenvalues --   -0.47381  -0.44850  -0.44549  -0.41423  -0.39879
 Alpha  occ. eigenvalues --   -0.37611  -0.35043
 Alpha virt. eigenvalues --    0.05662   0.06606   0.08675   0.09323   0.10536
 Alpha virt. eigenvalues --    0.11760   0.12828   0.13094   0.14384   0.15721
 Alpha virt. eigenvalues --    0.16422   0.16834   0.18803   0.19300   0.20562

 Mulliken charges:
               1
     1  C   -0.173754
     2  C   -0.119231
     3  H    0.038286
     4  H    0.039040
     5  H    0.076680
     6  C   -0.092483
     7  H    0.046374
     8  H    0.109438
     9  C   -0.207686
    10  H    0.040408
    11  H    0.052296
    12  H    0.130320
    13  H    0.027408
    14  H    0.032904
 Sum of Mulliken charges =   0.00000

 Dipole moment (field-independent basis, Debye):
    X=             -0.2010    Y=             -0.1140    Z=             -0.1482  Tot=              0.2745
 Quadrupole moment (field-independent basis, Debye-Ang):
   XX=            -29.4192   YY=            -28.9146   ZZ=            -28.1789
   XY=             -0.2881   XZ=             -0.3265   YZ=              0.8115

 Normal termination of Gaussian 09 at Wed Aug 26 12:36:35 2020.
