 Gaussian 09, Revision D.01,
 Gaussian 09:  ES64L-G09RevD.01 24-Apr-2013

 --------------------
 #p B2PLYPD3/Def2QZVP
 --------------------

 ----------
 butane_opt
 ----------
 Symbolic Z-matrix:
 Charge =  0 Multiplicity = 1

                         Standard orientation:
 ---------------------------------------------------------------------
 Center     Atomic      Atomic             Coordinates (Angstroms)
 Number     Number       Type             X           Y           Z
 ---------------------------------------------------------------------
      1          6           0       -2.046236   -0.218990    0.182648
      2          6           0       -0.515753    0.659965   -0.148452
      3          1           0       -2.762449    0.324027    0.741551
      4          1           0       -1.911805   -0.880085    0.865582
      5          1           0       -2.728116   -0.874785   -1.047115
      6          6           0        0.650315   -0.396938   -0.339846
      7          1           0       -0.152376    1.035666    0.895639
      8          1           0       -0.732065    1.733230   -1.042140
      9          6           0        1.984032    0.035552    0.228708
     10          1           0        0.486554   -0.719721   -1.120159
     11          1           0        0.317908   -1.282885    0.408039
     12          1           0        2.358075    0.704061   -0.635520
     13          1           0        2.951664   -1.047978    0.077588
     14          1           0        1.738465    0.530930    1.318190
 ---------------------------------------------------------------------

 SCF Done:  E(RB2PLYPD3) =  -157.821968669     A.U. after   11 cycles
 E2(B2PLYPD3) =    -0.2571830021D+00 E(B2PLYPD3) =    -0.15807915167131D+03

 The electronic state is 1-A.
 Alpha  occ. eigenvalues --  -10.67355 -10.66342 -10.64044 -10.60505  -0.90519
 Alpha  occ. eigenvalues --   -0.80784  -0.72856  -0.67192  -0.53722  -0.46677
 Alpha  occ. eigenvalues --   -0.46343  -0.44772  -0.42526  -0.40548  -0.36853
 Alpha  occ. eigenvalues --   -0.35730  -0.34502
 Alpha virt. eigenvalues --    0.03507   0.04047   0.06350   0.07904   0.09480
 Alpha virt. eigenvalues --    0.09730   0.11147   0.11761   0.13166   0.14920
 Alpha virt. eigenvalues --    0.15606   0.15935   0.18110   0.18543   0.19277

 Mulliken charges:
               1
     1  C   -0.177296
     2  C   -0.108193
     3  H    0.059722
     4  H    0.091547
     5  H    0.008591
     6  C   -0.104352
     7  H    0.038007
     8  H    0.035859
     9  C   -0.154146
    10  H    0.143867
    11  H    0.013495
    12  H    0.055336
    13  H    0.022911
    14  H    0.074654
 Sum of Mulliken charges =   0.00000

 Dipole moment (field-independent basis, Debye):
    X=              0.1530    Y=              0.0182    Z=              0.3691  Tot=              0.3999
 Quadrupole moment (field-independent basis, Debye-Ang):
   XX=            -32.2087   YY=            -30.6497   ZZ=            -28.2036
   XY=             -0.0433   XZ=             -1.7891   YZ=             -0.0009

 Normal termination of Gaussian 09 at Wed Aug 26 20:02:23 2020.
