 Gaussian 09, Revision D.01,
 Gaussian 09:  ES64L-G09RevD.01 24-Apr-2013

 --------------------
 #p B2PLYPD3/Def2QZVP
 --------------------

 ----------
 butane_opt
 ----------
 Symbolic Z-matrix:
 Charge =  0 Multiplicity = 1

                         Standard orientation:
 ---------------------------------------------------------------------
 Center     Atomic      Atomic             Coordinates (Angstroms)
 Number     Number       Type             X           Y           Z
 ---------------------------------------------------------------------
      1          6           0       -2.019315    0.100933   -0.023540
      2          6           0       -0.457275   -0.626165    0.012921
      3          1           0       -2.723471   -0.548972    0.407964
      4          1           0       -2.715849    1.307544   -1.083840
      5          1           0       -1.940029    0.348332    0.430447
      6          6           0        0.598875    0.500487    0.107087
      7          1           0       -0.562848   -0.981447   -0.687625
      8          1           0       -0.309166   -1.205335    0.792629
      9          6           0        1.935264   -0.025104   -0.163252
     10          1           0        0.670027    1.399498    1.285226
     11          1           0        0.492084    0.886735   -0.609037
     12          1           0        1.961528   -0.710378    0.846293
     13          1           0        2.613865    0.563848    0.063689
     14          1           0        2.168560   -0.760736   -1.045044
 ---------------------------------------------------------------------

 SCF Done:  E(RB2PLYPD3) =  -156.893640162     A.U. after   12 cycles
 E2(B2PLYPD3) =    -0.2542268741D+00 E(B2PLYPD3) =    -0.15714786703579D+03

 The electronic state is 1-A.
 Alpha  occ. eigenvalues --  -10.63415 -10.61002 -10.60044 -10.58823  -0.95344
 Alpha  occ. eigenvalues --   -0.89646  -0.80209  -0.71305  -0.58796  -0.51442
 Alpha  occ. eigenvalues --   -0.50016  -0.48292  -0.44687  -0.38698  -0.36949
 Alpha  occ. eigenvalues --   -0.35964  -0.35822
 Alpha virt. eigenvalues --    0.00563   0.04404   0.06660   0.08007   0.10396
 Alpha virt. eigenvalues --    0.10961   0.11500   0.12819   0.14069   0.15753
 Alpha virt. eigenvalues --    0.16066   0.16813   0.18336   0.19121   0.21022

 Mulliken charges:
               1
     1  C   -0.940876
     2  C   -0.225634
     3  H    0.096593
     4  H    0.017989
     5  H    0.720517
     6  C   -0.252380
     7  H    0.256879
     8  H    0.082618
     9  C   -0.169729
    10  H    0.010744
    11  H    0.267694
    12  H   -0.003189
    13  H    0.080524
    14  H    0.058249
 Sum of Mulliken charges =   0.00000

 Dipole moment (field-independent basis, Debye):
    X=              0.4805    Y=             -0.2727    Z=              0.2418  Tot=              0.6030
 Quadrupole moment (field-independent basis, Debye-Ang):
   XX=            -30.0855   YY=            -28.6768   ZZ=            -27.8488
   XY=              0.9016   XZ=             -1.5990   YZ=             -0.0496

 Normal termination of Gaussian 09 at Wed Aug 26 19:57:32 2020.
