 Gaussian 09, Revision D.01,
 Gaussian 09:  ES64L-G09RevD.01 24-Apr-2013

 --------------------
 #p B2PLYPD3/Def2QZVP
 --------------------

 ----------
 butane_opt
 ----------
 Symbolic Z-matrix:
 Charge =  0 Multiplicity = 1

                         Standard orientation:
 ---------------------------------------------------------------------
 Center     Atomic      Atomic             Coordinates (Angstroms)
 Number     Number       Type             X           Y           Z
 ---------------------------------------------------------------------
      1          6           0       -1.886024   -0.115705    0.090482
      2          6           0       -0.574095    0.467415   -0.129676
      3          1           0       -2.755895    0.768287    0.018198
      4          1           0       -2.024377   -0.751361    1.048902
      5          1           0       -1.998114   -0.613379   -0.650192
      6          6           0        0.478115   -0.532401   -0.033109
      7          1           0       -0.441914    0.940849    0.559035
      8          1           0       -0.493149    1.264261   -1.131072
      9          6           0        1.960902    0.131998    0.116266
     10          1           0        0.502311   -1.311651   -0.888142
     11          1           0        0.330513   -1.012626    0.771153
     12          1           0        1.895627    0.568351   -0.673388
     13          1           0        2.835516   -0.713459   -0.386141
     14          1           0        2.276097    1.152895    1.067868
 ---------------------------------------------------------------------

 SCF Done:  E(RB2PLYPD3) =  -157.845108497     A.U. after   11 cycles
 E2(B2PLYPD3) =    -0.2503898292D+00 E(B2PLYPD3) =    -0.15809549832576D+03

 The electronic state is 1-A.
 Alpha  occ. eigenvalues --  -10.63099 -10.60416 -10.59527 -10.58616  -0.95093
 Alpha  occ. eigenvalues --   -0.83990  -0.74388  -0.69535  -0.55995  -0.49038
 Alpha  occ. eigenvalues --   -0.47890  -0.47190  -0.41582  -0.40888  -0.38310
 Alpha  occ. eigenvalues --   -0.38161  -0.36698
 Alpha virt. eigenvalues --    0.04267   0.05785   0.07545   0.07757   0.10698
 Alpha virt. eigenvalues --    0.11351   0.12305   0.12882   0.14507   0.15298
 Alpha virt. eigenvalues --    0.15764   0.16074   0.18693   0.19513   0.21417

 Mulliken charges:
               1
     1  C   -0.183571
     2  C   -0.183700
     3  H    0.023172
     4  H    0.042892
     5  H    0.105541
     6  C   -0.032757
     7  H    0.191581
     8  H    0.006284
     9  C   -0.282113
    10  H    0.015852
    11  H    0.073803
    12  H    0.155341
    13  H    0.027052
    14  H    0.040625
 Sum of Mulliken charges =   0.00000

 Dipole moment (field-independent basis, Debye):
    X=             -0.3519    Y=             -0.0118    Z=             -0.1832  Tot=              0.3969
 Quadrupole moment (field-independent basis, Debye-Ang):
   XX=            -31.7244   YY=            -28.6343   ZZ=            -28.2336
   XY=              0.4600   XZ=             -0.9510   YZ=              0.5970

 Normal termination of Gaussian 09 at Wed Aug 26 16:17:58 2020.
