 Gaussian 09, Revision D.01,
 Gaussian 09:  ES64L-G09RevD.01 24-Apr-2013

 --------------------
 #p B2PLYPD3/Def2QZVP
 --------------------

 ----------
 butane_opt
 ----------
 Symbolic Z-matrix:
 Charge =  0 Multiplicity = 1

                         Standard orientation:
 ---------------------------------------------------------------------
 Center     Atomic      Atomic             Coordinates (Angstroms)
 Number     Number       Type             X           Y           Z
 ---------------------------------------------------------------------
      1          6           0       -2.051373   -0.156975    0.114614
      2          6           0       -0.556265    0.577451   -0.210054
      3          1           0       -2.621141    0.420238    0.788000
      4          1           0       -1.538199   -0.869852    0.986386
      5          1           0       -2.685688   -0.867541   -0.795931
      6          6           0        0.583761   -0.403060   -0.175644
      7          1           0       -0.410456    1.089033    0.583276
      8          1           0       -0.512678    1.356617   -1.033269
      9          6           0        1.992910    0.053201    0.197304
     10          1           0        0.609351   -0.861458   -1.046401
     11          1           0        0.468743   -1.084318    0.600754
     12          1           0        2.086462    0.417420   -0.460938
     13          1           0        2.750637   -0.621290   -0.330564
     14          1           0        2.038773    0.597451    1.151362
 ---------------------------------------------------------------------

 SCF Done:  E(RB2PLYPD3) =  -157.838426300     A.U. after   11 cycles
 E2(B2PLYPD3) =    -0.2503350897D+00 E(B2PLYPD3) =    -0.15808876138928D+03

 The electronic state is 1-A.
 Alpha  occ. eigenvalues --  -10.64212 -10.60598 -10.57986 -10.56567  -0.93512
 Alpha  occ. eigenvalues --   -0.84567  -0.74211  -0.68348  -0.57525  -0.49851
 Alpha  occ. eigenvalues --   -0.47924  -0.46779  -0.43886  -0.39685  -0.38280
 Alpha  occ. eigenvalues --   -0.37262  -0.34846
 Alpha virt. eigenvalues --    0.05321   0.06126   0.08670   0.08731   0.10634
 Alpha virt. eigenvalues --    0.11468   0.11911   0.14131   0.14314   0.15188
 Alpha virt. eigenvalues --    0.15994   0.16233   0.18431   0.20053   0.20894

 Mulliken charges:
               1
     1  C   -0.197143
     2  C   -0.079917
     3  H    0.069525
     4  H    0.031998
     5  H    0.058929
     6  C   -0.018665
     7  H    0.074770
     8  H    0.022063
     9  C   -0.513929
    10  H    0.033583
    11  H    0.046097
    12  H    0.355660
    13  H    0.042628
    14  H    0.074402
 Sum of Mulliken charges =   0.00000

 Dipole moment (field-independent basis, Debye):
    X=              0.2773    Y=              0.3951    Z=             -0.0766  Tot=              0.4888
 Quadrupole moment (field-independent basis, Debye-Ang):
   XX=            -29.8593   YY=            -29.6219   ZZ=            -27.2024
   XY=              0.0780   XZ=             -1.1343   YZ=              1.0619

 Normal termination of Gaussian 09 at Wed Aug 26 22:14:12 2020.
