 Gaussian 09, Revision D.01,
 Gaussian 09:  ES64L-G09RevD.01 24-Apr-2013

 --------------------
 #p B2PLYPD3/Def2QZVP
 --------------------

 ----------
 butane_opt
 ----------
 Symbolic Z-matrix:
 Charge =  0 Multiplicity = 1

                         Standard orientation:
 ---------------------------------------------------------------------
 Center     Atomic      Atomic             Coordinates (Angstroms)
 Number     Number       Type             X           Y           Z
 ---------------------------------------------------------------------
      1          6           0        2.069637   -0.132419   -0.126932
      2          6           0        0.579112    0.630706    0.090304
      3          1           0        2.621087    0.345966   -0.646122
      4          1           0        1.738759   -0.335708   -0.696735
      5          1           0        2.608662   -1.347406    1.130194
      6          6           0       -0.576841   -0.460960    0.036842
      7          1           0        0.183757    0.998899   -0.489148
      8          1           0        0.487624    1.495917    1.163230
      9          6           0       -2.002176    0.035613   -0.076918
     10          1           0       -0.641722   -1.171108    0.895166
     11          1           0       -0.252440   -1.089528   -0.720122
     12          1           0       -2.156786    0.849280    0.902158
     13          1           0       -3.036964   -0.943940   -0.148977
     14          1           0       -1.970371    0.759984   -0.929411
 ---------------------------------------------------------------------

 SCF Done:  E(RB2PLYPD3) =  -157.442662219     A.U. after   12 cycles
 E2(B2PLYPD3) =    -0.2579973515D+00 E(B2PLYPD3) =    -0.15770065957085D+03

 The electronic state is 1-A.
 Alpha  occ. eigenvalues --  -10.65795 -10.62815 -10.61363 -10.61231  -0.95631
 Alpha  occ. eigenvalues --   -0.88317  -0.77442  -0.67678  -0.52980  -0.52286
 Alpha  occ. eigenvalues --   -0.47397  -0.45262  -0.41690  -0.38421  -0.37246
 Alpha  occ. eigenvalues --   -0.36341  -0.35769
 Alpha virt. eigenvalues --   -0.01306   0.04170   0.07290   0.07492   0.09250
 Alpha virt. eigenvalues --    0.09960   0.11227   0.12860   0.13936   0.15375
 Alpha virt. eigenvalues --    0.15818   0.16250   0.17778   0.18939   0.19569

 Mulliken charges:
               1
     1  C   -0.652049
     2  C   -0.382379
     3  H    0.091685
     4  H    0.537359
     5  H    0.050195
     6  C   -0.006537
     7  H    0.341156
     8  H    0.008711
     9  C   -0.197490
    10  H    0.025202
    11  H    0.038052
    12  H    0.048900
    13  H    0.053523
    14  H    0.043672
 Sum of Mulliken charges =   0.00000

 Dipole moment (field-independent basis, Debye):
    X=              0.0075    Y=             -0.2271    Z=             -0.9535  Tot=              0.9802
 Quadrupole moment (field-independent basis, Debye-Ang):
   XX=            -30.7327   YY=            -29.4553   ZZ=            -28.6176
   XY=              0.0143   XZ=             -1.0945   YZ=             -1.0168

 Normal termination of Gaussian 09 at Wed Aug 26 11:46:22 2020.
