 Gaussian 09, Revision D.01,
 Gaussian 09:  ES64L-G09RevD.01 24-Apr-2013

 --------------------
 #p B2PLYPD3/Def2QZVP
 --------------------

 ----------
 butane_opt
 ----------
 Symbolic Z-matrix:
 Charge =  0 Multiplicity = 1

                         Standard orientation:
 ---------------------------------------------------------------------
 Center     Atomic      Atomic             Coordinates (Angstroms)
 Number     Number       Type             X           Y           Z
 ---------------------------------------------------------------------
      1          6           0       -2.042478   -0.184821    0.046626
      2          6           0       -0.520840    0.638673   -0.020626
      3          1           0       -2.814826    0.540771   -0.554630
      4          1           0       -2.657901   -1.353893    1.301154
      5          1           0       -1.879343   -0.315260   -0.517917
      6          6           0        0.683493   -0.508666   -0.130401
      7          1           0       -0.210610    1.419502    0.897279
      8          1           0       -0.665208    1.337600   -0.878095
      9          6           0        1.895794    0.083733    0.064913
     10          1           0        0.633634   -1.333195   -1.231966
     11          1           0        0.518866   -1.033688    0.652579
     12          1           0        2.093602    0.420933   -0.535899
     13          1           0        2.765579   -0.651704    0.083972
     14          1           0        2.120392    0.795419    1.020450
 ---------------------------------------------------------------------

 SCF Done:  E(RB2PLYPD3) =  -157.178696772     A.U. after   13 cycles
 E2(B2PLYPD3) =    -0.2579702070D+00 E(B2PLYPD3) =    -0.15743666697886D+03

 The electronic state is 1-A.
 Alpha  occ. eigenvalues --  -10.65797 -10.63965 -10.62247 -10.56826  -0.94550
 Alpha  occ. eigenvalues --   -0.90560  -0.76556  -0.68839  -0.53718  -0.49338
 Alpha  occ. eigenvalues --   -0.49042  -0.45785  -0.41839  -0.40085  -0.38357
 Alpha  occ. eigenvalues --   -0.35305  -0.34731
 Alpha virt. eigenvalues --   -0.01169   0.05487   0.05877   0.06828   0.09946
 Alpha virt. eigenvalues --    0.10360   0.11761   0.12682   0.14658   0.15446
 Alpha virt. eigenvalues --    0.15714   0.16240   0.17898   0.18524   0.19929

 Mulliken charges:
               1
     1  C   -0.915610
     2  C   -0.039273
     3  H    0.056619
     4  H    0.053029
     5  H    0.762207
     6  C   -0.072257
     7  H    0.032315
     8  H    0.037628
     9  C   -0.471341
    10  H    0.005545
    11  H    0.108837
    12  H    0.355883
    13  H    0.039589
    14  H    0.046830
 Sum of Mulliken charges =   0.00000

 Dipole moment (field-independent basis, Debye):
    X=              0.7016    Y=              0.1282    Z=             -0.5422  Tot=              0.8960
 Quadrupole moment (field-independent basis, Debye-Ang):
   XX=            -30.5151   YY=            -28.9341   ZZ=            -27.9997
   XY=              0.4535   XZ=              0.8836   YZ=             -1.0319

 Normal termination of Gaussian 09 at Wed Aug 26 14:59:13 2020.
