 Gaussian 09, Revision D.01,
 Gaussian 09:  ES64L-G09RevD.01 24-Apr-2013

 --------------------
 #p B2PLYPD3/Def2QZVP
 --------------------

 ----------
 butane_opt
 ----------
 Symbolic Z-matrix:
 Charge =  0 Multiplicity = 1

                         Standard orientation:
 ---------------------------------------------------------------------
 Center     Atomic      Atomic             Coordinates (Angstroms)
 Number     Number       Type             X           Y           Z
 ---------------------------------------------------------------------
      1          6           0        1.955945   -0.078065   -0.189865
      2          6           0        0.647975    0.370073    0.351032
      3          1           0        2.873070    0.950214   -0.780262
      4          1           0        1.423586   -0.488005   -1.056763
      5          1           0        2.689542   -0.976838    0.634616
      6          6           0       -0.531341   -0.582725    0.061734
      7          1           0        0.352222    1.205165   -0.368962
      8          1           0        0.876341    1.111198    1.441068
      9          6           0       -2.025495    0.159759   -0.154836
     10          1           0       -0.794009   -1.216300    0.871832
     11          1           0       -0.322899   -1.066058   -0.842920
     12          1           0       -2.410098    0.654795    0.661035
     13          1           0       -2.810139   -0.529267   -0.010902
     14          1           0       -2.160116    1.140849   -0.957133
 ---------------------------------------------------------------------

 SCF Done:  E(RB2PLYPD3) =  -157.908789436     A.U. after   11 cycles
 E2(B2PLYPD3) =    -0.2560043145D+00 E(B2PLYPD3) =    -0.15816479375100D+03

 The electronic state is 1-A.
 Alpha  occ. eigenvalues --  -10.66714 -10.64340 -10.63204 -10.61878  -0.91617
 Alpha  occ. eigenvalues --   -0.82744  -0.73414  -0.64019  -0.54344  -0.48009
 Alpha  occ. eigenvalues --   -0.47375  -0.46326  -0.41914  -0.40163  -0.37636
 Alpha  occ. eigenvalues --   -0.35999  -0.33974
 Alpha virt. eigenvalues --    0.03452   0.05677   0.06891   0.07609   0.09147
 Alpha virt. eigenvalues --    0.09664   0.11507   0.12994   0.13831   0.13897
 Alpha virt. eigenvalues --    0.15622   0.16657   0.18252   0.19480   0.19907

 Mulliken charges:
               1
     1  C   -0.167363
     2  C   -0.075132
     3  H    0.023552
     4  H    0.064299
     5  H    0.036534
     6  C   -0.042819
     7  H    0.057533
     8  H    0.018897
     9  C   -0.143095
    10  H    0.044725
    11  H    0.070025
    12  H    0.040966
    13  H    0.041369
    14  H    0.030509
 Sum of Mulliken charges =   0.00000

 Dipole moment (field-independent basis, Debye):
    X=             -0.7961    Y=             -0.1519    Z=              0.0837  Tot=              0.8147
 Quadrupole moment (field-independent basis, Debye-Ang):
   XX=            -30.9585   YY=            -29.6269   ZZ=            -29.9633
   XY=              0.3178   XZ=             -0.8521   YZ=             -0.9035

 Normal termination of Gaussian 09 at Wed Aug 26 23:42:57 2020.
