 Gaussian 09, Revision D.01,
 Gaussian 09:  ES64L-G09RevD.01 24-Apr-2013

 --------------------
 #p B2PLYPD3/Def2QZVP
 --------------------

 ----------
 butane_opt
 ----------
 Symbolic Z-matrix:
 Charge =  0 Multiplicity = 1

                         Standard orientation:
 ---------------------------------------------------------------------
 Center     Atomic      Atomic             Coordinates (Angstroms)
 Number     Number       Type             X           Y           Z
 ---------------------------------------------------------------------
      1          6           0       -1.979584   -0.171171   -0.070706
      2          6           0       -0.485595    0.574873    0.033686
      3          1           0       -2.648038    0.352296   -0.184538
      4          1           0       -2.333755   -0.326077    0.549957
      5          1           0       -2.485843   -1.161804   -1.038814
      6          6           0        0.606364   -0.415062    0.327827
      7          1           0       -0.403680    1.527928    0.910818
      8          1           0       -0.517878    0.994993   -0.852101
      9          6           0        1.960395    0.044556   -0.272659
     10          1           0        0.311340   -0.789347   -0.115766
     11          1           0        0.754757   -1.131343    1.493521
     12          1           0        1.755578    0.203126   -1.086091
     13          1           0        2.764988   -0.875275   -0.423870
     14          1           0        2.193048    1.006327    0.637988
 ---------------------------------------------------------------------

 SCF Done:  E(RB2PLYPD3) =  -157.288158519     A.U. after   11 cycles
 E2(B2PLYPD3) =    -0.2523403465D+00 E(B2PLYPD3) =    -0.15754049886528D+03

 The electronic state is 1-A.
 Alpha  occ. eigenvalues --  -10.64163 -10.61597 -10.59221 -10.57982  -0.96307
 Alpha  occ. eigenvalues --   -0.90186  -0.79039  -0.71592  -0.55891  -0.50990
 Alpha  occ. eigenvalues --   -0.48200  -0.44474  -0.44168  -0.40478  -0.38939
 Alpha  occ. eigenvalues --   -0.36796  -0.35664
 Alpha virt. eigenvalues --    0.03926   0.04913   0.07478   0.07915   0.09897
 Alpha virt. eigenvalues --    0.11367   0.12508   0.12763   0.13760   0.15253
 Alpha virt. eigenvalues --    0.15922   0.16978   0.18681   0.19031   0.20628

 Mulliken charges:
               1
     1  C   -0.501953
     2  C   -0.044909
     3  H    0.117456
     4  H    0.315267
     5  H    0.014584
     6  C   -0.722705
     7  H    0.003068
     8  H    0.091665
     9  C   -0.227049
    10  H    0.663255
    11  H    0.044372
    12  H    0.156363
    13  H    0.035999
    14  H    0.054586
 Sum of Mulliken charges =   0.00000

 Dipole moment (field-independent basis, Debye):
    X=             -0.5530    Y=              0.1522    Z=             -0.3189  Tot=              0.6563
 Quadrupole moment (field-independent basis, Debye-Ang):
   XX=            -28.9082   YY=            -29.5815   ZZ=            -28.0379
   XY=             -1.3052   XZ=             -0.6120   YZ=              0.4463

 Normal termination of Gaussian 09 at Wed Aug 26 13:55:01 2020.
