 Gaussian 09, Revision D.01,
 Gaussian 09:  ES64L-G09RevD.01 24-Apr-2013

 --------------------
 #p B2PLYPD3/Def2QZVP
 --------------------

 ----------
 butane_opt
 ----------
 Symbolic Z-matrix:
 Charge =  0 Multiplicity = 1

                         Standard orientation:
 ---------------------------------------------------------------------
 Center     Atomic      Atomic             Coordinates (Angstroms)
 Number     Number       Type             X           Y           Z
 ---------------------------------------------------------------------
      1          6           0        1.930114    0.035665   -0.121743
      2          6           0        0.601905   -0.572892    0.064136
      3          1           0        2.756472   -0.615822    0.014322
      4          1           0        2.363076    0.564293    0.594255
      5          1           0        1.895754    0.946834   -1.203333
      6          6           0       -0.580182    0.641863    0.160004
      7          1           0        0.678508   -1.176918    0.989722
      8          1           0        0.607734   -0.811292   -0.636535
      9          6           0       -2.042138   -0.154094   -0.130150
     10          1           0       -0.411752    0.981548   -0.409110
     11          1           0       -0.196906    1.635950    1.320602
     12          1           0       -1.875145   -0.563950   -0.985226
     13          1           0       -2.777071    0.457572   -0.508487
     14          1           0       -2.498862   -1.121471    0.990311
 ---------------------------------------------------------------------

 SCF Done:  E(RB2PLYPD3) =  -157.441165400     A.U. after   12 cycles
 E2(B2PLYPD3) =    -0.2542006138D+00 E(B2PLYPD3) =    -0.15769536601377D+03

 The electronic state is 1-A.
 Alpha  occ. eigenvalues --  -10.63831 -10.63325 -10.61139 -10.58440  -0.94368
 Alpha  occ. eigenvalues --   -0.86004  -0.76736  -0.73471  -0.56824  -0.49259
 Alpha  occ. eigenvalues --   -0.48098  -0.47113  -0.41999  -0.38417  -0.37914
 Alpha  occ. eigenvalues --   -0.37099  -0.34810
 Alpha virt. eigenvalues --    0.03276   0.04573   0.06439   0.07945   0.09530
 Alpha virt. eigenvalues --    0.10591   0.11793   0.12693   0.13570   0.14798
 Alpha virt. eigenvalues --    0.15931   0.16879   0.17969   0.18211   0.20181

 Mulliken charges:
               1
     1  C   -0.127023
     2  C   -0.451996
     3  H    0.042489
     4  H    0.046380
     5  H   -0.005309
     6  C   -0.611646
     7  H    0.069188
     8  H    0.456770
     9  C   -0.172155
    10  H    0.555039
    11  H    0.006543
    12  H    0.093499
    13  H    0.061167
    14  H    0.037054
 Sum of Mulliken charges =   0.00000

 Dipole moment (field-independent basis, Debye):
    X=              0.2544    Y=             -0.3407    Z=             -0.4702  Tot=              0.6340
 Quadrupole moment (field-independent basis, Debye-Ang):
   XX=            -29.0447   YY=            -29.9119   ZZ=            -28.2747
   XY=             -0.4992   XZ=              3.1308   YZ=             -1.2199

 Normal termination of Gaussian 09 at Wed Aug 26 12:45:00 2020.
