 Gaussian 09, Revision D.01,
 Gaussian 09:  ES64L-G09RevD.01 24-Apr-2013

 --------------------
 #p B2PLYPD3/Def2QZVP
 --------------------

 ----------
 butane_opt
 ----------
 Symbolic Z-matrix:
 Charge =  0 Multiplicity = 1

                         Standard orientation:
 ---------------------------------------------------------------------
 Center     Atomic      Atomic             Coordinates (Angstroms)
 Number     Number       Type             X           Y           Z
 ---------------------------------------------------------------------
      1          6           0       -1.859985    0.017695   -0.172990
      2          6           0       -0.580929   -0.413099    0.292901
      3          1           0       -2.530245   -0.801840   -0.364016
      4          1           0       -1.567561    0.369851   -1.089352
      5          1           0       -2.511019    1.018415    0.701535
      6          6           0        0.440820    0.572382   -0.055797
      7          1           0       -0.441491   -1.055341   -0.367825
      8          1           0       -0.664047   -1.091736    1.479720
      9          6           0        1.933122   -0.147806   -0.056250
     10          1           0        0.646131    1.520734    0.852837
     11          1           0        0.067748    0.911266   -1.015535
     12          1           0        2.243192   -0.426783    0.758353
     13          1           0        2.783274    0.639233    0.105154
     14          1           0        2.375848   -1.258835   -1.108051
 ---------------------------------------------------------------------

 SCF Done:  E(RB2PLYPD3) =  -157.829138516     A.U. after   11 cycles
 E2(B2PLYPD3) =    -0.2552864873D+00 E(B2PLYPD3) =    -0.15808442500336D+03

 The electronic state is 1-A.
 Alpha  occ. eigenvalues --  -10.65491 -10.63981 -10.62461 -10.61130  -0.95991
 Alpha  occ. eigenvalues --   -0.83533  -0.74448  -0.66438  -0.54490  -0.52743
 Alpha  occ. eigenvalues --   -0.47727  -0.43805  -0.42799  -0.38753  -0.38294
 Alpha  occ. eigenvalues --   -0.36621  -0.34809
 Alpha virt. eigenvalues --    0.03539   0.04463   0.06368   0.06824   0.09253
 Alpha virt. eigenvalues --    0.10424   0.12046   0.12331   0.13345   0.14379
 Alpha virt. eigenvalues --    0.15962   0.16273   0.18581   0.19189   0.20136

 Mulliken charges:
               1
     1  C   -0.143921
     2  C   -0.127701
     3  H    0.058765
     4  H    0.064719
     5  H   -0.002571
     6  C   -0.036034
     7  H    0.143473
     8  H    0.007624
     9  C   -0.200124
    10  H    0.012333
    11  H    0.075818
    12  H    0.116553
    13  H    0.024770
    14  H    0.006297
 Sum of Mulliken charges =   0.00000

 Dipole moment (field-independent basis, Debye):
    X=              0.0026    Y=             -0.2430    Z=             -0.0696  Tot=              0.2527
 Quadrupole moment (field-independent basis, Debye-Ang):
   XX=            -31.6078   YY=            -30.2975   ZZ=            -29.0355
   XY=              1.5892   XZ=              2.4295   YZ=              0.7432

 Normal termination of Gaussian 09 at Wed Aug 26 10:08:23 2020.
