 Gaussian 09, Revision D.01,
 Gaussian 09:  ES64L-G09RevD.01 24-Apr-2013

 --------------------
 #p B2PLYPD3/Def2QZVP
 --------------------

 ----------
 butane_opt
 ----------
 Symbolic Z-matrix:
 Charge =  0 Multiplicity = 1

                         Standard orientation:
 ---------------------------------------------------------------------
 Center     Atomic      Atomic             Coordinates (Angstroms)
 Number     Number       Type             X           Y           Z
 ---------------------------------------------------------------------
      1          6           0        1.989357   -0.067175    0.175431
      2          6           0        0.614871    0.545315   -0.049620
      3          1           0        2.734429    0.392661   -0.337462
      4          1           0        2.084706   -0.549573   -0.625418
      5          1           0        2.117225   -1.076252    1.236337
      6          6           0       -0.538925   -0.587571   -0.172453
      7          1           0        0.520315    1.697062   -1.120555
      8          1           0        0.308355    0.973462    0.660043
      9          6           0       -2.031560    0.119127    0.094296
     10          1           0       -0.566947   -1.019801    0.429142
     11          1           0       -0.137770   -1.249572   -1.145149
     12          1           0       -2.173850    0.912772    1.273679
     13          1           0       -2.873052   -0.662988   -0.104796
     14          1           0       -2.215870    0.524058   -0.551740
 ---------------------------------------------------------------------

 SCF Done:  E(RB2PLYPD3) =  -157.531232376     A.U. after   11 cycles
 E2(B2PLYPD3) =    -0.2546341629D+00 E(B2PLYPD3) =    -0.15778586653891D+03

 The electronic state is 1-A.
 Alpha  occ. eigenvalues --  -10.63245 -10.61623 -10.61239 -10.60379  -0.92392
 Alpha  occ. eigenvalues --   -0.86300  -0.78512  -0.72360  -0.53805  -0.49738
 Alpha  occ. eigenvalues --   -0.45756  -0.44933  -0.42902  -0.40595  -0.39484
 Alpha  occ. eigenvalues --   -0.35454  -0.34508
 Alpha virt. eigenvalues --    0.02989   0.04605   0.04908   0.08282   0.09736
 Alpha virt. eigenvalues --    0.10772   0.12448   0.12591   0.14515   0.14729
 Alpha virt. eigenvalues --    0.15554   0.16421   0.18074   0.18649   0.20684

 Mulliken charges:
               1
     1  C   -0.215698
     2  C   -0.103962
     3  H    0.066412
     4  H    0.107353
     5  H    0.045409
     6  C   -0.436757
     7  H   -0.027533
     8  H    0.141071
     9  C   -0.381942
    10  H    0.399262
    11  H    0.046490
    12  H    0.045323
    13  H    0.040436
    14  H    0.274133
 Sum of Mulliken charges =   0.00000

 Dipole moment (field-independent basis, Debye):
    X=              0.0074    Y=             -0.4905    Z=             -0.1851  Tot=              0.5243
 Quadrupole moment (field-independent basis, Debye-Ang):
   XX=            -29.0781   YY=            -29.7106   ZZ=            -28.6055
   XY=             -1.2921   XZ=             -1.2177   YZ=             -0.0593

 Normal termination of Gaussian 09 at Wed Aug 26 12:18:02 2020.
