 Gaussian 09, Revision D.01,
 Gaussian 09:  ES64L-G09RevD.01 24-Apr-2013

 --------------------
 #p B2PLYPD3/Def2QZVP
 --------------------

 ----------
 butane_opt
 ----------
 Symbolic Z-matrix:
 Charge =  0 Multiplicity = 1

                         Standard orientation:
 ---------------------------------------------------------------------
 Center     Atomic      Atomic             Coordinates (Angstroms)
 Number     Number       Type             X           Y           Z
 ---------------------------------------------------------------------
      1          6           0        1.854385    0.024686   -0.218286
      2          6           0        0.602427    0.207643    0.492056
      3          1           0        2.840061    1.218499   -0.351400
      4          1           0        1.282413    0.051315   -1.251795
      5          1           0        2.570695   -1.228447    0.303169
      6          6           0       -0.468092   -0.558798   -0.118657
      7          1           0        0.654029    1.039588    0.076289
      8          1           0        0.420330    0.352915    1.595707
      9          6           0       -1.990609    0.209918   -0.067394
     10          1           0       -0.657382   -1.475077    0.401517
     11          1           0       -0.282572   -0.570962   -1.041927
     12          1           0       -2.209245    0.176022    0.745796
     13          1           0       -2.618903   -0.366330   -0.375852
     14          1           0       -1.988087    1.501788   -0.627822
 ---------------------------------------------------------------------

 SCF Done:  E(RB2PLYPD3) =  -157.741916634     A.U. after   12 cycles
 E2(B2PLYPD3) =    -0.2555953436D+00 E(B2PLYPD3) =    -0.15799751197786D+03

 The electronic state is 1-A.
 Alpha  occ. eigenvalues --  -10.69199 -10.60108 -10.59102 -10.59080  -0.96461
 Alpha  occ. eigenvalues --   -0.86174  -0.75594  -0.66049  -0.57182  -0.50837
 Alpha  occ. eigenvalues --   -0.48453  -0.46861  -0.44376  -0.42111  -0.38622
 Alpha  occ. eigenvalues --   -0.35579  -0.32009
 Alpha virt. eigenvalues --    0.02221   0.05462   0.06789   0.07828   0.08633
 Alpha virt. eigenvalues --    0.10243   0.11447   0.13314   0.13486   0.14691
 Alpha virt. eigenvalues --    0.15569   0.16944   0.17798   0.19277   0.20830

 Mulliken charges:
               1
     1  C   -0.167607
     2  C   -0.104386
     3  H    0.017117
     4  H    0.076374
     5  H   -0.003522
     6  C   -0.072470
     7  H    0.123264
     8  H    0.039571
     9  C   -0.269334
    10  H    0.036845
    11  H    0.088996
    12  H    0.138649
    13  H    0.073350
    14  H    0.023155
 Sum of Mulliken charges =   0.00000

 Dipole moment (field-independent basis, Debye):
    X=             -1.0890    Y=              0.0539    Z=              0.1294  Tot=              1.0980
 Quadrupole moment (field-independent basis, Debye-Ang):
   XX=            -32.7231   YY=            -29.3591   ZZ=            -28.8574
   XY=              2.1264   XZ=             -0.5166   YZ=             -1.1513

 Normal termination of Gaussian 09 at Wed Aug 26 19:22:37 2020.
