 Gaussian 09, Revision D.01,
 Gaussian 09:  ES64L-G09RevD.01 24-Apr-2013

 --------------------
 #p B2PLYPD3/Def2QZVP
 --------------------

 ----------
 butane_opt
 ----------
 Symbolic Z-matrix:
 Charge =  0 Multiplicity = 1

                         Standard orientation:
 ---------------------------------------------------------------------
 Center     Atomic      Atomic             Coordinates (Angstroms)
 Number     Number       Type             X           Y           Z
 ---------------------------------------------------------------------
      1          6           0        1.924627    0.080580    0.001562
      2          6           0        0.568730   -0.456102    0.023659
      3          1           0        2.740362   -0.721404   -0.121796
      4          1           0        2.071959    0.851229    0.958792
      5          1           0        1.839943    0.549631   -0.797562
      6          6           0       -0.534784    0.566356    0.014157
      7          1           0        0.617209   -0.951300    0.712076
      8          1           0        0.484365   -1.329825   -1.081750
      9          6           0       -1.930147   -0.143527    0.007875
     10          1           0       -0.461804    1.255554   -0.856506
     11          1           0       -0.453577    1.260593    0.855666
     12          1           0       -2.041725   -0.530084   -0.699614
     13          1           0       -2.708411    0.502750   -0.420205
     14          1           0       -2.258884   -1.170984    1.167378
 ---------------------------------------------------------------------

 SCF Done:  E(RB2PLYPD3) =  -157.802201627     A.U. after   11 cycles
 E2(B2PLYPD3) =    -0.2505010385D+00 E(B2PLYPD3) =    -0.15805270266505D+03

 The electronic state is 1-A.
 Alpha  occ. eigenvalues --  -10.62258 -10.61344 -10.60144 -10.59587  -0.93803
 Alpha  occ. eigenvalues --   -0.86655  -0.75611  -0.69559  -0.54807  -0.49843
 Alpha  occ. eigenvalues --   -0.49432  -0.46590  -0.42342  -0.40462  -0.39040
 Alpha  occ. eigenvalues --   -0.36949  -0.35352
 Alpha virt. eigenvalues --    0.03671   0.05662   0.06715   0.07427   0.10540
 Alpha virt. eigenvalues --    0.11121   0.12107   0.12598   0.14238   0.15607
 Alpha virt. eigenvalues --    0.15904   0.16661   0.18706   0.19377   0.20965

 Mulliken charges:
               1
     1  C   -0.180403
     2  C   -0.142319
     3  H    0.052233
     4  H    0.026892
     5  H    0.092078
     6  C    0.022435
     7  H    0.157881
     8  H   -0.033232
     9  C   -0.321445
    10  H    0.017992
    11  H    0.037841
    12  H    0.218835
    13  H    0.031063
    14  H    0.020148
 Sum of Mulliken charges =   0.00000

 Dipole moment (field-independent basis, Debye):
    X=              0.1225    Y=              0.3165    Z=             -0.4042  Tot=              0.5278
 Quadrupole moment (field-independent basis, Debye-Ang):
   XX=            -30.6910   YY=            -29.2937   ZZ=            -28.2965
   XY=             -0.7608   XZ=              1.7538   YZ=             -0.6280

 Normal termination of Gaussian 09 at Wed Aug 26 21:29:24 2020.
