 Gaussian 09, Revision D.01,
 Gaussian 09:  ES64L-G09RevD.01 24-Apr-2013

 --------------------
 #p B2PLYPD3/Def2QZVP
 --------------------

 ----------
 butane_opt
 ----------
 Symbolic Z-matrix:
 Charge =  0 Multiplicity = 1

                         Standard orientation:
 ---------------------------------------------------------------------
 Center     Atomic      Atomic             Coordinates (Angstroms)
 Number     Number       Type             X           Y           Z
 ---------------------------------------------------------------------
      1          6           0       -2.038798   -0.110309   -0.146185
      2          6           0       -0.552012    0.600891    0.211925
      3          1           0       -2.711893    0.326938   -0.513855
      4          1           0       -2.560601   -0.747844    0.727925
      5          1           0       -1.838753   -1.025558   -1.069108
      6          6           0        0.620311   -0.493422    0.240684
      7          1           0       -0.593698    1.132910    0.861480
      8          1           0       -0.394363    1.252468   -0.750149
      9          6           0        1.957974    0.092229   -0.158209
     10          1           0        0.675051   -0.977438   -0.448670
     11          1           0        0.659017   -1.125538    1.305721
     12          1           0        1.738693    0.417384   -0.939714
     13          1           0        2.688049   -0.676327   -0.638447
     14          1           0        2.413647    0.886669    0.575527
 ---------------------------------------------------------------------

 SCF Done:  E(RB2PLYPD3) =  -157.822458762     A.U. after   11 cycles
 E2(B2PLYPD3) =    -0.2482024060D+00 E(B2PLYPD3) =    -0.15807066116775D+03

 The electronic state is 1-A.
 Alpha  occ. eigenvalues --  -10.61762 -10.61317 -10.59878 -10.59014  -0.92928
 Alpha  occ. eigenvalues --   -0.84293  -0.75554  -0.70818  -0.54526  -0.51511
 Alpha  occ. eigenvalues --   -0.49188  -0.46810  -0.43156  -0.39640  -0.38830
 Alpha  occ. eigenvalues --   -0.37564  -0.36695
 Alpha virt. eigenvalues --    0.05373   0.06458   0.08133   0.09038   0.10959
 Alpha virt. eigenvalues --    0.11692   0.12263   0.13206   0.14287   0.15264
 Alpha virt. eigenvalues --    0.16921   0.17691   0.18323   0.19551   0.21396

 Mulliken charges:
               1
     1  C   -0.200929
     2  C   -0.148458
     3  H    0.119614
     4  H    0.030493
     5  H    0.000925
     6  C   -0.221536
     7  H    0.164528
     8  H    0.016472
     9  C   -0.250169
    10  H    0.243016
    11  H    0.027745
    12  H    0.147872
    13  H    0.027630
    14  H    0.042797
 Sum of Mulliken charges =   0.00000

 Dipole moment (field-independent basis, Debye):
    X=             -0.0301    Y=              0.4084    Z=             -0.3091  Tot=              0.5131
 Quadrupole moment (field-independent basis, Debye-Ang):
   XX=            -29.5735   YY=            -29.0842   ZZ=            -27.8420
   XY=             -0.8311   XZ=             -0.7918   YZ=              0.6236

 Normal termination of Gaussian 09 at Wed Aug 26 13:22:33 2020.
