 Gaussian 09, Revision D.01,
 Gaussian 09:  ES64L-G09RevD.01 24-Apr-2013

 --------------------
 #p B2PLYPD3/Def2QZVP
 --------------------

 ----------
 butane_opt
 ----------
 Symbolic Z-matrix:
 Charge =  0 Multiplicity = 1

                         Standard orientation:
 ---------------------------------------------------------------------
 Center     Atomic      Atomic             Coordinates (Angstroms)
 Number     Number       Type             X           Y           Z
 ---------------------------------------------------------------------
      1          6           0       -1.900653    0.042669   -0.082892
      2          6           0       -0.585777   -0.421380    0.116920
      3          1           0       -2.701491   -0.713566   -0.239131
      4          1           0       -1.644420    0.673833   -1.003182
      5          1           0       -1.990582    0.619225    0.689322
      6          6           0        0.451983    0.530610    0.142613
      7          1           0       -0.367756   -1.062839   -0.703941
      8          1           0       -0.642867   -0.891664    0.840345
      9          6           0        2.002630   -0.171488   -0.089765
     10          1           0        0.340052    1.246302    1.201572
     11          1           0        0.361082    1.080535   -0.677742
     12          1           0        2.782149   -0.921500    0.881902
     13          1           0        2.622874    0.588584   -0.788788
     14          1           0        1.431863   -0.501381   -0.721614
 ---------------------------------------------------------------------

 SCF Done:  E(RB2PLYPD3) =  -157.855076309     A.U. after   11 cycles
 E2(B2PLYPD3) =    -0.2522052935D+00 E(B2PLYPD3) =    -0.15810728160266D+03

 The electronic state is 1-A.
 Alpha  occ. eigenvalues --  -10.63302 -10.62637 -10.58614 -10.55905  -0.97073
 Alpha  occ. eigenvalues --   -0.85359  -0.73573  -0.68723  -0.58749  -0.51481
 Alpha  occ. eigenvalues --   -0.49714  -0.47816  -0.41964  -0.40204  -0.39179
 Alpha  occ. eigenvalues --   -0.38410  -0.33448
 Alpha virt. eigenvalues --    0.04577   0.05964   0.07723   0.08406   0.10196
 Alpha virt. eigenvalues --    0.10827   0.12373   0.12994   0.14783   0.15654
 Alpha virt. eigenvalues --    0.16180   0.17046   0.17561   0.19789   0.20996

 Mulliken charges:
               1
     1  C   -0.139404
     2  C   -0.096414
     3  H    0.054658
     4  H    0.017902
     5  H    0.066076
     6  C   -0.069275
     7  H    0.016713
     8  H    0.096681
     9  C   -0.277313
    10  H   -0.002440
    11  H    0.083992
    12  H    0.073197
    13  H    0.036547
    14  H    0.139079
 Sum of Mulliken charges =   0.00000

 Dipole moment (field-independent basis, Debye):
    X=             -0.4268    Y=             -0.3412    Z=             -0.1140  Tot=              0.5582
 Quadrupole moment (field-independent basis, Debye-Ang):
   XX=            -30.2674   YY=            -29.8890   ZZ=            -28.0048
   XY=              0.8754   XZ=             -0.4159   YZ=             -0.9731

 Normal termination of Gaussian 09 at Wed Aug 26 14:45:39 2020.
