 Gaussian 09, Revision D.01,
 Gaussian 09:  ES64L-G09RevD.01 24-Apr-2013

 --------------------
 #p B2PLYPD3/Def2QZVP
 --------------------

 ----------
 butane_opt
 ----------
 Symbolic Z-matrix:
 Charge =  0 Multiplicity = 1

                         Standard orientation:
 ---------------------------------------------------------------------
 Center     Atomic      Atomic             Coordinates (Angstroms)
 Number     Number       Type             X           Y           Z
 ---------------------------------------------------------------------
      1          6           0       -1.941987    0.023438    0.076172
      2          6           0       -0.664842   -0.496758   -0.126638
      3          1           0       -2.561795   -0.591411    0.055806
      4          1           0       -2.044135    0.671117   -0.766266
      5          1           0       -1.878305    0.574255    1.048186
      6          6           0        0.536351    0.628885    0.072202
      7          1           0       -0.579105   -1.047789   -1.065917
      8          1           0       -0.440534   -0.975893    0.468609
      9          6           0        2.009447   -0.193052   -0.007655
     10          1           0        0.115501    1.111389    0.944251
     11          1           0        0.575999    1.575589   -0.843768
     12          1           0        2.708217   -1.094793    1.068478
     13          1           0        2.738409    0.416043   -0.415808
     14          1           0        1.731932   -0.413582   -0.578057
 ---------------------------------------------------------------------

 SCF Done:  E(RB2PLYPD3) =  -157.543977533     A.U. after   11 cycles
 E2(B2PLYPD3) =    -0.2508567373D+00 E(B2PLYPD3) =    -0.15779483426994D+03

 The electronic state is 1-A.
 Alpha  occ. eigenvalues --  -10.64792 -10.60647 -10.56861 -10.56496  -0.94517
 Alpha  occ. eigenvalues --   -0.88921  -0.76156  -0.68683  -0.56127  -0.53743
 Alpha  occ. eigenvalues --   -0.51596  -0.44815  -0.43164  -0.40594  -0.39825
 Alpha  occ. eigenvalues --   -0.36262  -0.35899
 Alpha virt. eigenvalues --    0.03764   0.05702   0.07566   0.08249   0.10905
 Alpha virt. eigenvalues --    0.11126   0.12655   0.13459   0.15071   0.15262
 Alpha virt. eigenvalues --    0.15861   0.16920   0.18310   0.19460   0.20388

 Mulliken charges:
               1
     1  C   -0.160089
     2  C   -0.282935
     3  H    0.091247
     4  H    0.047328
     5  H    0.034590
     6  C   -0.075300
     7  H    0.023428
     8  H    0.270884
     9  C   -0.700222
    10  H    0.058057
    11  H    0.003097
    12  H    0.043797
    13  H    0.077206
    14  H    0.568912
 Sum of Mulliken charges =   0.00000

 Dipole moment (field-independent basis, Debye):
    X=             -0.3310    Y=             -0.3145    Z=             -0.2275  Tot=              0.5101
 Quadrupole moment (field-independent basis, Debye-Ang):
   XX=            -28.9160   YY=            -29.0848   ZZ=            -27.8099
   XY=              0.6582   XZ=             -0.5228   YZ=             -0.5610

 Normal termination of Gaussian 09 at Wed Aug 26 21:54:42 2020.
