 Gaussian 09, Revision D.01,
 Gaussian 09:  ES64L-G09RevD.01 24-Apr-2013

 --------------------
 #p B2PLYPD3/Def2QZVP
 --------------------

 ----------
 butane_opt
 ----------
 Symbolic Z-matrix:
 Charge =  0 Multiplicity = 1

                         Standard orientation:
 ---------------------------------------------------------------------
 Center     Atomic      Atomic             Coordinates (Angstroms)
 Number     Number       Type             X           Y           Z
 ---------------------------------------------------------------------
      1          6           0        1.937305   -0.115531    0.141431
      2          6           0        0.497518    0.529638   -0.081473
      3          1           0        2.545778    0.500748   -0.318023
      4          1           0        1.946044   -0.307322   -0.435813
      5          1           0        2.263114   -1.317710    1.281809
      6          6           0       -0.584010   -0.479098   -0.234772
      7          1           0        0.462124    1.571327   -1.025904
      8          1           0        0.747477    0.849962    0.613932
      9          6           0       -1.876557    0.066463    0.180203
     10          1           0       -0.517566   -0.888045    0.379327
     11          1           0       -0.445576   -1.376356   -1.403711
     12          1           0       -1.957646    1.090649    1.284419
     13          1           0       -2.821387   -0.749082    0.241008
     14          1           0       -2.067903    0.616999   -0.649387
 ---------------------------------------------------------------------

 SCF Done:  E(RB2PLYPD3) =  -157.035597029     A.U. after   12 cycles
 E2(B2PLYPD3) =    -0.2596318474D+00 E(B2PLYPD3) =    -0.15729522887628D+03

 The electronic state is 1-A.
 Alpha  occ. eigenvalues --  -10.63954 -10.60896 -10.60449 -10.60195  -0.98657
 Alpha  occ. eigenvalues --   -0.92245  -0.78295  -0.71049  -0.57602  -0.48663
 Alpha  occ. eigenvalues --   -0.46342  -0.45097  -0.41804  -0.39895  -0.36545
 Alpha  occ. eigenvalues --   -0.35645  -0.34142
 Alpha virt. eigenvalues --    0.00208   0.02869   0.04952   0.07133   0.09577
 Alpha virt. eigenvalues --    0.11103   0.11298   0.12758   0.13012   0.15135
 Alpha virt. eigenvalues --    0.15978   0.16269   0.17918   0.18974   0.21329

 Mulliken charges:
               1
     1  C   -0.867037
     2  C   -0.316782
     3  H    0.049724
     4  H    0.697094
     5  H    0.066702
     6  C   -0.470055
     7  H    0.008485
     8  H    0.353096
     9  C   -0.174753
    10  H    0.478579
    11  H    0.022725
    12  H    0.032539
    13  H    0.042777
    14  H    0.076905
 Sum of Mulliken charges =   0.00000

 Dipole moment (field-independent basis, Debye):
    X=              0.2860    Y=             -0.3749    Z=             -0.2406  Tot=              0.5294
 Quadrupole moment (field-independent basis, Debye-Ang):
   XX=            -29.9402   YY=            -29.0036   ZZ=            -28.5985
   XY=             -0.0099   XZ=             -0.5397   YZ=             -0.8068

 Normal termination of Gaussian 09 at Wed Aug 26 23:03:18 2020.
