 Gaussian 09, Revision D.01,
 Gaussian 09:  ES64L-G09RevD.01 24-Apr-2013

 --------------------
 #p B2PLYPD3/Def2QZVP
 --------------------

 ----------
 butane_opt
 ----------
 Symbolic Z-matrix:
 Charge =  0 Multiplicity = 1

                         Standard orientation:
 ---------------------------------------------------------------------
 Center     Atomic      Atomic             Coordinates (Angstroms)
 Number     Number       Type             X           Y           Z
 ---------------------------------------------------------------------
      1          6           0       -2.001169   -0.137648   -0.063300
      2          6           0       -0.530554    0.587209    0.048288
      3          1           0       -2.678608    0.477505   -0.229253
      4          1           0       -2.258281   -0.735287    0.811289
      5          1           0       -2.042986   -1.009457   -0.999009
      6          6           0        0.607948   -0.461494    0.155697
      7          1           0       -0.608089    1.382993    0.958779
      8          1           0       -0.436120    1.111055   -0.836266
      9          6           0        1.930312    0.071430   -0.124804
     10          1           0        0.384854   -1.097807   -0.524769
     11          1           0        0.723677   -1.239220    1.242002
     12          1           0        1.949842    0.546705   -0.954379
     13          1           0        2.654685   -0.682949   -0.419463
     14          1           0        2.271806    0.889485    0.855783
 ---------------------------------------------------------------------

 SCF Done:  E(RB2PLYPD3) =  -157.988723577     A.U. after   11 cycles
 E2(B2PLYPD3) =    -0.2483754702D+00 E(B2PLYPD3) =    -0.15823709904684D+03

 The electronic state is 1-A.
 Alpha  occ. eigenvalues --  -10.62740 -10.61334 -10.60619 -10.60099  -0.91628
 Alpha  occ. eigenvalues --   -0.83428  -0.73931  -0.67225  -0.53552  -0.51109
 Alpha  occ. eigenvalues --   -0.49397  -0.45804  -0.43452  -0.39084  -0.38454
 Alpha  occ. eigenvalues --   -0.38072  -0.36279
 Alpha virt. eigenvalues --    0.05179   0.06423   0.07678   0.08229   0.10930
 Alpha virt. eigenvalues --    0.11583   0.12394   0.13271   0.13874   0.14785
 Alpha virt. eigenvalues --    0.15858   0.16892   0.19305   0.20037   0.20772

 Mulliken charges:
               1
     1  C   -0.156796
     2  C   -0.055014
     3  H    0.083958
     4  H    0.054466
     5  H   -0.001172
     6  C   -0.053679
     7  H    0.017135
     8  H    0.059758
     9  C   -0.154100
    10  H    0.077779
    11  H    0.002901
    12  H    0.057148
    13  H    0.040602
    14  H    0.027014
 Sum of Mulliken charges =   0.00000

 Dipole moment (field-independent basis, Debye):
    X=             -0.1491    Y=              0.1077    Z=             -0.5991  Tot=              0.6267
 Quadrupole moment (field-independent basis, Debye-Ang):
   XX=            -29.8264   YY=            -29.0845   ZZ=            -28.5488
   XY=             -1.0007   XZ=             -1.1719   YZ=              0.2536

 Normal termination of Gaussian 09 at Wed Aug 26 11:53:26 2020.
