 Gaussian 09, Revision D.01,
 Gaussian 09:  ES64L-G09RevD.01 24-Apr-2013

 --------------------
 #p B2PLYPD3/Def2QZVP
 --------------------

 ----------
 butane_opt
 ----------
 Symbolic Z-matrix:
 Charge =  0 Multiplicity = 1

                         Standard orientation:
 ---------------------------------------------------------------------
 Center     Atomic      Atomic             Coordinates (Angstroms)
 Number     Number       Type             X           Y           Z
 ---------------------------------------------------------------------
      1          6           0        1.885419    0.118517    0.149801
      2          6           0        0.616235   -0.475618   -0.143944
      3          1           0        2.772148   -0.789357   -0.015692
      4          1           0        1.757409    1.123254    1.299895
      5          1           0        2.078957    0.300961   -0.470208
      6          6           0       -0.546699    0.560605   -0.314265
      7          1           0        0.380445   -1.160397    0.859941
      8          1           0        0.658092   -0.968163   -1.034141
      9          6           0       -1.894827   -0.114997    0.226256
     10          1           0       -0.652654    1.178684   -1.228739
     11          1           0       -0.127461    0.902106    0.356183
     12          1           0       -2.642056   -0.989263   -0.760804
     13          1           0       -2.659201    0.492960    0.592247
     14          1           0       -1.926438   -0.621824    0.894232
 ---------------------------------------------------------------------

 SCF Done:  E(RB2PLYPD3) =  -157.506304411     A.U. after   12 cycles
 E2(B2PLYPD3) =    -0.2532679114D+00 E(B2PLYPD3) =    -0.15775957232240D+03

 The electronic state is 1-A.
 Alpha  occ. eigenvalues --  -10.61710 -10.61496 -10.60774 -10.59783  -0.96408
 Alpha  occ. eigenvalues --   -0.87480  -0.78867  -0.68736  -0.58386  -0.51385
 Alpha  occ. eigenvalues --   -0.49223  -0.45775  -0.43670  -0.40282  -0.38197
 Alpha  occ. eigenvalues --   -0.36633  -0.33589
 Alpha virt. eigenvalues --    0.03156   0.05122   0.06449   0.07986   0.10098
 Alpha virt. eigenvalues --    0.10665   0.11361   0.12881   0.14263   0.14953
 Alpha virt. eigenvalues --    0.15523   0.16305   0.18774   0.19174   0.21723

 Mulliken charges:
               1
     1  C   -0.677831
     2  C   -0.006601
     3  H    0.045206
     4  H    0.041067
     5  H    0.523539
     6  C   -0.214049
     7  H    0.037026
     8  H    0.053891
     9  C   -0.231938
    10  H    0.060490
    11  H    0.201312
    12  H   -0.028768
    13  H    0.041782
    14  H    0.154874
 Sum of Mulliken charges =   0.00000

 Dipole moment (field-independent basis, Debye):
    X=              0.5188    Y=              0.3713    Z=             -0.0467  Tot=              0.6396
 Quadrupole moment (field-independent basis, Debye-Ang):
   XX=            -31.3515   YY=            -29.9458   ZZ=            -27.5207
   XY=             -0.8640   XZ=             -2.8401   YZ=             -0.0223

 Normal termination of Gaussian 09 at Wed Aug 26 09:41:10 2020.
