 Gaussian 09, Revision D.01,
 Gaussian 09:  ES64L-G09RevD.01 24-Apr-2013

 --------------------
 #p B2PLYPD3/Def2QZVP
 --------------------

 ----------
 butane_opt
 ----------
 Symbolic Z-matrix:
 Charge =  0 Multiplicity = 1

                         Standard orientation:
 ---------------------------------------------------------------------
 Center     Atomic      Atomic             Coordinates (Angstroms)
 Number     Number       Type             X           Y           Z
 ---------------------------------------------------------------------
      1          6           0       -1.959798    0.123708   -0.037998
      2          6           0       -0.568429   -0.564371    0.078987
      3          1           0       -2.608747   -0.477582   -0.079167
      4          1           0       -2.041774    0.849237   -0.949782
      5          1           0       -2.258726    0.569327    0.629390
      6          6           0        0.573065    0.533401    0.114994
      7          1           0       -0.326294   -1.209249   -0.894490
      8          1           0       -0.493999   -1.098221    0.875382
      9          6           0        1.966800   -0.113183   -0.081668
     10          1           0        0.494342    1.254055    1.025619
     11          1           0        0.466815    1.070154   -0.629014
     12          1           0        2.396636   -0.868837    0.889924
     13          1           0        2.712889    0.691778   -0.401510
     14          1           0        1.589030   -0.657991   -0.912248
 ---------------------------------------------------------------------

 SCF Done:  E(RB2PLYPD3) =  -157.944445533     A.U. after   11 cycles
 E2(B2PLYPD3) =    -0.2469973284D+00 E(B2PLYPD3) =    -0.15819144286149D+03

 The electronic state is 1-A.
 Alpha  occ. eigenvalues --  -10.62025 -10.60762 -10.59445 -10.55692  -0.91648
 Alpha  occ. eigenvalues --   -0.85610  -0.74518  -0.67950  -0.54535  -0.50723
 Alpha  occ. eigenvalues --   -0.49825  -0.47585  -0.42422  -0.41214  -0.39389
 Alpha  occ. eigenvalues --   -0.37568  -0.37139
 Alpha virt. eigenvalues --    0.05597   0.06783   0.08208   0.09164   0.10804
 Alpha virt. eigenvalues --    0.11872   0.12798   0.14284   0.15061   0.15315
 Alpha virt. eigenvalues --    0.16264   0.16634   0.19032   0.19733   0.21953

 Mulliken charges:
               1
     1  C   -0.211907
     2  C   -0.031078
     3  H    0.068974
     4  H    0.019012
     5  H    0.088472
     6  C   -0.086967
     7  H    0.011076
     8  H    0.067212
     9  C   -0.177240
    10  H    0.010642
    11  H    0.099603
    12  H    0.028721
    13  H    0.048117
    14  H    0.065362
 Sum of Mulliken charges =   0.00000

 Dipole moment (field-independent basis, Debye):
    X=             -0.5095    Y=              0.1202    Z=              0.0422  Tot=              0.5252
 Quadrupole moment (field-independent basis, Debye-Ang):
   XX=            -29.2849   YY=            -28.7332   ZZ=            -28.0396
   XY=              0.7034   XZ=             -0.6927   YZ=             -0.7170

 Normal termination of Gaussian 09 at Wed Aug 26 23:40:08 2020.
