 Gaussian 09, Revision D.01,
 Gaussian 09:  ES64L-G09RevD.01 24-Apr-2013

 --------------------
 #p B2PLYPD3/Def2QZVP
 --------------------

 ----------
 butane_opt
 ----------
 Symbolic Z-matrix:
 Charge =  0 Multiplicity = 1

                         Standard orientation:
 ---------------------------------------------------------------------
 Center     Atomic      Atomic             Coordinates (Angstroms)
 Number     Number       Type             X           Y           Z
 ---------------------------------------------------------------------
      1          6           0        1.893768    0.055409   -0.241525
      2          6           0        0.609335   -0.382457    0.336102
      3          1           0        2.705152   -0.986420   -0.674866
      4          1           0        2.479763    1.290626    0.567381
      5          1           0        1.614172    0.179293   -0.879089
      6          6           0       -0.570689    0.540955    0.050437
      7          1           0        0.661344   -1.218876    1.613640
      8          1           0        0.242669   -0.747048   -0.230050
      9          6           0       -1.960555   -0.217838   -0.100522
     10          1           0       -0.033030    0.936692   -0.690500
     11          1           0       -0.683720    1.448850    0.842438
     12          1           0       -1.929556   -1.055561   -0.889215
     13          1           0       -2.836595    0.547217   -0.407346
     14          1           0       -2.051356   -0.371190    0.480654
 ---------------------------------------------------------------------

 SCF Done:  E(RB2PLYPD3) =  -157.093863235     A.U. after   12 cycles
 E2(B2PLYPD3) =    -0.2553392904D+00 E(B2PLYPD3) =    -0.15734920252529D+03

 The electronic state is 1-A.
 Alpha  occ. eigenvalues --  -10.63777 -10.62963 -10.61197 -10.60438  -0.99783
 Alpha  occ. eigenvalues --   -0.90261  -0.80647  -0.69194  -0.56699  -0.53842
 Alpha  occ. eigenvalues --   -0.49924  -0.46138  -0.43619  -0.40623  -0.40260
 Alpha  occ. eigenvalues --   -0.35696  -0.33770
 Alpha virt. eigenvalues --    0.02502   0.05790   0.06471   0.07543   0.08567
 Alpha virt. eigenvalues --    0.10558   0.12044   0.12780   0.14323   0.15231
 Alpha virt. eigenvalues --    0.15883   0.16536   0.17711   0.18745   0.19714

 Mulliken charges:
               1
     1  C   -0.634471
     2  C   -0.406049
     3  H    0.052175
     4  H    0.029317
     5  H    0.513556
     6  C   -0.044467
     7  H   -0.011873
     8  H    0.430282
     9  C   -0.742702
    10  H    0.071830
    11  H    0.013653
    12  H    0.074278
    13  H    0.073214
    14  H    0.581259
 Sum of Mulliken charges =   0.00000

 Dipole moment (field-independent basis, Debye):
    X=             -0.8555    Y=             -0.0304    Z=             -0.9724  Tot=              1.2955
 Quadrupole moment (field-independent basis, Debye-Ang):
   XX=            -30.3053   YY=            -29.5085   ZZ=            -28.9102
   XY=             -0.0369   XZ=             -0.8642   YZ=              1.2758

 Normal termination of Gaussian 09 at Wed Aug 26 09:41:52 2020.
