 Gaussian 09, Revision D.01,
 Gaussian 09:  ES64L-G09RevD.01 24-Apr-2013

 --------------------
 #p B2PLYPD3/Def2QZVP
 --------------------

 ----------
 butane_opt
 ----------
 Symbolic Z-matrix:
 Charge =  0 Multiplicity = 1

                         Standard orientation:
 ---------------------------------------------------------------------
 Center     Atomic      Atomic             Coordinates (Angstroms)
 Number     Number       Type             X           Y           Z
 ---------------------------------------------------------------------
      1          6           0       -1.926143    0.103424   -0.163563
      2          6           0       -0.695907   -0.459187    0.347362
      3          1           0       -2.783600   -0.785511   -0.614393
      4          1           0       -1.687822    0.523349   -1.118730
      5          1           0       -2.669063    0.797914    0.515399
      6          6           0        0.560135    0.568965    0.090264
      7          1           0       -0.508944   -0.987176   -0.385565
      8          1           0       -0.557648   -0.984207    1.315550
      9          6           0        2.034522   -0.151473   -0.151981
     10          1           0        0.728040    1.375593    0.901028
     11          1           0        0.260954    0.950452   -0.656647
     12          1           0        2.683853   -0.648732    0.642986
     13          1           0        2.858912    0.596109   -0.326775
     14          1           0        1.839675   -1.208161   -1.005348
 ---------------------------------------------------------------------

 SCF Done:  E(RB2PLYPD3) =  -157.943341220     A.U. after   11 cycles
 E2(B2PLYPD3) =    -0.2511388190D+00 E(B2PLYPD3) =    -0.15819448003921D+03

 The electronic state is 1-A.
 Alpha  occ. eigenvalues --  -10.64653 -10.63392 -10.61315 -10.59637  -0.92518
 Alpha  occ. eigenvalues --   -0.81974  -0.72252  -0.68433  -0.55317  -0.48838
 Alpha  occ. eigenvalues --   -0.47233  -0.46240  -0.43612  -0.41136  -0.40145
 Alpha  occ. eigenvalues --   -0.35953  -0.33945
 Alpha virt. eigenvalues --    0.05044   0.05855   0.08343   0.08837   0.10227
 Alpha virt. eigenvalues --    0.10614   0.12024   0.12634   0.13978   0.15173
 Alpha virt. eigenvalues --    0.15886   0.16518   0.18247   0.19216   0.20616

 Mulliken charges:
               1
     1  C   -0.154082
     2  C   -0.132333
     3  H    0.009544
     4  H    0.061647
     5  H    0.042876
     6  C   -0.108058
     7  H    0.135421
     8  H    0.052015
     9  C   -0.168291
    10  H    0.020957
    11  H    0.132414
    12  H    0.041350
    13  H    0.054643
    14  H    0.011900
 Sum of Mulliken charges =   0.00000

 Dipole moment (field-independent basis, Debye):
    X=              0.2072    Y=              0.1680    Z=              0.0123  Tot=              0.2671
 Quadrupole moment (field-independent basis, Debye-Ang):
   XX=            -29.6322   YY=            -29.5816   ZZ=            -29.1388
   XY=              0.2676   XZ=              1.2708   YZ=              0.1146

 Normal termination of Gaussian 09 at Wed Aug 26 14:02:31 2020.
