 Gaussian 09, Revision D.01,
 Gaussian 09:  ES64L-G09RevD.01 24-Apr-2013

 --------------------
 #p B2PLYPD3/Def2QZVP
 --------------------

 ----------
 butane_opt
 ----------
 Symbolic Z-matrix:
 Charge =  0 Multiplicity = 1

                         Standard orientation:
 ---------------------------------------------------------------------
 Center     Atomic      Atomic             Coordinates (Angstroms)
 Number     Number       Type             X           Y           Z
 ---------------------------------------------------------------------
      1          6           0        2.009421   -0.115235    0.044254
      2          6           0        0.559930    0.536414   -0.080443
      3          1           0        2.795189    0.712137   -0.107549
      4          1           0        1.914654   -0.336117   -0.453814
      5          1           0        2.138244   -0.871367    1.128202
      6          6           0       -0.522876   -0.611999   -0.037122
      7          1           0        0.446487    1.286456   -1.204220
      8          1           0        0.567967    0.866558    0.541541
      9          6           0       -2.040943    0.100649    0.051387
     10          1           0       -0.430603   -1.121464    0.715086
     11          1           0       -0.545189   -1.307170   -0.914120
     12          1           0       -2.273326    1.383463    1.248674
     13          1           0       -2.526965   -0.361779   -0.348780
     14          1           0       -2.119645    0.290308   -0.473472
 ---------------------------------------------------------------------

 SCF Done:  E(RB2PLYPD3) =  -156.268695208     A.U. after   12 cycles
 E2(B2PLYPD3) =    -0.2544945310D+00 E(B2PLYPD3) =    -0.15652318973861D+03

 The electronic state is 1-A.
 Alpha  occ. eigenvalues --  -10.61146 -10.60443 -10.60090 -10.59931  -1.01937
 Alpha  occ. eigenvalues --   -0.94252  -0.82399  -0.74530  -0.55215  -0.50132
 Alpha  occ. eigenvalues --   -0.48104  -0.47019  -0.43588  -0.42479  -0.37941
 Alpha  occ. eigenvalues --   -0.37091  -0.34644
 Alpha virt. eigenvalues --    0.00304   0.05699   0.06517   0.07700   0.09930
 Alpha virt. eigenvalues --    0.10542   0.12038   0.13056   0.14479   0.15795
 Alpha virt. eigenvalues --    0.16326   0.17062   0.18272   0.19395   0.21200

 Mulliken charges:
               1
     1  C   -0.898586
     2  C   -0.499988
     3  H    0.092533
     4  H    0.697391
     5  H    0.055625
     6  C    0.002954
     7  H    0.026470
     8  H    0.486903
     9  C   -0.967370
    10  H    0.099559
    11  H    0.016784
    12  H    0.037281
    13  H    0.148817
    14  H    0.701628
 Sum of Mulliken charges =   0.00000

 Dipole moment (field-independent basis, Debye):
    X=              0.0162    Y=             -0.1659    Z=             -0.5821  Tot=              0.6055
 Quadrupole moment (field-independent basis, Debye-Ang):
   XX=            -30.2309   YY=            -28.0273   ZZ=            -26.7304
   XY=              0.4949   XZ=              2.2500   YZ=              0.4996

 Normal termination of Gaussian 09 at Wed Aug 26 15:20:14 2020.
