 Gaussian 09, Revision D.01,
 Gaussian 09:  ES64L-G09RevD.01 24-Apr-2013

 --------------------
 #p B2PLYPD3/Def2QZVP
 --------------------

 ----------
 butane_opt
 ----------
 Symbolic Z-matrix:
 Charge =  0 Multiplicity = 1

                         Standard orientation:
 ---------------------------------------------------------------------
 Center     Atomic      Atomic             Coordinates (Angstroms)
 Number     Number       Type             X           Y           Z
 ---------------------------------------------------------------------
      1          6           0        1.961373    0.085303   -0.194425
      2          6           0        0.665574   -0.470755    0.299175
      3          1           0        2.775718   -0.660905   -0.777893
      4          1           0        2.297283    0.944226    0.778341
      5          1           0        1.615461    0.494752   -1.079053
      6          6           0       -0.584500    0.525506    0.036625
      7          1           0        0.639767   -1.303797    1.554070
      8          1           0        0.297144   -0.778621   -0.234620
      9          6           0       -2.015500   -0.215091   -0.105781
     10          1           0       -0.404420    0.880497   -0.777547
     11          1           0       -0.496544    1.724245    0.943316
     12          1           0       -1.985697   -1.171913   -0.977865
     13          1           0       -2.757260    0.611912   -0.180899
     14          1           0       -2.143135   -0.290173    0.538587
 ---------------------------------------------------------------------

 SCF Done:  E(RB2PLYPD3) =  -157.357554460     A.U. after   12 cycles
 E2(B2PLYPD3) =    -0.2554515398D+00 E(B2PLYPD3) =    -0.15761300599944D+03

 The electronic state is 1-A.
 Alpha  occ. eigenvalues --  -10.64275 -10.64030 -10.61226 -10.60244  -0.95825
 Alpha  occ. eigenvalues --   -0.88458  -0.76602  -0.69937  -0.53975  -0.51087
 Alpha  occ. eigenvalues --   -0.48125  -0.46278  -0.43156  -0.40714  -0.39310
 Alpha  occ. eigenvalues --   -0.36118  -0.33003
 Alpha virt. eigenvalues --    0.04034   0.05659   0.06250   0.06834   0.09985
 Alpha virt. eigenvalues --    0.10435   0.11366   0.13105   0.13615   0.14553
 Alpha virt. eigenvalues --    0.15435   0.15807   0.17988   0.18111   0.20359

 Mulliken charges:
               1
     1  C   -0.150465
     2  C   -0.536337
     3  H    0.050435
     4  H    0.058715
     5  H    0.062513
     6  C   -0.107356
     7  H    0.006570
     8  H    0.511136
     9  C   -0.680758
    10  H    0.147620
    11  H   -0.030942
    12  H    0.079206
    13  H    0.079452
    14  H    0.510209
 Sum of Mulliken charges =   0.00000

 Dipole moment (field-independent basis, Debye):
    X=             -0.5108    Y=             -0.3056    Z=             -1.0469  Tot=              1.2043
 Quadrupole moment (field-independent basis, Debye-Ang):
   XX=            -29.7543   YY=            -30.4754   ZZ=            -28.3160
   XY=              0.0778   XZ=             -0.7916   YZ=              0.8350

 Normal termination of Gaussian 09 at Wed Aug 26 23:03:28 2020.
