 Gaussian 09, Revision D.01,
 Gaussian 09:  ES64L-G09RevD.01 24-Apr-2013

 --------------------
 #p B2PLYPD3/Def2QZVP
 --------------------

 ----------
 butane_opt
 ----------
 Symbolic Z-matrix:
 Charge =  0 Multiplicity = 1

                         Standard orientation:
 ---------------------------------------------------------------------
 Center     Atomic      Atomic             Coordinates (Angstroms)
 Number     Number       Type             X           Y           Z
 ---------------------------------------------------------------------
      1          6           0        1.862578   -0.127981   -0.148923
      2          6           0        0.513558    0.584213    0.213685
      3          1           0        2.663984    0.516573   -0.852534
      4          1           0        1.781844   -0.614277   -0.845039
      5          1           0        2.904448   -1.160907    1.012201
      6          6           0       -0.580610   -0.420687    0.143602
      7          1           0        0.386814    1.084443   -0.571312
      8          1           0        0.240136    1.410640    1.164290
      9          6           0       -1.865806    0.055772   -0.062941
     10          1           0       -0.600876   -0.918997    1.115400
     11          1           0       -0.414826   -1.245361   -0.862385
     12          1           0       -2.125131    0.494183    0.482303
     13          1           0       -2.690206   -0.937509   -0.314690
     14          1           0       -1.724510    0.823314   -1.200768
 ---------------------------------------------------------------------

 SCF Done:  E(RB2PLYPD3) =  -157.629942197     A.U. after   12 cycles
 E2(B2PLYPD3) =    -0.2566042477D+00 E(B2PLYPD3) =    -0.15788654644463D+03

 The electronic state is 1-A.
 Alpha  occ. eigenvalues --  -10.65727 -10.63418 -10.62335 -10.61237  -0.95867
 Alpha  occ. eigenvalues --   -0.87382  -0.76360  -0.68754  -0.57656  -0.51028
 Alpha  occ. eigenvalues --   -0.50019  -0.46126  -0.43645  -0.39719  -0.37304
 Alpha  occ. eigenvalues --   -0.35785  -0.33024
 Alpha virt. eigenvalues --   -0.00162   0.04025   0.06039   0.06948   0.08524
 Alpha virt. eigenvalues --    0.09916   0.11087   0.12236   0.14020   0.14891
 Alpha virt. eigenvalues --    0.15749   0.16582   0.17868   0.19288   0.20009

 Mulliken charges:
               1
     1  C   -0.263524
     2  C   -0.090903
     3  H    0.026486
     4  H    0.206370
     5  H   -0.030809
     6  C    0.020661
     7  H    0.117519
     8  H    0.029881
     9  C   -0.428865
    10  H    0.051496
    11  H    0.010487
    12  H    0.299144
    13  H    0.055711
    14  H   -0.003654
 Sum of Mulliken charges =   0.00000

 Dipole moment (field-independent basis, Debye):
    X=             -0.9291    Y=              0.4708    Z=             -0.4515  Tot=              1.1352
 Quadrupole moment (field-independent basis, Debye-Ang):
   XX=            -33.5039   YY=            -30.3335   ZZ=            -28.6562
   XY=              0.8931   XZ=             -3.4961   YZ=              0.6670

 Normal termination of Gaussian 09 at Wed Aug 26 18:36:00 2020.
