 Gaussian 09, Revision D.01,
 Gaussian 09:  ES64L-G09RevD.01 24-Apr-2013

 --------------------
 #p B2PLYPD3/Def2QZVP
 --------------------

 ----------
 butane_opt
 ----------
 Symbolic Z-matrix:
 Charge =  0 Multiplicity = 1

                         Standard orientation:
 ---------------------------------------------------------------------
 Center     Atomic      Atomic             Coordinates (Angstroms)
 Number     Number       Type             X           Y           Z
 ---------------------------------------------------------------------
      1          6           0       -1.886943   -0.052645    0.088848
      2          6           0       -0.546080    0.406104   -0.054834
      3          1           0       -2.908072    0.954773   -0.191762
      4          1           0       -1.846386   -1.079011    1.212070
      5          1           0       -1.891901   -0.442903   -0.583843
      6          6           0        0.500498   -0.537500   -0.018240
      7          1           0       -0.426097    0.815848    0.606774
      8          1           0       -0.506514    1.422880   -1.338115
      9          6           0        1.888559    0.130263    0.042350
     10          1           0        0.240708   -1.290412   -1.013877
     11          1           0        0.291327   -1.079918    0.844547
     12          1           0        2.012979    0.137601   -0.569134
     13          1           0        2.702088   -0.550146   -0.711342
     14          1           0        2.595665    1.433960    1.395943
 ---------------------------------------------------------------------

 SCF Done:  E(RB2PLYPD3) =  -156.979725938     A.U. after   14 cycles
 E2(B2PLYPD3) =    -0.2676116037D+00 E(B2PLYPD3) =    -0.15724733754135D+03

 The electronic state is 1-A.
 Alpha  occ. eigenvalues --  -10.64918 -10.63987 -10.63319 -10.60838  -0.99337
 Alpha  occ. eigenvalues --   -0.93449  -0.80996  -0.70885  -0.55196  -0.52723
 Alpha  occ. eigenvalues --   -0.47305  -0.43538  -0.42055  -0.39184  -0.36391
 Alpha  occ. eigenvalues --   -0.33122  -0.32179
 Alpha virt. eigenvalues --   -0.05820   0.01697   0.02832   0.03653   0.08253
 Alpha virt. eigenvalues --    0.09931   0.11270   0.11902   0.13241   0.14682
 Alpha virt. eigenvalues --    0.15357   0.16427   0.17145   0.18669   0.19723

 Mulliken charges:
               1
     1  C   -0.401567
     2  C   -0.279067
     3  H    0.053312
     4  H    0.012782
     5  H    0.320308
     6  C   -0.022161
     7  H    0.315838
     8  H   -0.050937
     9  C   -0.839155
    10  H    0.014038
    11  H    0.069536
    12  H    0.696129
    13  H    0.044969
    14  H    0.065976
 Sum of Mulliken charges =   0.00000

 Dipole moment (field-independent basis, Debye):
    X=              0.1339    Y=             -0.1621    Z=             -0.3751  Tot=              0.4300
 Quadrupole moment (field-independent basis, Debye-Ang):
   XX=            -31.8268   YY=            -30.8801   ZZ=            -28.3834
   XY=              1.1024   XZ=             -0.2636   YZ=              1.6197

 Normal termination of Gaussian 09 at Wed Aug 26 13:36:54 2020.
