 Gaussian 09, Revision D.01,
 Gaussian 09:  ES64L-G09RevD.01 24-Apr-2013

 --------------------
 #p B2PLYPD3/Def2QZVP
 --------------------

 ----------
 butane_opt
 ----------
 Symbolic Z-matrix:
 Charge =  0 Multiplicity = 1

                         Standard orientation:
 ---------------------------------------------------------------------
 Center     Atomic      Atomic             Coordinates (Angstroms)
 Number     Number       Type             X           Y           Z
 ---------------------------------------------------------------------
      1          6           0        1.983110   -0.225588   -0.103580
      2          6           0        0.533664    0.622240    0.171725
      3          1           0        2.673721    0.463938   -0.792108
      4          1           0        1.771065   -0.496275   -0.682091
      5          1           0        2.259288   -0.857371    0.750338
      6          6           0       -0.622552   -0.466839    0.146349
      7          1           0        0.308944    0.873941   -0.580960
      8          1           0        0.343269    1.567326    1.033706
      9          6           0       -1.825238    0.039634   -0.195942
     10          1           0       -0.563097   -1.104865    1.187007
     11          1           0       -0.360808   -0.887187   -0.585097
     12          1           0       -2.044807    0.804078    0.682557
     13          1           0       -2.722701   -0.740421   -0.083520
     14          1           0       -2.078782    0.560152   -1.041147
 ---------------------------------------------------------------------

 SCF Done:  E(RB2PLYPD3) =  -157.605448416     A.U. after   11 cycles
 E2(B2PLYPD3) =    -0.2501542739D+00 E(B2PLYPD3) =    -0.15785560269023D+03

 The electronic state is 1-A.
 Alpha  occ. eigenvalues --  -10.60394 -10.60066 -10.58733 -10.58721  -0.95725
 Alpha  occ. eigenvalues --   -0.88035  -0.76938  -0.68619  -0.56925  -0.53794
 Alpha  occ. eigenvalues --   -0.49016  -0.47619  -0.44056  -0.41327  -0.38634
 Alpha  occ. eigenvalues --   -0.37112  -0.33744
 Alpha virt. eigenvalues --    0.05335   0.06524   0.08110   0.08560   0.11210
 Alpha virt. eigenvalues --    0.11484   0.12194   0.12664   0.14450   0.15748
 Alpha virt. eigenvalues --    0.16487   0.17094   0.18352   0.19025   0.21472

 Mulliken charges:
               1
     1  C   -0.730720
     2  C   -0.285669
     3  H    0.053180
     4  H    0.561568
     5  H    0.103581
     6  C   -0.143289
     7  H    0.273276
     8  H    0.030678
     9  C   -0.152810
    10  H    0.033599
    11  H    0.146967
    12  H    0.020622
    13  H    0.035902
    14  H    0.053114
 Sum of Mulliken charges =   0.00000

 Dipole moment (field-independent basis, Debye):
    X=             -0.1558    Y=             -0.3636    Z=             -0.7408  Tot=              0.8398
 Quadrupole moment (field-independent basis, Debye-Ang):
   XX=            -30.5265   YY=            -29.2843   ZZ=            -27.0841
   XY=             -0.7709   XZ=             -0.0285   YZ=             -0.6099

 Normal termination of Gaussian 09 at Wed Aug 26 14:04:34 2020.
