 Gaussian 09, Revision D.01,
 Gaussian 09:  ES64L-G09RevD.01 24-Apr-2013

 --------------------
 #p B2PLYPD3/Def2QZVP
 --------------------

 ----------
 butane_opt
 ----------
 Symbolic Z-matrix:
 Charge =  0 Multiplicity = 1

                         Standard orientation:
 ---------------------------------------------------------------------
 Center     Atomic      Atomic             Coordinates (Angstroms)
 Number     Number       Type             X           Y           Z
 ---------------------------------------------------------------------
      1          6           0       -1.908924    0.181456   -0.147299
      2          6           0       -0.495642   -0.541146    0.148791
      3          1           0       -2.684218   -0.834658   -0.657025
      4          1           0       -1.941512    0.310706   -0.778176
      5          1           0       -2.482015    1.383833    0.990450
      6          6           0        0.639635    0.439204    0.033025
      7          1           0       -0.205248   -0.832547   -0.394307
      8          1           0       -0.668943   -1.358402    1.253710
      9          6           0        1.889203   -0.110699   -0.037066
     10          1           0        0.451646    1.090601    0.815574
     11          1           0        0.298868    0.932497   -0.810618
     12          1           0        1.736432   -0.575061    0.751136
     13          1           0        2.842011    0.909118   -0.252649
     14          1           0        1.907345   -0.838986   -0.902799
 ---------------------------------------------------------------------

 SCF Done:  E(RB2PLYPD3) =  -157.195916672     A.U. after   13 cycles
 E2(B2PLYPD3) =    -0.2572303369D+00 E(B2PLYPD3) =    -0.15745314700842D+03

 The electronic state is 1-A.
 Alpha  occ. eigenvalues --  -10.65021 -10.61040 -10.60736 -10.58701  -0.99306
 Alpha  occ. eigenvalues --   -0.89015  -0.80828  -0.69652  -0.58488  -0.53519
 Alpha  occ. eigenvalues --   -0.48009  -0.44813  -0.42822  -0.39189  -0.38294
 Alpha  occ. eigenvalues --   -0.36662  -0.34042
 Alpha virt. eigenvalues --   -0.00348   0.04748   0.06096   0.07144   0.09095
 Alpha virt. eigenvalues --    0.10094   0.11554   0.12483   0.14358   0.15469
 Alpha virt. eigenvalues --    0.15798   0.15866   0.18362   0.18920   0.19442

 Mulliken charges:
               1
     1  C   -0.718918
     2  C   -0.658079
     3  H    0.013354
     4  H    0.606318
     5  H    0.046741
     6  C   -0.016313
     7  H    0.617575
     8  H    0.029449
     9  C   -0.201832
    10  H    0.050700
    11  H    0.037892
    12  H    0.112465
    13  H    0.039770
    14  H    0.040878
 Sum of Mulliken charges =   0.00000

 Dipole moment (field-independent basis, Debye):
    X=              0.2989    Y=              0.2130    Z=             -0.6247  Tot=              0.7245
 Quadrupole moment (field-independent basis, Debye-Ang):
   XX=            -32.9379   YY=            -29.2542   ZZ=            -27.8322
   XY=             -0.2718   XZ=              0.3061   YZ=              0.7763

 Normal termination of Gaussian 09 at Wed Aug 26 11:59:02 2020.
