 Gaussian 09, Revision D.01,
 Gaussian 09:  ES64L-G09RevD.01 24-Apr-2013

 --------------------
 #p B2PLYPD3/Def2QZVP
 --------------------

 ----------
 butane_opt
 ----------
 Symbolic Z-matrix:
 Charge =  0 Multiplicity = 1

                         Standard orientation:
 ---------------------------------------------------------------------
 Center     Atomic      Atomic             Coordinates (Angstroms)
 Number     Number       Type             X           Y           Z
 ---------------------------------------------------------------------
      1          6           0        1.933724   -0.063741   -0.065997
      2          6           0        0.623309    0.490026    0.090720
      3          1           0        2.610778    0.558917   -0.731482
      4          1           0        1.923454   -0.450638   -0.879230
      5          1           0        2.319463   -0.897139    0.877464
      6          6           0       -0.481913   -0.644430    0.056427
      7          1           0        0.517457    0.842834   -0.469094
      8          1           0        0.637401    1.592650    1.255507
      9          6           0       -2.013957    0.169519   -0.053504
     10          1           0       -0.314570   -1.155822    0.876746
     11          1           0       -0.496340   -1.041595   -0.676368
     12          1           0       -2.437401    0.462461    0.645976
     13          1           0       -2.839390   -0.444835   -0.051375
     14          1           0       -2.287830    0.824921   -1.014022
 ---------------------------------------------------------------------

 SCF Done:  E(RB2PLYPD3) =  -157.488140132     A.U. after   12 cycles
 E2(B2PLYPD3) =    -0.2507585319D+00 E(B2PLYPD3) =    -0.15773889866357D+03

 The electronic state is 1-A.
 Alpha  occ. eigenvalues --  -10.60663 -10.60337 -10.59656 -10.58450  -0.96055
 Alpha  occ. eigenvalues --   -0.86179  -0.79506  -0.74423  -0.58959  -0.52341
 Alpha  occ. eigenvalues --   -0.47885  -0.46336  -0.44014  -0.41447  -0.39315
 Alpha  occ. eigenvalues --   -0.36523  -0.32859
 Alpha virt. eigenvalues --    0.03954   0.06382   0.06469   0.08763   0.10459
 Alpha virt. eigenvalues --    0.11308   0.11960   0.13807   0.14116   0.15801
 Alpha virt. eigenvalues --    0.16252   0.17396   0.18480   0.18618   0.21191

 Mulliken charges:
               1
     1  C   -0.156364
     2  C   -0.607868
     3  H    0.033380
     4  H    0.113052
     5  H    0.046487
     6  C   -0.169227
     7  H    0.559368
     8  H   -0.033603
     9  C   -0.206970
    10  H    0.073185
    11  H    0.188759
    12  H    0.107936
    13  H    0.023427
    14  H    0.028439
 Sum of Mulliken charges =   0.00000

 Dipole moment (field-independent basis, Debye):
    X=             -0.0932    Y=             -0.8800    Z=             -1.0212  Tot=              1.3513
 Quadrupole moment (field-independent basis, Debye-Ang):
   XX=            -28.3029   YY=            -29.9562   ZZ=            -27.3463
   XY=             -0.6432   XZ=             -1.9763   YZ=             -1.6166

 Normal termination of Gaussian 09 at Wed Aug 26 21:35:25 2020.
