 Gaussian 09, Revision D.01,
 Gaussian 09:  ES64L-G09RevD.01 24-Apr-2013

 --------------------
 #p B2PLYPD3/Def2QZVP
 --------------------

 ----------
 butane_opt
 ----------
 Symbolic Z-matrix:
 Charge =  0 Multiplicity = 1

                         Standard orientation:
 ---------------------------------------------------------------------
 Center     Atomic      Atomic             Coordinates (Angstroms)
 Number     Number       Type             X           Y           Z
 ---------------------------------------------------------------------
      1          6           0       -1.950057    0.094778   -0.173651
      2          6           0       -0.503782   -0.574670    0.261761
      3          1           0       -2.622670   -0.564798   -0.919983
      4          1           0       -1.764846    0.750140   -1.064996
      5          1           0       -2.630229    1.029164    0.803481
      6          6           0        0.527835    0.466884    0.168494
      7          1           0       -0.715846   -0.972120   -0.422453
      8          1           0       -0.453527   -1.536559    1.324924
      9          6           0        1.934738   -0.062659   -0.208195
     10          1           0        0.583096    1.468163    1.275512
     11          1           0        0.219521    1.018479   -0.467538
     12          1           0        2.357326   -0.694611    0.603184
     13          1           0        2.806023    0.675220   -0.338451
     14          1           0        2.168745   -0.719082   -1.084136
 ---------------------------------------------------------------------

 SCF Done:  E(RB2PLYPD3) =  -157.781062584     A.U. after   11 cycles
 E2(B2PLYPD3) =    -0.2561904024D+00 E(B2PLYPD3) =    -0.15803725298617D+03

 The electronic state is 1-A.
 Alpha  occ. eigenvalues --  -10.66788 -10.63413 -10.62993 -10.61739  -0.94199
 Alpha  occ. eigenvalues --   -0.83385  -0.73433  -0.69226  -0.54562  -0.50134
 Alpha  occ. eigenvalues --   -0.47643  -0.43785  -0.41192  -0.41104  -0.38500
 Alpha  occ. eigenvalues --   -0.36296  -0.33700
 Alpha virt. eigenvalues --    0.03562   0.04530   0.06687   0.06822   0.09080
 Alpha virt. eigenvalues --    0.11204   0.11638   0.12367   0.13537   0.15006
 Alpha virt. eigenvalues --    0.15550   0.17233   0.17582   0.19464   0.20172

 Mulliken charges:
               1
     1  C   -0.190048
     2  C   -0.314055
     3  H    0.050234
     4  H    0.051638
     5  H    0.019685
     6  C   -0.072082
     7  H    0.317038
     8  H    0.033081
     9  C   -0.114924
    10  H   -0.006433
    11  H    0.124574
    12  H    0.039635
    13  H    0.029666
    14  H    0.031991
 Sum of Mulliken charges =   0.00000

 Dipole moment (field-independent basis, Debye):
    X=              0.3724    Y=             -0.2566    Z=             -1.2086  Tot=              1.2904
 Quadrupole moment (field-independent basis, Debye-Ang):
   XX=            -30.9104   YY=            -29.8985   ZZ=            -29.0621
   XY=             -0.1678   XZ=              1.4114   YZ=              0.0241

 Normal termination of Gaussian 09 at Wed Aug 26 12:15:53 2020.
