 Gaussian 09, Revision D.01,
 Gaussian 09:  ES64L-G09RevD.01 24-Apr-2013

 --------------------
 #p B2PLYPD3/Def2QZVP
 --------------------

 ----------
 butane_opt
 ----------
 Symbolic Z-matrix:
 Charge =  0 Multiplicity = 1

                         Standard orientation:
 ---------------------------------------------------------------------
 Center     Atomic      Atomic             Coordinates (Angstroms)
 Number     Number       Type             X           Y           Z
 ---------------------------------------------------------------------
      1          6           0       -2.014583    0.133128   -0.109285
      2          6           0       -0.563764   -0.524158    0.118307
      3          1           0       -2.730669   -0.610797   -0.298627
      4          1           0       -2.052574    1.171631   -1.204833
      5          1           0       -2.501357    0.378947    0.538974
      6          6           0        0.638586    0.451949    0.280227
      7          1           0       -0.351795   -0.918066   -0.618731
      8          1           0       -0.626168   -1.362697    0.962264
      9          6           0        1.993407   -0.074192   -0.250812
     10          1           0        0.530063    1.460508    1.661477
     11          1           0        0.193837    0.709159   -0.401992
     12          1           0        2.741844   -1.091326    0.713726
     13          1           0        2.835430    0.852850   -0.597565
     14          1           0        1.639514   -0.510558   -0.985309
 ---------------------------------------------------------------------

 SCF Done:  E(RB2PLYPD3) =  -157.618847388     A.U. after   12 cycles
 E2(B2PLYPD3) =    -0.2571871335D+00 E(B2PLYPD3) =    -0.15787603452166D+03

 The electronic state is 1-A.
 Alpha  occ. eigenvalues --  -10.66257 -10.63948 -10.62639 -10.62333  -0.96439
 Alpha  occ. eigenvalues --   -0.85697  -0.78191  -0.69368  -0.54077  -0.50489
 Alpha  occ. eigenvalues --   -0.49905  -0.45369  -0.43613  -0.40773  -0.37895
 Alpha  occ. eigenvalues --   -0.34650  -0.33429
 Alpha virt. eigenvalues --    0.02235   0.04141   0.04608   0.07420   0.08383
 Alpha virt. eigenvalues --    0.09939   0.11273   0.13055   0.13225   0.14775
 Alpha virt. eigenvalues --    0.15727   0.15994   0.17681   0.19065   0.19954

 Mulliken charges:
               1
     1  C   -0.211968
     2  C   -0.172857
     3  H    0.044832
     4  H    0.004130
     5  H    0.136792
     6  C   -0.234132
     7  H    0.182735
     8  H    0.023912
     9  C   -0.207332
    10  H   -0.021392
    11  H    0.252893
    12  H    0.005393
    13  H    0.064399
    14  H    0.132595
 Sum of Mulliken charges =   0.00000

 Dipole moment (field-independent basis, Debye):
    X=             -0.7989    Y=             -0.6033    Z=             -0.8148  Tot=              1.2908
 Quadrupole moment (field-independent basis, Debye-Ang):
   XX=            -29.2519   YY=            -30.8810   ZZ=            -29.7824
   XY=              1.2124   XZ=             -2.0264   YZ=             -0.6037

 Normal termination of Gaussian 09 at Wed Aug 26 09:01:50 2020.
