 Gaussian 09, Revision D.01,
 Gaussian 09:  ES64L-G09RevD.01 24-Apr-2013

 --------------------
 #p B2PLYPD3/Def2QZVP
 --------------------

 ----------
 butane_opt
 ----------
 Symbolic Z-matrix:
 Charge =  0 Multiplicity = 1

                         Standard orientation:
 ---------------------------------------------------------------------
 Center     Atomic      Atomic             Coordinates (Angstroms)
 Number     Number       Type             X           Y           Z
 ---------------------------------------------------------------------
      1          6           0        2.001345    0.177084   -0.058935
      2          6           0        0.559557   -0.616872    0.043915
      3          1           0        2.799308   -0.466445   -0.530433
      4          1           0        2.766892    0.425924    0.760126
      5          1           0        2.039731    1.170771   -0.952938
      6          6           0       -0.632754    0.414976    0.270881
      7          1           0        0.494968   -1.115764    0.756043
      8          1           0        0.288782   -1.054489   -0.817737
      9          6           0       -2.010763   -0.121114   -0.126980
     10          1           0       -0.393067    1.063701   -0.361429
     11          1           0       -0.636779    1.165396    1.340059
     12          1           0       -1.585234   -0.355372   -1.002240
     13          1           0       -2.946970    1.058055   -0.729596
     14          1           0       -2.331939   -1.016224    0.764855
 ---------------------------------------------------------------------

 SCF Done:  E(RB2PLYPD3) =  -157.833631847     A.U. after   11 cycles
 E2(B2PLYPD3) =    -0.2551046931D+00 E(B2PLYPD3) =    -0.15808873654015D+03

 The electronic state is 1-A.
 Alpha  occ. eigenvalues --  -10.65936 -10.64704 -10.61329 -10.60644  -0.92574
 Alpha  occ. eigenvalues --   -0.82564  -0.73485  -0.67667  -0.56726  -0.49437
 Alpha  occ. eigenvalues --   -0.47214  -0.45016  -0.41164  -0.39715  -0.38763
 Alpha  occ. eigenvalues --   -0.36947  -0.34085
 Alpha virt. eigenvalues --    0.01751   0.05227   0.07587   0.08034   0.09574
 Alpha virt. eigenvalues --    0.10434   0.11377   0.12384   0.13318   0.15328
 Alpha virt. eigenvalues --    0.16207   0.17120   0.17925   0.18535   0.20144

 Mulliken charges:
               1
     1  C   -0.159403
     2  C   -0.127772
     3  H    0.027305
     4  H    0.060353
     5  H    0.017352
     6  C   -0.081517
     7  H    0.137927
     8  H    0.070526
     9  C   -0.191545
    10  H    0.100166
    11  H   -0.001322
    12  H    0.079247
    13  H    0.004239
    14  H    0.064444
 Sum of Mulliken charges =   0.00000

 Dipole moment (field-independent basis, Debye):
    X=              0.8493    Y=             -0.6754    Z=             -0.2416  Tot=              1.1117
 Quadrupole moment (field-independent basis, Debye-Ang):
   XX=            -31.5026   YY=            -29.7772   ZZ=            -29.0963
   XY=              0.1894   XZ=              0.1040   YZ=             -1.3132

 Normal termination of Gaussian 09 at Wed Aug 26 12:27:49 2020.
