 Gaussian 09, Revision D.01,
 Gaussian 09:  ES64L-G09RevD.01 24-Apr-2013

 --------------------
 #p B2PLYPD3/Def2QZVP
 --------------------

 ----------
 butane_opt
 ----------
 Symbolic Z-matrix:
 Charge =  0 Multiplicity = 1

                         Standard orientation:
 ---------------------------------------------------------------------
 Center     Atomic      Atomic             Coordinates (Angstroms)
 Number     Number       Type             X           Y           Z
 ---------------------------------------------------------------------
      1          6           0        1.974233    0.088543   -0.121119
      2          6           0        0.647816   -0.431029    0.131604
      3          1           0        2.868062   -0.796220   -0.089785
      4          1           0        2.339099    0.568481    0.607602
      5          1           0        1.672007    0.655113   -1.152220
      6          6           0       -0.523058    0.606398    0.172638
      7          1           0        0.690335   -1.027087    0.909765
      8          1           0        0.563084   -1.142297   -0.709447
      9          6           0       -1.993326   -0.179419   -0.125157
     10          1           0       -0.500298    1.097731   -0.515151
     11          1           0       -0.619837    1.407558    1.149059
     12          1           0       -2.059320   -0.620341   -0.880368
     13          1           0       -2.838670    0.526602   -0.647484
     14          1           0       -2.748452   -1.176506    0.980232
 ---------------------------------------------------------------------

 SCF Done:  E(RB2PLYPD3) =  -157.806263835     A.U. after   11 cycles
 E2(B2PLYPD3) =    -0.2521346674D+00 E(B2PLYPD3) =    -0.15805839850236D+03

 The electronic state is 1-A.
 Alpha  occ. eigenvalues --  -10.64492 -10.62936 -10.61047 -10.59664  -0.92706
 Alpha  occ. eigenvalues --   -0.84553  -0.75568  -0.69694  -0.56458  -0.50123
 Alpha  occ. eigenvalues --   -0.47872  -0.47069  -0.41442  -0.38980  -0.38462
 Alpha  occ. eigenvalues --   -0.37191  -0.35316
 Alpha virt. eigenvalues --    0.02636   0.04927   0.07688   0.07974   0.09653
 Alpha virt. eigenvalues --    0.10250   0.11974   0.12328   0.13902   0.15338
 Alpha virt. eigenvalues --    0.15818   0.16412   0.18459   0.19356   0.20230

 Mulliken charges:
               1
     1  C   -0.150764
     2  C   -0.019191
     3  H    0.017542
     4  H    0.064240
     5  H    0.043712
     6  C   -0.207331
     7  H    0.044357
     8  H    0.036474
     9  C   -0.243158
    10  H    0.202209
    11  H    0.039349
    12  H    0.156284
    13  H    0.017317
    14  H   -0.001041
 Sum of Mulliken charges =   0.00000

 Dipole moment (field-independent basis, Debye):
    X=              0.5794    Y=              0.2563    Z=             -0.5201  Tot=              0.8197
 Quadrupole moment (field-independent basis, Debye-Ang):
   XX=            -31.9010   YY=            -29.4174   ZZ=            -28.3757
   XY=             -0.9830   XZ=              3.1409   YZ=             -0.0646

 Normal termination of Gaussian 09 at Wed Aug 26 09:44:11 2020.
