 Gaussian 09, Revision D.01,
 Gaussian 09:  ES64L-G09RevD.01 24-Apr-2013

 --------------------
 #p B2PLYPD3/Def2QZVP
 --------------------

 ----------
 butane_opt
 ----------
 Symbolic Z-matrix:
 Charge =  0 Multiplicity = 1

                         Standard orientation:
 ---------------------------------------------------------------------
 Center     Atomic      Atomic             Coordinates (Angstroms)
 Number     Number       Type             X           Y           Z
 ---------------------------------------------------------------------
      1          6           0        1.989232   -0.160278    0.059992
      2          6           0        0.507609    0.603340   -0.172119
      3          1           0        2.877740    0.548788   -0.089830
      4          1           0        2.171234   -0.548995   -0.531062
      5          1           0        2.470566   -0.724096    1.168150
      6          6           0       -0.584067   -0.510326    0.026161
      7          1           0        0.327825    1.204789   -1.262933
      8          1           0        0.369240    1.047964    0.444083
      9          6           0       -1.928011   -0.000936    0.053662
     10          1           0       -0.401290   -0.978739    0.889584
     11          1           0       -0.592600   -1.173113   -0.753199
     12          1           0       -2.381476    1.576787    1.353031
     13          1           0       -2.682941   -0.711453   -0.507423
     14          1           0       -2.066877    0.167265   -0.516581
 ---------------------------------------------------------------------

 SCF Done:  E(RB2PLYPD3) =  -157.094108792     A.U. after   13 cycles
 E2(B2PLYPD3) =    -0.2575117533D+00 E(B2PLYPD3) =    -0.15735162054481D+03

 The electronic state is 1-A.
 Alpha  occ. eigenvalues --  -10.63276 -10.61147 -10.60156 -10.60035  -0.97613
 Alpha  occ. eigenvalues --   -0.89001  -0.81604  -0.74031  -0.55711  -0.51599
 Alpha  occ. eigenvalues --   -0.48940  -0.46345  -0.45200  -0.40545  -0.39377
 Alpha  occ. eigenvalues --   -0.35304  -0.32386
 Alpha virt. eigenvalues --   -0.04335   0.04793   0.05623   0.07784   0.09907
 Alpha virt. eigenvalues --    0.10601   0.11776   0.12534   0.14702   0.15590
 Alpha virt. eigenvalues --    0.16079   0.16998   0.18174   0.18731   0.21130

 Mulliken charges:
               1
     1  C   -0.478142
     2  C   -0.362259
     3  H    0.034340
     4  H    0.347534
     5  H    0.051563
     6  C    0.035383
     7  H    0.035063
     8  H    0.339120
     9  C   -0.735238
    10  H    0.070845
    11  H    0.037570
    12  H   -0.035481
    13  H    0.035088
    14  H    0.624612
 Sum of Mulliken charges =   0.00000

 Dipole moment (field-independent basis, Debye):
    X=              0.5922    Y=             -0.5798    Z=             -1.3425  Tot=              1.5777
 Quadrupole moment (field-independent basis, Debye-Ang):
   XX=            -31.0749   YY=            -29.6830   ZZ=            -27.9392
   XY=              0.5624   XZ=              3.1115   YZ=              0.4185

 Normal termination of Gaussian 09 at Wed Aug 26 23:20:56 2020.
