 Gaussian 09, Revision D.01,
 Gaussian 09:  ES64L-G09RevD.01 24-Apr-2013

 --------------------
 #p B2PLYPD3/Def2QZVP
 --------------------

 ----------
 butane_opt
 ----------
 Symbolic Z-matrix:
 Charge =  0 Multiplicity = 1

                         Standard orientation:
 ---------------------------------------------------------------------
 Center     Atomic      Atomic             Coordinates (Angstroms)
 Number     Number       Type             X           Y           Z
 ---------------------------------------------------------------------
      1          6           0       -1.872055   -0.072389    0.089713
      2          6           0       -0.612789    0.434729   -0.148477
      3          1           0       -2.760477    0.912357   -0.031871
      4          1           0       -1.777693   -1.046069    1.219316
      5          1           0       -1.926016   -0.464965   -0.612509
      6          6           0        0.519270   -0.619423   -0.052413
      7          1           0       -0.380550    1.067004    0.582913
      8          1           0       -0.423093    1.386454   -1.343485
      9          6           0        1.868899    0.189685    0.048526
     10          1           0        0.513353   -1.165614   -0.690455
     11          1           0        0.265684   -1.283932    0.928545
     12          1           0        2.071637   -0.021184   -0.397381
     13          1           0        2.601970   -0.562694   -0.780428
     14          1           0        2.395234    1.583027    1.501258
 ---------------------------------------------------------------------

 SCF Done:  E(RB2PLYPD3) =  -156.630011295     A.U. after   20 cycles
 E2(B2PLYPD3) =    -0.2739830514D+00 E(B2PLYPD3) =    -0.15690399434603D+03

 The electronic state is 1-A.
 Alpha  occ. eigenvalues --  -10.67779 -10.62130 -10.61669 -10.61500  -1.01194
 Alpha  occ. eigenvalues --   -0.93692  -0.80621  -0.69360  -0.53886  -0.51381
 Alpha  occ. eigenvalues --   -0.49719  -0.42872  -0.40997  -0.37937  -0.36549
 Alpha  occ. eigenvalues --   -0.33750  -0.26181
 Alpha virt. eigenvalues --   -0.07674  -0.01310   0.02584   0.05327   0.09332
 Alpha virt. eigenvalues --    0.10179   0.11371   0.12234   0.13099   0.14399
 Alpha virt. eigenvalues --    0.15909   0.16752   0.17373   0.19112   0.19722

 Mulliken charges:
               1
     1  C   -0.334114
     2  C   -0.028201
     3  H    0.040500
     4  H    0.024803
     5  H    0.257995
     6  C   -0.148732
     7  H    0.073424
     8  H   -0.027597
     9  C   -0.970048
    10  H    0.157709
    11  H    0.030446
    12  H    0.699060
    13  H    0.116978
    14  H    0.107778
 Sum of Mulliken charges =   0.00000

 Dipole moment (field-independent basis, Debye):
    X=              0.4391    Y=             -0.1679    Z=             -0.5787  Tot=              0.7455
 Quadrupole moment (field-independent basis, Debye-Ang):
   XX=            -31.8376   YY=            -29.5602   ZZ=            -28.0050
   XY=              0.8846   XZ=             -0.9114   YZ=              2.8950

 Normal termination of Gaussian 09 at Wed Aug 26 22:22:46 2020.
