 Gaussian 09, Revision D.01,
 Gaussian 09:  ES64L-G09RevD.01 24-Apr-2013

 --------------------
 #p B2PLYPD3/Def2QZVP
 --------------------

 ----------
 butane_opt
 ----------
 Symbolic Z-matrix:
 Charge =  0 Multiplicity = 1

                         Standard orientation:
 ---------------------------------------------------------------------
 Center     Atomic      Atomic             Coordinates (Angstroms)
 Number     Number       Type             X           Y           Z
 ---------------------------------------------------------------------
      1          6           0        2.045483   -0.095813   -0.074610
      2          6           0        0.539678    0.624813    0.074424
      3          1           0        2.795791    0.431422   -0.255157
      4          1           0        1.868287   -0.951635   -1.056002
      5          1           0        2.644944   -0.928163    0.955677
      6          6           0       -0.662209   -0.508306    0.015220
      7          1           0        0.486436    1.039238   -0.693039
      8          1           0        0.314329    1.457214    1.130349
      9          6           0       -1.912577    0.065684   -0.047631
     10          1           0       -0.487900   -1.307790    0.955774
     11          1           0       -0.798803   -1.059269   -0.914776
     12          1           0       -1.874679    0.532113    0.624062
     13          1           0       -2.597817   -0.602259    0.517585
     14          1           0       -2.412843    0.870861   -1.068889
 ---------------------------------------------------------------------

 SCF Done:  E(RB2PLYPD3) =  -157.753770492     A.U. after   11 cycles
 E2(B2PLYPD3) =    -0.2541438242D+00 E(B2PLYPD3) =    -0.15800791431582D+03

 The electronic state is 1-A.
 Alpha  occ. eigenvalues --  -10.64971 -10.63766 -10.62278 -10.58602  -0.94120
 Alpha  occ. eigenvalues --   -0.84257  -0.73398  -0.68222  -0.54431  -0.49962
 Alpha  occ. eigenvalues --   -0.48172  -0.45493  -0.42178  -0.38740  -0.36630
 Alpha  occ. eigenvalues --   -0.36275  -0.35460
 Alpha virt. eigenvalues --    0.04761   0.05266   0.06558   0.07152   0.09370
 Alpha virt. eigenvalues --    0.10852   0.11995   0.13020   0.13791   0.14387
 Alpha virt. eigenvalues --    0.15718   0.15791   0.18417   0.19442   0.20761

 Mulliken charges:
               1
     1  C   -0.203702
     2  C   -0.174977
     3  H    0.105916
     4  H    0.036640
     5  H    0.004672
     6  C   -0.022342
     7  H    0.184836
     8  H    0.019132
     9  C   -0.336742
    10  H    0.035694
    11  H    0.042312
    12  H    0.220645
    13  H    0.047016
    14  H    0.040900
 Sum of Mulliken charges =   0.00000

 Dipole moment (field-independent basis, Debye):
    X=             -0.2694    Y=              0.4398    Z=             -0.1226  Tot=              0.5301
 Quadrupole moment (field-independent basis, Debye-Ang):
   XX=            -30.1979   YY=            -29.7378   ZZ=            -28.6320
   XY=              0.7045   XZ=             -1.0868   YZ=             -0.5648

 Normal termination of Gaussian 09 at Wed Aug 26 22:51:11 2020.
