 Gaussian 09, Revision D.01,
 Gaussian 09:  ES64L-G09RevD.01 24-Apr-2013

 --------------------
 #p B2PLYPD3/Def2QZVP
 --------------------

 ----------
 butane_opt
 ----------
 Symbolic Z-matrix:
 Charge =  0 Multiplicity = 1

                         Standard orientation:
 ---------------------------------------------------------------------
 Center     Atomic      Atomic             Coordinates (Angstroms)
 Number     Number       Type             X           Y           Z
 ---------------------------------------------------------------------
      1          6           0       -1.975752   -0.158168    0.083163
      2          6           0       -0.529601    0.547146   -0.140626
      3          1           0       -2.724900    0.618128    0.227183
      4          1           0       -1.881444   -0.628122    1.011553
      5          1           0       -2.245577   -0.927891   -0.841000
      6          6           0        0.590661   -0.450810   -0.014016
      7          1           0       -0.479534    1.074408    0.563665
      8          1           0       -0.405185    1.116553   -1.044723
      9          6           0        1.892494    0.098808    0.057811
     10          1           0        0.649922   -1.199665   -0.906707
     11          1           0        0.459733   -0.997216    0.901973
     12          1           0        1.837977    0.568498   -0.754603
     13          1           0        2.736047   -0.757196   -0.085459
     14          1           0        2.186154    0.910646    1.010129
 ---------------------------------------------------------------------

 SCF Done:  E(RB2PLYPD3) =  -158.001632014     A.U. after   11 cycles
 E2(B2PLYPD3) =    -0.2475335902D+00 E(B2PLYPD3) =    -0.15824916560397D+03

 The electronic state is 1-A.
 Alpha  occ. eigenvalues --  -10.61389 -10.60188 -10.59942 -10.58415  -0.93689
 Alpha  occ. eigenvalues --   -0.84287  -0.72984  -0.66789  -0.56145  -0.50053
 Alpha  occ. eigenvalues --   -0.48536  -0.47586  -0.42795  -0.41977  -0.38161
 Alpha  occ. eigenvalues --   -0.37367  -0.36770
 Alpha virt. eigenvalues --    0.05537   0.06639   0.08067   0.08507   0.10938
 Alpha virt. eigenvalues --    0.11452   0.12822   0.13723   0.14414   0.15372
 Alpha virt. eigenvalues --    0.15477   0.16418   0.19184   0.20192   0.21586

 Mulliken charges:
               1
     1  C   -0.159924
     2  C   -0.143945
     3  H    0.046440
     4  H    0.065007
     5  H    0.037810
     6  C   -0.012844
     7  H    0.126061
     8  H    0.030753
     9  C   -0.176365
    10  H    0.022065
    11  H    0.028180
    12  H    0.081760
    13  H    0.038670
    14  H    0.016333
 Sum of Mulliken charges =   0.00000

 Dipole moment (field-independent basis, Debye):
    X=             -0.1008    Y=              0.2003    Z=              0.0300  Tot=              0.2262
 Quadrupole moment (field-independent basis, Debye-Ang):
   XX=            -30.7469   YY=            -29.0252   ZZ=            -27.8677
   XY=             -0.9332   XZ=             -0.7291   YZ=              0.4715

 Normal termination of Gaussian 09 at Wed Aug 26 21:16:59 2020.
