 Gaussian 09, Revision D.01,
 Gaussian 09:  ES64L-G09RevD.01 24-Apr-2013

 --------------------
 #p B2PLYPD3/Def2QZVP
 --------------------

 ----------
 butane_opt
 ----------
 Symbolic Z-matrix:
 Charge =  0 Multiplicity = 1

                         Standard orientation:
 ---------------------------------------------------------------------
 Center     Atomic      Atomic             Coordinates (Angstroms)
 Number     Number       Type             X           Y           Z
 ---------------------------------------------------------------------
      1          6           0       -1.940834   -0.116385   -0.066083
      2          6           0       -0.544549    0.555312    0.026545
      3          1           0       -2.704712    0.582961   -0.132311
      4          1           0       -2.059843   -0.739705    0.849975
      5          1           0       -2.160527   -0.831784   -0.968289
      6          6           0        0.583950   -0.512688    0.163662
      7          1           0       -0.403782    1.369443    0.906530
      8          1           0       -0.304997    1.006256   -0.714535
      9          6           0        1.904378    0.107250   -0.126607
     10          1           0        0.441296   -1.147906   -0.615411
     11          1           0        0.554528   -1.297033    1.214703
     12          1           0        1.684946    0.510597   -1.022469
     13          1           0        2.668186   -0.682865   -0.413750
     14          1           0        2.267237    1.029105    0.910459
 ---------------------------------------------------------------------

 SCF Done:  E(RB2PLYPD3) =  -157.993405210     A.U. after   11 cycles
 E2(B2PLYPD3) =    -0.2493272973D+00 E(B2PLYPD3) =    -0.15824273250772D+03

 The electronic state is 1-A.
 Alpha  occ. eigenvalues --  -10.62580 -10.61747 -10.60757 -10.60332  -0.92349
 Alpha  occ. eigenvalues --   -0.83513  -0.72901  -0.66832  -0.53460  -0.50039
 Alpha  occ. eigenvalues --   -0.49318  -0.46060  -0.42585  -0.40321  -0.38739
 Alpha  occ. eigenvalues --   -0.37230  -0.36599
 Alpha virt. eigenvalues --    0.04835   0.06426   0.07889   0.08185   0.10443
 Alpha virt. eigenvalues --    0.11204   0.12574   0.13333   0.14483   0.14779
 Alpha virt. eigenvalues --    0.15939   0.16428   0.18891   0.20043   0.20773

 Mulliken charges:
               1
     1  C   -0.140328
     2  C   -0.117273
     3  H    0.052508
     4  H    0.056735
     5  H    0.022166
     6  C   -0.043500
     7  H    0.018391
     8  H    0.109649
     9  C   -0.177638
    10  H    0.068628
    11  H    0.001297
    12  H    0.076699
    13  H    0.050855
    14  H    0.021812
 Sum of Mulliken charges =   0.00000

 Dipole moment (field-independent basis, Debye):
    X=             -0.2580    Y=             -0.0692    Z=             -0.6996  Tot=              0.7488
 Quadrupole moment (field-independent basis, Debye-Ang):
   XX=            -30.5436   YY=            -29.2645   ZZ=            -28.4519
   XY=             -0.7870   XZ=             -0.4080   YZ=              0.4288

 Normal termination of Gaussian 09 at Wed Aug 26 16:39:08 2020.
