 Gaussian 09, Revision D.01,
 Gaussian 09:  ES64L-G09RevD.01 24-Apr-2013

 --------------------
 #p B2PLYPD3/Def2QZVP
 --------------------

 ----------
 butane_opt
 ----------
 Symbolic Z-matrix:
 Charge =  0 Multiplicity = 1

                         Standard orientation:
 ---------------------------------------------------------------------
 Center     Atomic      Atomic             Coordinates (Angstroms)
 Number     Number       Type             X           Y           Z
 ---------------------------------------------------------------------
      1          6           0        2.091955    0.118329   -0.070272
      2          6           0        0.551629   -0.587543    0.037786
      3          1           0        2.689097   -0.460990   -0.504758
      4          1           0        2.387330    1.233971    1.062898
      5          1           0        1.968816    0.423816   -0.751626
      6          6           0       -0.608261    0.474179    0.066423
      7          1           0        0.403892   -1.529388    1.000904
      8          1           0        0.231086   -0.773560   -0.436374
      9          6           0       -1.988514   -0.092284   -0.043352
     10          1           0       -0.299803    1.137007   -0.918274
     11          1           0       -0.743277    1.162107    0.874238
     12          1           0       -2.075495   -0.785499   -0.886629
     13          1           0       -2.933989    0.837373   -0.183887
     14          1           0       -1.908512   -0.720924    0.800000
 ---------------------------------------------------------------------

 SCF Done:  E(RB2PLYPD3) =  -157.283840615     A.U. after   11 cycles
 E2(B2PLYPD3) =    -0.2539809905D+00 E(B2PLYPD3) =    -0.15753782160546D+03

 The electronic state is 1-A.
 Alpha  occ. eigenvalues --  -10.62250 -10.62113 -10.61827 -10.61103  -0.95869
 Alpha  occ. eigenvalues --   -0.87765  -0.81095  -0.67067  -0.53611  -0.50814
 Alpha  occ. eigenvalues --   -0.48840  -0.46132  -0.41176  -0.40314  -0.39221
 Alpha  occ. eigenvalues --   -0.36959  -0.35444
 Alpha virt. eigenvalues --    0.02419   0.05425   0.07302   0.07969   0.09706
 Alpha virt. eigenvalues --    0.10649   0.11918   0.12879   0.14487   0.15232
 Alpha virt. eigenvalues --    0.16029   0.16291   0.18391   0.19309   0.20263

 Mulliken charges:
               1
     1  C   -0.456144
     2  C   -0.873591
     3  H    0.075296
     4  H    0.059591
     5  H    0.365935
     6  C   -0.003455
     7  H    0.021176
     8  H    0.788605
     9  C   -0.179890
    10  H   -0.010040
    11  H    0.050658
    12  H    0.038401
    13  H    0.045982
    14  H    0.077477
 Sum of Mulliken charges =   0.00000

 Dipole moment (field-independent basis, Debye):
    X=              0.0408    Y=              0.1662    Z=             -0.6786  Tot=              0.6999
 Quadrupole moment (field-independent basis, Debye-Ang):
   XX=            -29.6910   YY=            -29.2529   ZZ=            -28.1496
   XY=             -0.0552   XZ=             -1.3061   YZ=              0.8983

 Normal termination of Gaussian 09 at Wed Aug 26 22:34:06 2020.
