 Gaussian 09, Revision D.01,
 Gaussian 09:  ES64L-G09RevD.01 24-Apr-2013

 --------------------
 #p B2PLYPD3/Def2QZVP
 --------------------

 ----------
 butane_opt
 ----------
 Symbolic Z-matrix:
 Charge =  0 Multiplicity = 1

                         Standard orientation:
 ---------------------------------------------------------------------
 Center     Atomic      Atomic             Coordinates (Angstroms)
 Number     Number       Type             X           Y           Z
 ---------------------------------------------------------------------
      1          6           0       -1.993644    0.070080   -0.049001
      2          6           0       -0.600257   -0.448322    0.028429
      3          1           0       -2.685165   -0.697694   -0.088247
      4          1           0       -1.965164    0.788790   -0.908027
      5          1           0       -2.063502    0.685465    0.834537
      6          6           0        0.540049    0.566957    0.117864
      7          1           0       -0.462356   -1.217299   -0.861122
      8          1           0       -0.495873   -1.219959    0.948731
      9          6           0        2.017668   -0.166247   -0.050163
     10          1           0        0.465069    1.258991    1.020763
     11          1           0        0.368684    1.184379   -0.728533
     12          1           0        2.570964   -0.877611    0.877646
     13          1           0        2.782312    0.578122   -0.556852
     14          1           0        1.702132   -0.617988   -0.821670
 ---------------------------------------------------------------------

 SCF Done:  E(RB2PLYPD3) =  -158.040245035     A.U. after   11 cycles
 E2(B2PLYPD3) =    -0.2494027347D+00 E(B2PLYPD3) =    -0.15828964776922D+03

 The electronic state is 1-A.
 Alpha  occ. eigenvalues --  -10.62322 -10.62230 -10.62041 -10.59601  -0.90957
 Alpha  occ. eigenvalues --   -0.83216  -0.72828  -0.65182  -0.52993  -0.51480
 Alpha  occ. eigenvalues --   -0.48351  -0.46456  -0.41728  -0.41130  -0.39060
 Alpha  occ. eigenvalues --   -0.37372  -0.35682
 Alpha virt. eigenvalues --    0.05664   0.06470   0.07793   0.08536   0.10431
 Alpha virt. eigenvalues --    0.11509   0.12689   0.13200   0.14724   0.15398
 Alpha virt. eigenvalues --    0.15824   0.16310   0.18475   0.19734   0.21226

 Mulliken charges:
               1
     1  C   -0.150663
     2  C   -0.021303
     3  H    0.067986
     4  H    0.038095
     5  H    0.052056
     6  C   -0.044043
     7  H    0.001547
     8  H    0.003704
     9  C   -0.221331
    10  H    0.026960
    11  H    0.047092
    12  H    0.055735
    13  H    0.034958
    14  H    0.109207
 Sum of Mulliken charges =   0.00000

 Dipole moment (field-independent basis, Debye):
    X=             -0.2343    Y=              0.0499    Z=             -0.2296  Tot=              0.3318
 Quadrupole moment (field-independent basis, Debye-Ang):
   XX=            -29.9834   YY=            -29.2274   ZZ=            -28.6060
   XY=              0.4223   XZ=             -0.0493   YZ=             -0.3195

 Normal termination of Gaussian 09 at Wed Aug 26 13:40:26 2020.
