 Gaussian 09, Revision D.01,
 Gaussian 09:  ES64L-G09RevD.01 24-Apr-2013

 --------------------
 #p B2PLYPD3/Def2QZVP
 --------------------

 ----------
 butane_opt
 ----------
 Symbolic Z-matrix:
 Charge =  0 Multiplicity = 1

                         Standard orientation:
 ---------------------------------------------------------------------
 Center     Atomic      Atomic             Coordinates (Angstroms)
 Number     Number       Type             X           Y           Z
 ---------------------------------------------------------------------
      1          6           0       -1.981945   -0.151846   -0.059117
      2          6           0       -0.474110    0.515683   -0.056529
      3          1           0       -2.766003    0.607585    0.393794
      4          1           0       -1.967666   -0.194461    0.533003
      5          1           0       -2.542843   -1.618437   -1.171859
      6          6           0        0.605829   -0.376473    0.253460
      7          1           0       -0.447852    1.787702    0.879706
      8          1           0       -0.476014    0.784455   -0.732930
      9          6           0        1.896437    0.061109   -0.205481
     10          1           0        0.431259   -0.943587   -0.247249
     11          1           0        0.561721   -1.012161    1.544047
     12          1           0        1.734389    0.742200   -1.315101
     13          1           0        2.941463   -0.901717    0.143103
     14          1           0        2.254282    0.457580    0.379488
 ---------------------------------------------------------------------

 SCF Done:  E(RB2PLYPD3) =  -156.823638746     A.U. after   12 cycles
 E2(B2PLYPD3) =    -0.2616397066D+00 E(B2PLYPD3) =    -0.15708527845240D+03

 The electronic state is 1-A.
 Alpha  occ. eigenvalues --  -10.63974 -10.63416 -10.62616 -10.60550  -0.98821
 Alpha  occ. eigenvalues --   -0.91592  -0.82080  -0.74715  -0.56652  -0.52680
 Alpha  occ. eigenvalues --   -0.48933  -0.42810  -0.41932  -0.40817  -0.37570
 Alpha  occ. eigenvalues --   -0.35958  -0.33117
 Alpha virt. eigenvalues --   -0.03829   0.02691   0.03943   0.06129   0.08436
 Alpha virt. eigenvalues --    0.09872   0.11500   0.11952   0.13552   0.14782
 Alpha virt. eigenvalues --    0.15566   0.16195   0.17105   0.18876   0.20047

 Mulliken charges:
               1
     1  C   -0.897302
     2  C   -0.404256
     3  H    0.068307
     4  H    0.740707
     5  H    0.037480
     6  C   -0.300987
     7  H   -0.024648
     8  H    0.414754
     9  C   -0.329246
    10  H    0.379693
    11  H    0.006869
    12  H    0.058834
    13  H   -0.008047
    14  H    0.257841
 Sum of Mulliken charges =   0.00000

 Dipole moment (field-independent basis, Debye):
    X=              0.1689    Y=              0.1242    Z=              0.2280  Tot=              0.3097
 Quadrupole moment (field-independent basis, Debye-Ang):
   XX=            -31.2119   YY=            -30.2980   ZZ=            -28.6044
   XY=              1.0846   XZ=             -0.3255   YZ=              0.1710

 Normal termination of Gaussian 09 at Wed Aug 26 10:43:52 2020.
