 Gaussian 09, Revision D.01,
 Gaussian 09:  ES64L-G09RevD.01 24-Apr-2013

 --------------------
 #p B2PLYPD3/Def2QZVP
 --------------------

 ----------
 butane_opt
 ----------
 Symbolic Z-matrix:
 Charge =  0 Multiplicity = 1

                         Standard orientation:
 ---------------------------------------------------------------------
 Center     Atomic      Atomic             Coordinates (Angstroms)
 Number     Number       Type             X           Y           Z
 ---------------------------------------------------------------------
      1          6           0        2.034780   -0.131575    0.163151
      2          6           0        0.494184    0.592122   -0.213787
      3          1           0        2.505445    0.273530    0.915019
      4          1           0        2.988660   -0.813360   -0.841773
      5          1           0        1.582994   -0.788661    0.879897
      6          6           0       -0.608395   -0.460888   -0.230563
      7          1           0        0.496967    1.556707   -1.144076
      8          1           0        0.501943    1.209673    0.673540
      9          6           0       -1.959376    0.041038    0.135244
     10          1           0       -0.415123   -1.192893    0.584975
     11          1           0       -0.539137   -1.020835   -1.089874
     12          1           0       -2.080892    0.660827    1.265046
     13          1           0       -2.651262   -0.636602    0.106507
     14          1           0       -2.156758    0.507429   -0.473523
 ---------------------------------------------------------------------

 SCF Done:  E(RB2PLYPD3) =  -157.831001883     A.U. after   11 cycles
 E2(B2PLYPD3) =    -0.2521266508D+00 E(B2PLYPD3) =    -0.15808312853408D+03

 The electronic state is 1-A.
 Alpha  occ. eigenvalues --  -10.65169 -10.63334 -10.60674 -10.57153  -0.92549
 Alpha  occ. eigenvalues --   -0.84011  -0.75798  -0.67300  -0.54784  -0.51486
 Alpha  occ. eigenvalues --   -0.48386  -0.44774  -0.41964  -0.40914  -0.38719
 Alpha  occ. eigenvalues --   -0.36922  -0.35018
 Alpha virt. eigenvalues --    0.04358   0.05684   0.07123   0.08314   0.09053
 Alpha virt. eigenvalues --    0.11647   0.12048   0.13408   0.14364   0.15259
 Alpha virt. eigenvalues --    0.15741   0.17195   0.17786   0.19244   0.20745

 Mulliken charges:
               1
     1  C   -0.214790
     2  C   -0.078014
     3  H    0.077296
     4  H    0.030458
     5  H    0.064328
     6  C   -0.003735
     7  H    0.016023
     8  H    0.061280
     9  C   -0.308421
    10  H    0.018775
    11  H    0.050332
    12  H    0.023785
    13  H    0.041911
    14  H    0.220771
 Sum of Mulliken charges =   0.00000

 Dipole moment (field-independent basis, Debye):
    X=             -0.7714    Y=             -0.1044    Z=              0.4074  Tot=              0.8786
 Quadrupole moment (field-independent basis, Debye-Ang):
   XX=            -30.1666   YY=            -29.5641   ZZ=            -27.9925
   XY=              0.5600   XZ=              1.5565   YZ=              0.5077

 Normal termination of Gaussian 09 at Wed Aug 26 18:37:52 2020.
