 Gaussian 09, Revision D.01,
 Gaussian 09:  ES64L-G09RevD.01 24-Apr-2013

 --------------------
 #p B2PLYPD3/Def2QZVP
 --------------------

 ----------
 butane_opt
 ----------
 Symbolic Z-matrix:
 Charge =  0 Multiplicity = 1

                         Standard orientation:
 ---------------------------------------------------------------------
 Center     Atomic      Atomic             Coordinates (Angstroms)
 Number     Number       Type             X           Y           Z
 ---------------------------------------------------------------------
      1          6           0       -1.962249    0.105047    0.053347
      2          6           0       -0.550693   -0.582077   -0.014527
      3          1           0       -2.771499   -0.659007   -0.096437
      4          1           0       -2.169261    0.711056   -1.012708
      5          1           0       -2.147422    0.840223    1.031426
      6          6           0        0.551100    0.581355   -0.004542
      7          1           0       -0.723867   -1.280108   -0.961254
      8          1           0       -0.598159   -0.977766    0.659065
      9          6           0        1.992200   -0.143977   -0.013333
     10          1           0        0.216420    1.425812    0.905089
     11          1           0        0.596162    0.983054   -0.759186
     12          1           0        2.592798   -1.129530    1.111074
     13          1           0        2.812297    0.627644   -0.504438
     14          1           0        2.010381   -0.303464   -0.498296
 ---------------------------------------------------------------------

 SCF Done:  E(RB2PLYPD3) =  -156.930168883     A.U. after   12 cycles
 E2(B2PLYPD3) =    -0.2541116276D+00 E(B2PLYPD3) =    -0.15718428051045D+03

 The electronic state is 1-A.
 Alpha  occ. eigenvalues --  -10.65755 -10.63323 -10.62492 -10.59536  -0.94576
 Alpha  occ. eigenvalues --   -0.88390  -0.76624  -0.70202  -0.53947  -0.50078
 Alpha  occ. eigenvalues --   -0.49085  -0.45568  -0.42006  -0.39378  -0.38375
 Alpha  occ. eigenvalues --   -0.37613  -0.35969
 Alpha virt. eigenvalues --    0.03151   0.05373   0.06974   0.07291   0.10334
 Alpha virt. eigenvalues --    0.10782   0.12077   0.12372   0.14392   0.15057
 Alpha virt. eigenvalues --    0.15412   0.16644   0.18317   0.18757   0.20511

 Mulliken charges:
               1
     1  C   -0.156059
     2  C   -0.312426
     3  H    0.044430
     4  H    0.020772
     5  H    0.041453
     6  C   -0.086080
     7  H    0.036454
     8  H    0.305284
     9  C   -1.033777
    10  H    0.034989
    11  H    0.181947
    12  H    0.050017
    13  H    0.048571
    14  H    0.824423
 Sum of Mulliken charges =   0.00000

 Dipole moment (field-independent basis, Debye):
    X=             -0.2683    Y=             -0.2077    Z=             -0.5064  Tot=              0.6096
 Quadrupole moment (field-independent basis, Debye-Ang):
   XX=            -31.1384   YY=            -28.9723   ZZ=            -27.6044
   XY=              0.4498   XZ=             -1.0365   YZ=             -0.3325

 Normal termination of Gaussian 09 at Wed Aug 26 15:14:13 2020.
