 Gaussian 09, Revision D.01,
 Gaussian 09:  ES64L-G09RevD.01 24-Apr-2013

 --------------------
 #p B2PLYPD3/Def2QZVP
 --------------------

 ----------
 butane_opt
 ----------
 Symbolic Z-matrix:
 Charge =  0 Multiplicity = 1

                         Standard orientation:
 ---------------------------------------------------------------------
 Center     Atomic      Atomic             Coordinates (Angstroms)
 Number     Number       Type             X           Y           Z
 ---------------------------------------------------------------------
      1          6           0       -1.902737    0.039007    0.154446
      2          6           0       -0.541051   -0.464116   -0.267054
      3          1           0       -2.828258   -0.915611    0.258259
      4          1           0       -2.412889    0.707720   -0.428380
      5          1           0       -1.538593    0.647120    1.190802
      6          6           0        0.505581    0.641413   -0.061808
      7          1           0       -0.743337   -0.898627   -1.193901
      8          1           0       -0.384688   -0.941160    0.328913
      9          6           0        1.936104   -0.217732    0.107775
     10          1           0        0.278705    1.084054    0.889835
     11          1           0        0.477701    1.448222   -0.941429
     12          1           0        2.361443   -1.154929    1.078573
     13          1           0        2.661156    0.521830   -0.133014
     14          1           0        2.141374   -0.490048   -0.649811
 ---------------------------------------------------------------------

 SCF Done:  E(RB2PLYPD3) =  -157.785489636     A.U. after   11 cycles
 E2(B2PLYPD3) =    -0.2513894322D+00 E(B2PLYPD3) =    -0.15803687906771D+03

 The electronic state is 1-A.
 Alpha  occ. eigenvalues --  -10.63439 -10.62432 -10.60268 -10.56435  -0.93386
 Alpha  occ. eigenvalues --   -0.84746  -0.73827  -0.69526  -0.56879  -0.48431
 Alpha  occ. eigenvalues --   -0.47819  -0.46089  -0.41381  -0.40970  -0.39728
 Alpha  occ. eigenvalues --   -0.37606  -0.34926
 Alpha virt. eigenvalues --    0.04995   0.05295   0.07767   0.08532   0.10633
 Alpha virt. eigenvalues --    0.11090   0.12147   0.13527   0.14697   0.14995
 Alpha virt. eigenvalues --    0.15508   0.16610   0.18903   0.19214   0.20457

 Mulliken charges:
               1
     1  C   -0.143078
     2  C   -0.352497
     3  H    0.014078
     4  H    0.062929
     5  H    0.016054
     6  C   -0.034852
     7  H    0.048493
     8  H    0.337261
     9  C   -0.315637
    10  H    0.064113
    11  H    0.033483
    12  H    0.055919
    13  H    0.029173
    14  H    0.184562
 Sum of Mulliken charges =   0.00000

 Dipole moment (field-independent basis, Debye):
    X=              0.3341    Y=              0.0620    Z=             -0.6638  Tot=              0.7458
 Quadrupole moment (field-independent basis, Debye-Ang):
   XX=            -30.2371   YY=            -28.8137   ZZ=            -28.4633
   XY=             -0.3731   XZ=              0.5087   YZ=             -0.7482

 Normal termination of Gaussian 09 at Wed Aug 26 10:19:00 2020.
