 Gaussian 09, Revision D.01,
 Gaussian 09:  ES64L-G09RevD.01 24-Apr-2013

 --------------------
 #p B2PLYPD3/Def2QZVP
 --------------------

 ----------
 butane_opt
 ----------
 Symbolic Z-matrix:
 Charge =  0 Multiplicity = 1

                         Standard orientation:
 ---------------------------------------------------------------------
 Center     Atomic      Atomic             Coordinates (Angstroms)
 Number     Number       Type             X           Y           Z
 ---------------------------------------------------------------------
      1          6           0       -1.886449    0.102207   -0.070250
      2          6           0       -0.593943   -0.422014    0.025212
      3          1           0       -2.722995   -0.810850   -0.193164
      4          1           0       -1.864162    0.878497   -0.991306
      5          1           0       -1.877946    0.335523    0.410506
      6          6           0        0.536129    0.559335    0.191971
      7          1           0       -0.386736   -0.937536   -0.715079
      8          1           0       -0.633038   -1.178041    1.019006
      9          6           0        2.001843   -0.165442   -0.149975
     10          1           0        0.175151    1.411374    1.410099
     11          1           0        0.207431    0.820806   -0.424039
     12          1           0        2.313565   -1.153047    1.036327
     13          1           0        2.724194    0.714327   -0.671953
     14          1           0        1.719059   -0.525562   -0.862143
 ---------------------------------------------------------------------

 SCF Done:  E(RB2PLYPD3) =  -156.915508146     A.U. after   12 cycles
 E2(B2PLYPD3) =    -0.2555779639D+00 E(B2PLYPD3) =    -0.15717108610958D+03

 The electronic state is 1-A.
 Alpha  occ. eigenvalues --  -10.65282 -10.61704 -10.60665 -10.59813  -0.99692
 Alpha  occ. eigenvalues --   -0.89369  -0.78751  -0.70770  -0.57223  -0.50662
 Alpha  occ. eigenvalues --   -0.48326  -0.46838  -0.45445  -0.40053  -0.38893
 Alpha  occ. eigenvalues --   -0.36178  -0.34145
 Alpha virt. eigenvalues --    0.02183   0.05019   0.06512   0.07867   0.09416
 Alpha virt. eigenvalues --    0.10373   0.12083   0.12153   0.14394   0.14907
 Alpha virt. eigenvalues --    0.15412   0.16298   0.17875   0.19116   0.20759

 Mulliken charges:
               1
     1  C   -0.877837
     2  C    0.036067
     3  H    0.079605
     4  H    0.061617
     5  H    0.650291
     6  C   -0.505553
     7  H    0.079889
     8  H   -0.019649
     9  C   -0.316961
    10  H   -0.001362
    11  H    0.471732
    12  H    0.057050
    13  H    0.052740
    14  H    0.232370
 Sum of Mulliken charges =   0.00000

 Dipole moment (field-independent basis, Debye):
    X=             -0.2778    Y=             -0.3455    Z=             -0.9404  Tot=              1.0396
 Quadrupole moment (field-independent basis, Debye-Ang):
   XX=            -30.6421   YY=            -29.8774   ZZ=            -27.7395
   XY=              0.3810   XZ=             -1.0889   YZ=             -0.6572

 Normal termination of Gaussian 09 at Wed Aug 26 22:49:00 2020.
