 Gaussian 09, Revision D.01,
 Gaussian 09:  ES64L-G09RevD.01 24-Apr-2013

 --------------------
 #p B2PLYPD3/Def2QZVP
 --------------------

 ----------
 butane_opt
 ----------
 Symbolic Z-matrix:
 Charge =  0 Multiplicity = 1

                         Standard orientation:
 ---------------------------------------------------------------------
 Center     Atomic      Atomic             Coordinates (Angstroms)
 Number     Number       Type             X           Y           Z
 ---------------------------------------------------------------------
      1          6           0       -1.844580    0.127768   -0.106027
      2          6           0       -0.568111   -0.507916    0.117521
      3          1           0       -2.827093   -0.803188   -0.125725
      4          1           0       -1.985522    0.630979   -0.904617
      5          1           0       -1.916422    0.654703    0.644602
      6          6           0        0.529223    0.538213    0.125614
      7          1           0       -0.408591   -1.110233   -0.683641
      8          1           0       -0.610811   -1.085649    1.035968
      9          6           0        1.910624   -0.142808   -0.158390
     10          1           0        0.594239    1.779131    1.196552
     11          1           0        0.067894    0.906261   -0.554197
     12          1           0        2.579570   -1.164930    1.071784
     13          1           0        2.682813    0.439206   -0.760745
     14          1           0        1.660982   -0.337821   -0.792298
 ---------------------------------------------------------------------

 SCF Done:  E(RB2PLYPD3) =  -157.560352955     A.U. after   12 cycles
 E2(B2PLYPD3) =    -0.2555336795D+00 E(B2PLYPD3) =    -0.15781588663460D+03

 The electronic state is 1-A.
 Alpha  occ. eigenvalues --  -10.64234 -10.62869 -10.60316 -10.58838  -0.97303
 Alpha  occ. eigenvalues --   -0.89386  -0.77246  -0.69401  -0.57820  -0.52777
 Alpha  occ. eigenvalues --   -0.48676  -0.45709  -0.43712  -0.42036  -0.37894
 Alpha  occ. eigenvalues --   -0.35300  -0.33642
 Alpha virt. eigenvalues --    0.00470   0.04306   0.05691   0.07297   0.09130
 Alpha virt. eigenvalues --    0.10620   0.11403   0.13053   0.14820   0.15286
 Alpha virt. eigenvalues --    0.16003   0.16508   0.17804   0.19220   0.19726

 Mulliken charges:
               1
     1  C   -0.176641
     2  C   -0.030336
     3  H    0.002891
     4  H    0.050960
     5  H    0.098863
     6  C   -0.147436
     7  H    0.058595
     8  H    0.044861
     9  C   -0.652438
    10  H   -0.036469
    11  H    0.155075
    12  H    0.040299
    13  H    0.066753
    14  H    0.525022
 Sum of Mulliken charges =   0.00000

 Dipole moment (field-independent basis, Debye):
    X=             -0.2664    Y=             -0.3466    Z=             -1.1747  Tot=              1.2534
 Quadrupole moment (field-independent basis, Debye-Ang):
   XX=            -30.8912   YY=            -30.4870   ZZ=            -28.1025
   XY=             -0.5919   XZ=             -0.7007   YZ=             -1.2070

 Normal termination of Gaussian 09 at Wed Aug 26 23:46:43 2020.
