 Gaussian 09, Revision D.01,
 Gaussian 09:  ES64L-G09RevD.01 24-Apr-2013

 --------------------
 #p B2PLYPD3/Def2QZVP
 --------------------

 ----------
 butane_opt
 ----------
 Symbolic Z-matrix:
 Charge =  0 Multiplicity = 1

                         Standard orientation:
 ---------------------------------------------------------------------
 Center     Atomic      Atomic             Coordinates (Angstroms)
 Number     Number       Type             X           Y           Z
 ---------------------------------------------------------------------
      1          6           0       -1.861515   -0.032137    0.142731
      2          6           0       -0.566492    0.459728   -0.106272
      3          1           0       -2.664226    0.890457   -0.243512
      4          1           0       -2.162749   -0.806994    1.154812
      5          1           0       -1.786965   -0.634516   -0.758659
      6          6           0        0.423556   -0.554241   -0.036054
      7          1           0       -0.298033    0.772305    0.491950
      8          1           0       -0.469519    1.318814   -1.018657
      9          6           0        1.939438    0.101173    0.046654
     10          1           0        0.388386   -1.160569   -0.861871
     11          1           0        0.476379   -1.308590    0.908166
     12          1           0        1.682029    0.107623   -0.630472
     13          1           0        2.541207   -0.392247   -0.645694
     14          1           0        2.683566    1.366583    1.321578
 ---------------------------------------------------------------------

 SCF Done:  E(RB2PLYPD3) =  -157.347759845     A.U. after   14 cycles
 E2(B2PLYPD3) =    -0.2621962833D+00 E(B2PLYPD3) =    -0.15760995612779D+03

 The electronic state is 1-A.
 Alpha  occ. eigenvalues --  -10.63709 -10.63399 -10.61066 -10.57605  -1.00123
 Alpha  occ. eigenvalues --   -0.92473  -0.76395  -0.70814  -0.55791  -0.50128
 Alpha  occ. eigenvalues --   -0.48823  -0.46477  -0.41423  -0.38728  -0.37778
 Alpha  occ. eigenvalues --   -0.36517  -0.30195
 Alpha virt. eigenvalues --   -0.03639   0.05090   0.05816   0.06497   0.10109
 Alpha virt. eigenvalues --    0.10633   0.11455   0.12735   0.13839   0.15316
 Alpha virt. eigenvalues --    0.15742   0.17545   0.18434   0.18695   0.19681

 Mulliken charges:
               1
     1  C   -0.147883
     2  C   -0.498454
     3  H    0.034749
     4  H    0.064798
     5  H    0.049077
     6  C   -0.034811
     7  H    0.468378
     8  H    0.046811
     9  C   -0.703029
    10  H    0.048736
    11  H    0.042059
    12  H    0.516732
    13  H    0.062270
    14  H    0.050566
 Sum of Mulliken charges =   0.00000

 Dipole moment (field-independent basis, Debye):
    X=             -0.3303    Y=             -0.0780    Z=             -0.8089  Tot=              0.8772
 Quadrupole moment (field-independent basis, Debye-Ang):
   XX=            -32.9983   YY=            -29.5739   ZZ=            -27.4030
   XY=              0.2093   XZ=             -1.2561   YZ=              0.5216

 Normal termination of Gaussian 09 at Wed Aug 26 13:11:56 2020.
