 Gaussian 09, Revision D.01,
 Gaussian 09:  ES64L-G09RevD.01 24-Apr-2013

 --------------------
 #p B2PLYPD3/Def2QZVP
 --------------------

 ----------
 butane_opt
 ----------
 Symbolic Z-matrix:
 Charge =  0 Multiplicity = 1

                         Standard orientation:
 ---------------------------------------------------------------------
 Center     Atomic      Atomic             Coordinates (Angstroms)
 Number     Number       Type             X           Y           Z
 ---------------------------------------------------------------------
      1          6           0        1.975511    0.174481   -0.123564
      2          6           0        0.570035   -0.545195    0.088945
      3          1           0        2.547569   -0.505460   -0.128252
      4          1           0        2.210090    0.336558    0.580574
      5          1           0        1.867863    1.291653   -1.070524
      6          6           0       -0.634162    0.361805    0.308804
      7          1           0        0.791487   -1.248112    0.834405
      8          1           0        0.248183   -1.164919   -0.816446
      9          6           0       -1.934726   -0.073015   -0.156723
     10          1           0       -0.386497    1.097033   -0.509380
     11          1           0       -0.413783    1.222433    1.535603
     12          1           0       -1.282486   -0.527057   -1.090156
     13          1           0       -2.746621    0.802450   -0.638692
     14          1           0       -2.695756   -0.813032    0.598094
 ---------------------------------------------------------------------

 SCF Done:  E(RB2PLYPD3) =  -157.723547788     A.U. after   11 cycles
 E2(B2PLYPD3) =    -0.2561806401D+00 E(B2PLYPD3) =    -0.15797972842819D+03

 The electronic state is 1-A.
 Alpha  occ. eigenvalues --  -10.65951 -10.65040 -10.62272 -10.58539  -0.93987
 Alpha  occ. eigenvalues --   -0.88539  -0.75185  -0.63419  -0.53696  -0.50912
 Alpha  occ. eigenvalues --   -0.49762  -0.46616  -0.42883  -0.40259  -0.38405
 Alpha  occ. eigenvalues --   -0.35247  -0.33378
 Alpha virt. eigenvalues --    0.04505   0.05507   0.05891   0.07259   0.09662
 Alpha virt. eigenvalues --    0.10084   0.11117   0.12866   0.14185   0.14752
 Alpha virt. eigenvalues --    0.15439   0.16171   0.17680   0.19354   0.21179

 Mulliken charges:
               1
     1  C   -0.436712
     2  C    0.036028
     3  H    0.081978
     4  H    0.289065
     5  H    0.039441
     6  C   -0.086649
     7  H    0.024552
     8  H    0.015659
     9  C   -0.145453
    10  H    0.075026
    11  H   -0.038643
    12  H    0.054261
    13  H    0.048681
    14  H    0.042767
 Sum of Mulliken charges =   0.00000

 Dipole moment (field-independent basis, Debye):
    X=              0.4643    Y=             -0.4629    Z=             -0.1961  Tot=              0.6843
 Quadrupole moment (field-independent basis, Debye-Ang):
   XX=            -29.0416   YY=            -30.1111   ZZ=            -30.1028
   XY=             -1.1152   XZ=              1.3815   YZ=             -1.6088

 Normal termination of Gaussian 09 at Wed Aug 26 18:34:09 2020.
