 Gaussian 09, Revision D.01,
 Gaussian 09:  ES64L-G09RevD.01 24-Apr-2013

 --------------------
 #p B2PLYPD3/Def2QZVP
 --------------------

 ----------
 butane_opt
 ----------
 Symbolic Z-matrix:
 Charge =  0 Multiplicity = 1

                         Standard orientation:
 ---------------------------------------------------------------------
 Center     Atomic      Atomic             Coordinates (Angstroms)
 Number     Number       Type             X           Y           Z
 ---------------------------------------------------------------------
      1          6           0        1.956175    0.040632   -0.187336
      2          6           0        0.562162   -0.441790    0.194553
      3          1           0        2.708973   -0.831915    0.046060
      4          1           0        2.272578    0.644986    0.470357
      5          1           0        1.798326    0.722640   -1.341812
      6          6           0       -0.573096    0.627994    0.153752
      7          1           0        0.875429   -1.007156    1.349333
      8          1           0        0.441500   -0.906287   -0.476234
      9          6           0       -1.991973   -0.168299   -0.093419
     10          1           0       -0.478610    0.847375   -0.506930
     11          1           0       -0.512896    1.685855    1.024023
     12          1           0       -1.654004   -0.842096   -0.881724
     13          1           0       -2.456768    0.018770   -0.826009
     14          1           0       -2.714136   -0.683392    0.737640
 ---------------------------------------------------------------------

 SCF Done:  E(RB2PLYPD3) =  -157.596890641     A.U. after   11 cycles
 E2(B2PLYPD3) =    -0.2515865469D+00 E(B2PLYPD3) =    -0.15784847718753D+03

 The electronic state is 1-A.
 Alpha  occ. eigenvalues --  -10.61637 -10.61415 -10.60243 -10.59903  -0.94863
 Alpha  occ. eigenvalues --   -0.86037  -0.78247  -0.70829  -0.54953  -0.49419
 Alpha  occ. eigenvalues --   -0.48201  -0.47277  -0.42966  -0.40541  -0.39158
 Alpha  occ. eigenvalues --   -0.36117  -0.35147
 Alpha virt. eigenvalues --    0.04659   0.06227   0.07382   0.07871   0.10830
 Alpha virt. eigenvalues --    0.11397   0.12119   0.12611   0.14523   0.14682
 Alpha virt. eigenvalues --    0.16559   0.16960   0.18201   0.18821   0.20313

 Mulliken charges:
               1
     1  C   -0.150790
     2  C   -0.224066
     3  H    0.044107
     4  H    0.081449
     5  H    0.006541
     6  C   -0.630510
     7  H    0.009644
     8  H    0.260354
     9  C   -0.202303
    10  H    0.566026
    11  H    0.038089
    12  H    0.023594
    13  H    0.122281
    14  H    0.055585
 Sum of Mulliken charges =   0.00000

 Dipole moment (field-independent basis, Debye):
    X=             -0.0069    Y=             -0.0615    Z=             -0.4811  Tot=              0.4850
 Quadrupole moment (field-independent basis, Debye-Ang):
   XX=            -29.4240   YY=            -29.9086   ZZ=            -27.7817
   XY=              0.2151   XZ=              2.3714   YZ=              0.1776

 Normal termination of Gaussian 09 at Wed Aug 26 23:47:34 2020.
