 Gaussian 09, Revision D.01,
 Gaussian 09:  ES64L-G09RevD.01 24-Apr-2013

 --------------------
 #p B2PLYPD3/Def2QZVP
 --------------------

 ----------
 butane_opt
 ----------
 Symbolic Z-matrix:
 Charge =  0 Multiplicity = 1

                         Standard orientation:
 ---------------------------------------------------------------------
 Center     Atomic      Atomic             Coordinates (Angstroms)
 Number     Number       Type             X           Y           Z
 ---------------------------------------------------------------------
      1          6           0       -1.871340    0.030039   -0.213552
      2          6           0       -0.537027   -0.398276    0.235408
      3          1           0       -2.707682   -0.814210   -0.166084
      4          1           0       -1.800654    0.450187   -1.085954
      5          1           0       -2.049431    0.632181    0.480666
      6          6           0        0.470811    0.591461    0.155379
      7          1           0       -0.284706   -0.940223   -0.358699
      8          1           0       -0.686010   -0.956081    1.235343
      9          6           0        1.884073   -0.202157   -0.165987
     10          1           0        0.463203    1.741279    1.083481
     11          1           0        0.300203    0.812928   -0.601589
     12          1           0        2.591124   -0.767539    0.967534
     13          1           0        2.462057    0.381721   -0.948602
     14          1           0        2.032788   -0.666645   -0.673585
 ---------------------------------------------------------------------

 SCF Done:  E(RB2PLYPD3) =  -157.534357226     A.U. after   12 cycles
 E2(B2PLYPD3) =    -0.2505459261D+00 E(B2PLYPD3) =    -0.15778490315162D+03

 The electronic state is 1-A.
 Alpha  occ. eigenvalues --  -10.62174 -10.60909 -10.57147 -10.57092  -0.97859
 Alpha  occ. eigenvalues --   -0.87918  -0.80435  -0.70765  -0.57883  -0.52407
 Alpha  occ. eigenvalues --   -0.50183  -0.45763  -0.43516  -0.41264  -0.38556
 Alpha  occ. eigenvalues --   -0.37819  -0.34740
 Alpha virt. eigenvalues --    0.03774   0.06101   0.07121   0.08532   0.10399
 Alpha virt. eigenvalues --    0.11656   0.12213   0.12659   0.14302   0.15903
 Alpha virt. eigenvalues --    0.16850   0.17244   0.18035   0.19534   0.20364

 Mulliken charges:
               1
     1  C   -0.159498
     2  C   -0.171506
     3  H    0.030377
     4  H    0.043312
     5  H    0.077583
     6  C   -0.322371
     7  H    0.191555
     8  H    0.020330
     9  C   -0.559540
    10  H    0.024994
    11  H    0.333626
    12  H    0.032080
    13  H    0.018076
    14  H    0.440982
 Sum of Mulliken charges =   0.00000

 Dipole moment (field-independent basis, Debye):
    X=             -0.4539    Y=             -0.2365    Z=             -0.9122  Tot=              1.0460
 Quadrupole moment (field-independent basis, Debye-Ang):
   XX=            -31.2956   YY=            -29.1686   ZZ=            -27.1282
   XY=             -0.6642   XZ=             -1.6771   YZ=              0.1747

 Normal termination of Gaussian 09 at Wed Aug 26 13:21:49 2020.
