 Gaussian 09, Revision D.01,
 Gaussian 09:  ES64L-G09RevD.01 24-Apr-2013

 --------------------
 #p B2PLYPD3/Def2QZVP
 --------------------

 ----------
 butane_opt
 ----------
 Symbolic Z-matrix:
 Charge =  0 Multiplicity = 1

                         Standard orientation:
 ---------------------------------------------------------------------
 Center     Atomic      Atomic             Coordinates (Angstroms)
 Number     Number       Type             X           Y           Z
 ---------------------------------------------------------------------
      1          6           0       -1.857521    0.010488   -0.196092
      2          6           0       -0.595381   -0.342151    0.268379
      3          1           0       -2.517715   -0.833250   -0.543070
      4          1           0       -1.383294    0.257860   -1.059648
      5          1           0       -2.372898    0.890435    0.637502
      6          6           0        0.548421    0.562120   -0.003629
      7          1           0       -0.756884   -0.883440   -0.227529
      8          1           0       -0.460658   -1.017040    1.667321
      9          6           0        1.935220   -0.196585   -0.091278
     10          1           0        0.252660    1.627753    0.880795
     11          1           0        0.082632    0.810517   -0.866816
     12          1           0        2.054038   -0.456486    0.851986
     13          1           0        2.755674    0.535360   -0.295729
     14          1           0        2.162012   -1.134941   -0.909089
 ---------------------------------------------------------------------

 SCF Done:  E(RB2PLYPD3) =  -157.701810713     A.U. after   12 cycles
 E2(B2PLYPD3) =    -0.2552159500D+00 E(B2PLYPD3) =    -0.15795702666283D+03

 The electronic state is 1-A.
 Alpha  occ. eigenvalues --  -10.64125 -10.63128 -10.62423 -10.60104  -1.01782
 Alpha  occ. eigenvalues --   -0.85865  -0.74292  -0.67693  -0.56000  -0.52533
 Alpha  occ. eigenvalues --   -0.49953  -0.46806  -0.42714  -0.42210  -0.39043
 Alpha  occ. eigenvalues --   -0.34379  -0.32552
 Alpha virt. eigenvalues --    0.04064   0.05846   0.06307   0.07294   0.10205
 Alpha virt. eigenvalues --    0.10828   0.12127   0.12965   0.13976   0.14846
 Alpha virt. eigenvalues --    0.15694   0.16827   0.17340   0.18659   0.19891

 Mulliken charges:
               1
     1  C   -0.157110
     2  C   -0.389624
     3  H    0.063802
     4  H    0.058880
     5  H    0.031050
     6  C   -0.072759
     7  H    0.417668
     8  H   -0.072435
     9  C   -0.152424
    10  H    0.022473
    11  H    0.071311
    12  H    0.095874
    13  H    0.042744
    14  H    0.040550
 Sum of Mulliken charges =   0.00000

 Dipole moment (field-independent basis, Debye):
    X=              0.1068    Y=             -0.2133    Z=             -1.1964  Tot=              1.2200
 Quadrupole moment (field-independent basis, Debye-Ang):
   XX=            -29.1509   YY=            -30.5937   ZZ=            -29.7157
   XY=              0.5308   XZ=              0.8239   YZ=              2.0700

 Normal termination of Gaussian 09 at Wed Aug 26 13:16:15 2020.
