 Gaussian 09, Revision D.01,
 Gaussian 09:  ES64L-G09RevD.01 24-Apr-2013

 --------------------
 #p B2PLYPD3/Def2QZVP
 --------------------

 ----------
 butane_opt
 ----------
 Symbolic Z-matrix:
 Charge =  0 Multiplicity = 1

                         Standard orientation:
 ---------------------------------------------------------------------
 Center     Atomic      Atomic             Coordinates (Angstroms)
 Number     Number       Type             X           Y           Z
 ---------------------------------------------------------------------
      1          6           0        1.864044    0.081531    0.210535
      2          6           0        0.612357   -0.492021   -0.248079
      3          1           0        2.719843   -0.824947    0.360448
      4          1           0        1.665599    0.530981    1.206207
      5          1           0        2.297345    1.057128   -0.842745
      6          6           0       -0.484057    0.619539   -0.147323
      7          1           0        0.150861   -1.090816    0.404392
      8          1           0        0.897810   -1.198200   -1.157946
      9          6           0       -1.991903   -0.157179    0.083338
     10          1           0       -0.637115    1.340257   -0.895814
     11          1           0       -0.282340    1.090079    0.835711
     12          1           0       -2.327964   -0.611898   -0.782408
     13          1           0       -2.685477    0.410030    0.495135
     14          1           0       -1.801200   -1.013831    0.986194
 ---------------------------------------------------------------------

 SCF Done:  E(RB2PLYPD3) =  -157.985700077     A.U. after   11 cycles
 E2(B2PLYPD3) =    -0.2516555394D+00 E(B2PLYPD3) =    -0.15823735561638D+03

 The electronic state is 1-A.
 Alpha  occ. eigenvalues --  -10.65021 -10.62410 -10.60796 -10.60616  -0.91528
 Alpha  occ. eigenvalues --   -0.81763  -0.72174  -0.66539  -0.54926  -0.50439
 Alpha  occ. eigenvalues --   -0.48570  -0.44559  -0.42897  -0.39663  -0.39091
 Alpha  occ. eigenvalues --   -0.36534  -0.34975
 Alpha virt. eigenvalues --    0.04212   0.06033   0.07680   0.08566   0.10052
 Alpha virt. eigenvalues --    0.10988   0.12130   0.12846   0.13774   0.15407
 Alpha virt. eigenvalues --    0.15980   0.16790   0.18584   0.19346   0.21137

 Mulliken charges:
               1
     1  C   -0.180277
     2  C   -0.051496
     3  H    0.036520
     4  H    0.063039
     5  H    0.016489
     6  C   -0.073397
     7  H    0.075349
     8  H    0.032823
     9  C   -0.159991
    10  H    0.053046
    11  H    0.052745
    12  H    0.067898
    13  H    0.064931
    14  H    0.002322
 Sum of Mulliken charges =   0.00000

 Dipole moment (field-independent basis, Debye):
    X=             -0.5156    Y=             -0.1272    Z=              0.2368  Tot=              0.5815
 Quadrupole moment (field-independent basis, Debye-Ang):
   XX=            -31.1987   YY=            -29.4338   ZZ=            -28.5037
   XY=             -1.5382   XZ=              0.3180   YZ=              0.0562

 Normal termination of Gaussian 09 at Wed Aug 26 15:27:45 2020.
