 Gaussian 09, Revision D.01,
 Gaussian 09:  ES64L-G09RevD.01 24-Apr-2013

 --------------------
 #p B2PLYPD3/Def2QZVP
 --------------------

 ----------
 butane_opt
 ----------
 Symbolic Z-matrix:
 Charge =  0 Multiplicity = 1

                         Standard orientation:
 ---------------------------------------------------------------------
 Center     Atomic      Atomic             Coordinates (Angstroms)
 Number     Number       Type             X           Y           Z
 ---------------------------------------------------------------------
      1          6           0       -2.034160   -0.223733   -0.105582
      2          6           0       -0.534917    0.636116    0.109239
      3          1           0       -2.839473    0.688046   -0.340743
      4          1           0       -2.298786   -0.606780    0.725052
      5          1           0       -2.222644   -1.352293   -1.026633
      6          6           0        0.614086   -0.399524    0.358458
      7          1           0       -0.424864    1.580230    0.903880
      8          1           0       -0.331087    1.149355   -0.827776
      9          6           0        1.929489    0.041728   -0.238774
     10          1           0        0.575759   -1.220259   -0.440438
     11          1           0        0.848933   -1.020230    1.342396
     12          1           0        1.701547    0.473747   -1.208361
     13          1           0        2.755959   -0.777141   -0.308574
     14          1           0        2.387666    0.757797    0.441151
 ---------------------------------------------------------------------

 SCF Done:  E(RB2PLYPD3) =  -157.973041136     A.U. after   11 cycles
 E2(B2PLYPD3) =    -0.2530858991D+00 E(B2PLYPD3) =    -0.15822612703468D+03

 The electronic state is 1-A.
 Alpha  occ. eigenvalues --  -10.65154 -10.64991 -10.62153 -10.60348  -0.89666
 Alpha  occ. eigenvalues --   -0.80843  -0.72299  -0.65571  -0.52619  -0.49242
 Alpha  occ. eigenvalues --   -0.46273  -0.44985  -0.42947  -0.39741  -0.39018
 Alpha  occ. eigenvalues --   -0.36153  -0.34312
 Alpha virt. eigenvalues --    0.04121   0.05530   0.07253   0.08293   0.10480
 Alpha virt. eigenvalues --    0.10924   0.11993   0.13225   0.13463   0.14842
 Alpha virt. eigenvalues --    0.15729   0.16064   0.18115   0.19469   0.20106

 Mulliken charges:
               1
     1  C   -0.194761
     2  C   -0.069508
     3  H    0.040540
     4  H    0.104734
     5  H    0.032055
     6  C   -0.065372
     7  H    0.033956
     8  H    0.052765
     9  C   -0.130893
    10  H    0.033954
    11  H    0.038312
    12  H    0.055480
    13  H    0.035843
    14  H    0.032894
 Sum of Mulliken charges =   0.00000

 Dipole moment (field-independent basis, Debye):
    X=              0.0947    Y=              0.0975    Z=              0.1508  Tot=              0.2030
 Quadrupole moment (field-independent basis, Debye-Ang):
   XX=            -30.5350   YY=            -28.8349   ZZ=            -29.2528
   XY=             -0.5558   XZ=             -0.1336   YZ=             -0.0657

 Normal termination of Gaussian 09 at Wed Aug 26 12:09:24 2020.
