 Gaussian 09, Revision D.01,
 Gaussian 09:  ES64L-G09RevD.01 24-Apr-2013

 --------------------
 #p B2PLYPD3/Def2QZVP
 --------------------

 ----------
 butane_opt
 ----------
 Symbolic Z-matrix:
 Charge =  0 Multiplicity = 1

                         Standard orientation:
 ---------------------------------------------------------------------
 Center     Atomic      Atomic             Coordinates (Angstroms)
 Number     Number       Type             X           Y           Z
 ---------------------------------------------------------------------
      1          6           0       -1.936174    0.106459    0.142939
      2          6           0       -0.583473   -0.389957   -0.190120
      3          1           0       -2.794658   -0.974560   -0.002127
      4          1           0       -1.899463    0.347333   -0.311775
      5          1           0       -1.604894    0.819057    1.339828
      6          6           0        0.487996    0.598387   -0.252792
      7          1           0       -0.511032   -0.985364   -1.145589
      8          1           0       -0.542225   -1.150997    0.598173
      9          6           0        1.988841   -0.168968    0.191628
     10          1           0        0.279698    0.911365    0.426466
     11          1           0        0.438068    1.439884   -1.095528
     12          1           0        1.507532   -0.716221    0.956116
     13          1           0        2.672814    0.330053    0.737525
     14          1           0        2.711016   -0.896080   -0.853021
 ---------------------------------------------------------------------

 SCF Done:  E(RB2PLYPD3) =  -156.950800604     A.U. after   12 cycles
 E2(B2PLYPD3) =    -0.2556291829D+00 E(B2PLYPD3) =    -0.15720642978702D+03

 The electronic state is 1-A.
 Alpha  occ. eigenvalues --  -10.64965 -10.63638 -10.60497 -10.59837  -0.98392
 Alpha  occ. eigenvalues --   -0.87920  -0.76116  -0.69336  -0.57182  -0.50530
 Alpha  occ. eigenvalues --   -0.48288  -0.45806  -0.41710  -0.41276  -0.38365
 Alpha  occ. eigenvalues --   -0.36245  -0.34997
 Alpha virt. eigenvalues --    0.03415   0.05045   0.07082   0.07650   0.10325
 Alpha virt. eigenvalues --    0.10710   0.11386   0.12213   0.13986   0.14985
 Alpha virt. eigenvalues --    0.15575   0.16725   0.17259   0.19627   0.21388

 Mulliken charges:
               1
     1  C   -0.997448
     2  C    0.049314
     3  H    0.069583
     4  H    0.784606
     5  H    0.045898
     6  C   -0.417976
     7  H    0.024218
     8  H    0.033950
     9  C   -0.184634
    10  H    0.367231
    11  H    0.055297
    12  H    0.074199
    13  H    0.067505
    14  H    0.028257
 Sum of Mulliken charges =   0.00000

 Dipole moment (field-independent basis, Debye):
    X=              0.0417    Y=              0.1341    Z=              0.3345  Tot=              0.3627
 Quadrupole moment (field-independent basis, Debye-Ang):
   XX=            -31.1648   YY=            -29.2520   ZZ=            -27.8147
   XY=              1.5041   XZ=              1.2081   YZ=              0.1551

 Normal termination of Gaussian 09 at Wed Aug 26 20:32:57 2020.
