 Gaussian 09, Revision D.01,
 Gaussian 09:  ES64L-G09RevD.01 24-Apr-2013

 --------------------
 #p B2PLYPD3/Def2QZVP
 --------------------

 ----------
 butane_opt
 ----------
 Symbolic Z-matrix:
 Charge =  0 Multiplicity = 1

                         Standard orientation:
 ---------------------------------------------------------------------
 Center     Atomic      Atomic             Coordinates (Angstroms)
 Number     Number       Type             X           Y           Z
 ---------------------------------------------------------------------
      1          6           0       -1.894566   -0.138950   -0.156974
      2          6           0       -0.525885    0.631412    0.062590
      3          1           0       -2.603962    0.474548   -0.042208
      4          1           0       -1.890898   -0.713318    0.821615
      5          1           0       -2.236191   -1.071055   -0.967821
      6          6           0        0.572129   -0.477179    0.191973
      7          1           0       -0.599481    1.323733    0.885268
      8          1           0       -0.248319    0.951442   -0.650870
      9          6           0        1.861401    0.089157   -0.150819
     10          1           0        0.461629   -0.906097   -0.439238
     11          1           0        0.262730   -1.150039    1.353663
     12          1           0        1.719615    0.497800   -1.073249
     13          1           0        2.803335   -0.877828   -0.352732
     14          1           0        2.253067    0.844173    0.784959
 ---------------------------------------------------------------------

 SCF Done:  E(RB2PLYPD3) =  -157.779546957     A.U. after   11 cycles
 E2(B2PLYPD3) =    -0.2504194641D+00 E(B2PLYPD3) =    -0.15802996642074D+03

 The electronic state is 1-A.
 Alpha  occ. eigenvalues --  -10.63570 -10.60578 -10.59295 -10.58668  -0.95496
 Alpha  occ. eigenvalues --   -0.84453  -0.73682  -0.69896  -0.56666  -0.50488
 Alpha  occ. eigenvalues --   -0.49994  -0.46285  -0.42655  -0.40460  -0.39006
 Alpha  occ. eigenvalues --   -0.38242  -0.34434
 Alpha virt. eigenvalues --    0.04838   0.06180   0.07810   0.08291   0.10334
 Alpha virt. eigenvalues --    0.11133   0.12129   0.14018   0.14388   0.14890
 Alpha virt. eigenvalues --    0.15584   0.16455   0.18819   0.19297   0.21150

 Mulliken charges:
               1
     1  C   -0.180542
     2  C   -0.191948
     3  H    0.069425
     4  H    0.029815
     5  H    0.037266
     6  C   -0.358766
     7  H    0.056004
     8  H    0.200942
     9  C   -0.170260
    10  H    0.358220
    11  H    0.009947
    12  H    0.080842
    13  H    0.015666
    14  H    0.043390
 Sum of Mulliken charges =   0.00000

 Dipole moment (field-independent basis, Debye):
    X=             -0.3350    Y=              0.4087    Z=             -0.3228  Tot=              0.6192
 Quadrupole moment (field-independent basis, Debye-Ang):
   XX=            -31.0271   YY=            -29.0828   ZZ=            -28.2063
   XY=             -0.0521   XZ=             -0.6974   YZ=              0.9253

 Normal termination of Gaussian 09 at Wed Aug 26 22:30:22 2020.
