 Gaussian 09, Revision D.01,
 Gaussian 09:  ES64L-G09RevD.01 24-Apr-2013

 --------------------
 #p B2PLYPD3/Def2QZVP
 --------------------

 ----------
 butane_opt
 ----------
 Symbolic Z-matrix:
 Charge =  0 Multiplicity = 1

                         Standard orientation:
 ---------------------------------------------------------------------
 Center     Atomic      Atomic             Coordinates (Angstroms)
 Number     Number       Type             X           Y           Z
 ---------------------------------------------------------------------
      1          6           0       -1.976504   -0.140388   -0.100028
      2          6           0       -0.475790    0.524797    0.103949
      3          1           0       -2.581898    0.399106    0.138039
      4          1           0       -1.939034   -0.255623    0.517855
      5          1           0       -2.426965   -0.985861   -1.019265
      6          6           0        0.555157   -0.471557    0.174289
      7          1           0       -0.370983    1.310856    0.956329
      8          1           0       -0.165132    1.108978   -0.652792
      9          6           0        1.814291    0.075046   -0.168246
     10          1           0        0.367829   -0.860075   -0.411427
     11          1           0        0.902667   -1.337833    1.293187
     12          1           0        1.681931    0.736437   -1.019533
     13          1           0        2.652191   -0.772286   -0.484035
     14          1           0        2.376464    0.728918    0.621854
 ---------------------------------------------------------------------

 SCF Done:  E(RB2PLYPD3) =  -157.335463821     A.U. after   12 cycles
 E2(B2PLYPD3) =    -0.2508706850D+00 E(B2PLYPD3) =    -0.15758633450587D+03

 The electronic state is 1-A.
 Alpha  occ. eigenvalues --  -10.61553 -10.61308 -10.58704 -10.56566  -0.98263
 Alpha  occ. eigenvalues --   -0.92691  -0.76519  -0.70719  -0.55085  -0.52256
 Alpha  occ. eigenvalues --   -0.48886  -0.48436  -0.43813  -0.41786  -0.38301
 Alpha  occ. eigenvalues --   -0.37738  -0.35304
 Alpha virt. eigenvalues --    0.05063   0.06279   0.06795   0.08326   0.11040
 Alpha virt. eigenvalues --    0.11081   0.12556   0.13171   0.15273   0.15409
 Alpha virt. eigenvalues --    0.16121   0.16578   0.18650   0.20085   0.21106

 Mulliken charges:
               1
     1  C   -0.784887
     2  C   -0.012892
     3  H    0.072730
     4  H    0.600685
     5  H    0.074820
     6  C   -0.481172
     7  H    0.020792
     8  H    0.054541
     9  C   -0.110005
    10  H    0.460831
    11  H   -0.000310
    12  H    0.039793
    13  H    0.027745
    14  H    0.037328
 Sum of Mulliken charges =   0.00000

 Dipole moment (field-independent basis, Debye):
    X=             -0.3252    Y=              0.3201    Z=             -0.2131  Tot=              0.5036
 Quadrupole moment (field-independent basis, Debye-Ang):
   XX=            -28.3324   YY=            -28.9620   ZZ=            -28.2603
   XY=              0.3526   XZ=             -0.2370   YZ=              1.1291

 Normal termination of Gaussian 09 at Wed Aug 26 11:10:30 2020.
