 Gaussian 09, Revision D.01,
 Gaussian 09:  ES64L-G09RevD.01 24-Apr-2013

 --------------------
 #p B2PLYPD3/Def2QZVP
 --------------------

 ----------
 butane_opt
 ----------
 Symbolic Z-matrix:
 Charge =  0 Multiplicity = 1

                         Standard orientation:
 ---------------------------------------------------------------------
 Center     Atomic      Atomic             Coordinates (Angstroms)
 Number     Number       Type             X           Y           Z
 ---------------------------------------------------------------------
      1          6           0        2.034192    0.129886   -0.136029
      2          6           0        0.595335   -0.567495    0.276603
      3          1           0        2.715222   -0.482431   -0.453149
      4          1           0        2.337288    0.625964    0.564146
      5          1           0        2.082429    0.857672   -1.172926
      6          6           0       -0.635601    0.553572    0.215490
      7          1           0        0.523253   -1.143789    1.138496
      8          1           0        0.158828   -1.386325   -0.809254
      9          6           0       -1.975909   -0.104335   -0.216774
     10          1           0       -0.538666    1.012141   -0.544667
     11          1           0       -0.712646    1.527201    1.206292
     12          1           0       -1.663690   -0.702691   -0.945996
     13          1           0       -2.687189    0.595616   -0.617266
     14          1           0       -2.322933   -0.973123    0.798581
 ---------------------------------------------------------------------

 SCF Done:  E(RB2PLYPD3) =  -157.884593354     A.U. after   11 cycles
 E2(B2PLYPD3) =    -0.2517840222D+00 E(B2PLYPD3) =    -0.15813637737613D+03

 The electronic state is 1-A.
 Alpha  occ. eigenvalues --  -10.66009 -10.62215 -10.61824 -10.60028  -0.89837
 Alpha  occ. eigenvalues --   -0.84067  -0.73427  -0.67696  -0.52872  -0.50907
 Alpha  occ. eigenvalues --   -0.49844  -0.46105  -0.41511  -0.40566  -0.37982
 Alpha  occ. eigenvalues --   -0.36077  -0.35435
 Alpha virt. eigenvalues --    0.04887   0.05859   0.06339   0.08731   0.10031
 Alpha virt. eigenvalues --    0.11692   0.11917   0.12999   0.13724   0.15146
 Alpha virt. eigenvalues --    0.15759   0.16619   0.18616   0.19222   0.19938

 Mulliken charges:
               1
     1  C   -0.147843
     2  C   -0.092075
     3  H    0.059663
     4  H    0.100412
     5  H    0.008836
     6  C   -0.153270
     7  H    0.089532
     8  H   -0.020057
     9  C   -0.162813
    10  H    0.160050
    11  H    0.002918
    12  H    0.085073
    13  H    0.061378
    14  H    0.008196
 Sum of Mulliken charges =   0.00000

 Dipole moment (field-independent basis, Debye):
    X=              0.6226    Y=              0.1916    Z=             -0.3302  Tot=              0.7303
 Quadrupole moment (field-independent basis, Debye-Ang):
   XX=            -29.5009   YY=            -29.9008   ZZ=            -28.4024
   XY=             -0.7594   XZ=              1.2693   YZ=             -0.7980

 Normal termination of Gaussian 09 at Wed Aug 26 12:50:24 2020.
