 Gaussian 09, Revision D.01,
 Gaussian 09:  ES64L-G09RevD.01 24-Apr-2013

 --------------------
 #p B2PLYPD3/Def2QZVP
 --------------------

 ----------
 butane_opt
 ----------
 Symbolic Z-matrix:
 Charge =  0 Multiplicity = 1

                         Standard orientation:
 ---------------------------------------------------------------------
 Center     Atomic      Atomic             Coordinates (Angstroms)
 Number     Number       Type             X           Y           Z
 ---------------------------------------------------------------------
      1          6           0       -2.001467    0.071569   -0.163664
      2          6           0       -0.581045   -0.421657    0.056810
      3          1           0       -2.931684   -0.863430    0.051119
      4          1           0       -2.048723    0.826730   -1.114469
      5          1           0       -2.105143    0.586992    0.647538
      6          6           0        0.576337    0.550626    0.271867
      7          1           0       -0.237710   -0.787129   -0.591609
      8          1           0       -0.846118   -1.294102    1.062485
      9          6           0        2.031821   -0.124344   -0.165745
     10          1           0        0.577195    1.446823    1.396935
     11          1           0        0.343555    1.003485   -0.659512
     12          1           0        2.647947   -1.176719    0.820117
     13          1           0        2.710124    0.411293   -0.675069
     14          1           0        1.736678   -0.611111   -0.933143
 ---------------------------------------------------------------------

 SCF Done:  E(RB2PLYPD3) =  -157.782831181     A.U. after   11 cycles
 E2(B2PLYPD3) =    -0.2547575418D+00 E(B2PLYPD3) =    -0.15803758872324D+03

 The electronic state is 1-A.
 Alpha  occ. eigenvalues --  -10.66052 -10.63519 -10.62803 -10.61230  -0.93924
 Alpha  occ. eigenvalues --   -0.84020  -0.75845  -0.67199  -0.53404  -0.49905
 Alpha  occ. eigenvalues --   -0.47820  -0.45436  -0.44190  -0.40132  -0.37834
 Alpha  occ. eigenvalues --   -0.37344  -0.33785
 Alpha virt. eigenvalues --    0.04043   0.04344   0.06981   0.07373   0.09096
 Alpha virt. eigenvalues --    0.10504   0.11846   0.12359   0.13619   0.14683
 Alpha virt. eigenvalues --    0.15789   0.16066   0.17517   0.18924   0.19725

 Mulliken charges:
               1
     1  C   -0.159715
     2  C   -0.233650
     3  H    0.046764
     4  H    0.025116
     5  H    0.101633
     6  C   -0.091445
     7  H    0.241261
     8  H   -0.015053
     9  C   -0.184970
    10  H    0.021825
    11  H    0.078727
    12  H    0.010190
    13  H    0.073018
    14  H    0.086301
 Sum of Mulliken charges =   0.00000

 Dipole moment (field-independent basis, Debye):
    X=             -0.1466    Y=              0.3190    Z=             -0.8830  Tot=              0.9503
 Quadrupole moment (field-independent basis, Debye-Ang):
   XX=            -30.8105   YY=            -30.6873   ZZ=            -28.6513
   XY=              0.4835   XZ=             -2.3556   YZ=             -0.2604

 Normal termination of Gaussian 09 at Wed Aug 26 12:10:57 2020.
