 Gaussian 09, Revision D.01,
 Gaussian 09:  ES64L-G09RevD.01 24-Apr-2013

 --------------------
 #p B2PLYPD3/Def2QZVP
 --------------------

 ----------
 butane_opt
 ----------
 Symbolic Z-matrix:
 Charge =  0 Multiplicity = 1

                         Standard orientation:
 ---------------------------------------------------------------------
 Center     Atomic      Atomic             Coordinates (Angstroms)
 Number     Number       Type             X           Y           Z
 ---------------------------------------------------------------------
      1          6           0       -1.915592   -0.194003   -0.100483
      2          6           0       -0.424051    0.619520    0.160243
      3          1           0       -2.654690    0.495531   -0.237332
      4          1           0       -2.286232   -0.392476    0.681428
      5          1           0       -2.266279   -1.088036   -1.202745
      6          6           0        0.580200   -0.465656    0.199148
      7          1           0       -0.656910    1.335489    0.950448
      8          1           0       -0.220635    1.109550   -0.661038
      9          6           0        1.893576    0.082745   -0.223227
     10          1           0        0.169385   -0.872399   -0.420400
     11          1           0        0.716619   -1.367385    1.222230
     12          1           0        1.764946    0.692903   -1.043308
     13          1           0        2.738253   -0.795505   -0.148620
     14          1           0        1.890742    0.626694    0.645250
 ---------------------------------------------------------------------

 SCF Done:  E(RB2PLYPD3) =  -157.841916144     A.U. after   11 cycles
 E2(B2PLYPD3) =    -0.2509732881D+00 E(B2PLYPD3) =    -0.15809288943188D+03

 The electronic state is 1-A.
 Alpha  occ. eigenvalues --  -10.61655 -10.60565 -10.59532 -10.59360  -0.94914
 Alpha  occ. eigenvalues --   -0.83903  -0.76243  -0.69578  -0.55961  -0.50109
 Alpha  occ. eigenvalues --   -0.49382  -0.45718  -0.43652  -0.38794  -0.38487
 Alpha  occ. eigenvalues --   -0.37781  -0.36088
 Alpha virt. eigenvalues --    0.04994   0.05789   0.07218   0.08282   0.11144
 Alpha virt. eigenvalues --    0.11745   0.12538   0.13164   0.14228   0.15376
 Alpha virt. eigenvalues --    0.15847   0.16417   0.18655   0.19567   0.21291

 Mulliken charges:
               1
     1  C   -0.213325
     2  C   -0.073575
     3  H    0.031665
     4  H    0.097663
     5  H    0.024293
     6  C   -0.186122
     7  H    0.032959
     8  H    0.082738
     9  C   -0.167795
    10  H    0.198515
    11  H    0.000406
    12  H    0.058490
    13  H    0.040642
    14  H    0.073446
 Sum of Mulliken charges =   0.00000

 Dipole moment (field-independent basis, Debye):
    X=             -0.3221    Y=              0.5800    Z=              0.0140  Tot=              0.6635
 Quadrupole moment (field-independent basis, Debye-Ang):
   XX=            -29.8884   YY=            -29.0507   ZZ=            -28.3633
   XY=             -1.0607   XZ=             -0.5659   YZ=              0.1432

 Normal termination of Gaussian 09 at Wed Aug 26 14:30:19 2020.
