 Gaussian 09, Revision D.01,
 Gaussian 09:  ES64L-G09RevD.01 24-Apr-2013

 --------------------
 #p B2PLYPD3/Def2QZVP
 --------------------

 ----------
 butane_opt
 ----------
 Symbolic Z-matrix:
 Charge =  0 Multiplicity = 1

                         Standard orientation:
 ---------------------------------------------------------------------
 Center     Atomic      Atomic             Coordinates (Angstroms)
 Number     Number       Type             X           Y           Z
 ---------------------------------------------------------------------
      1          6           0       -1.930267   -0.166739    0.112433
      2          6           0       -0.493463    0.502932   -0.231868
      3          1           0       -2.791603    0.581434    0.540828
      4          1           0       -1.963753   -0.845905    1.138894
      5          1           0       -2.340634   -0.853855   -0.808092
      6          6           0        0.653220   -0.405309   -0.087423
      7          1           0       -0.398592    1.042818    0.469337
      8          1           0       -0.338028    1.554091   -1.299302
      9          6           0        1.871960    0.050125    0.185995
     10          1           0        0.712374   -1.204598   -1.147971
     11          1           0        0.207855   -0.828930    0.549756
     12          1           0        1.811060    0.522798   -0.626230
     13          1           0        2.668006   -0.824119   -0.091193
     14          1           0        1.824614    0.970218    1.399149
 ---------------------------------------------------------------------

 SCF Done:  E(RB2PLYPD3) =  -157.762917677     A.U. after   11 cycles
 E2(B2PLYPD3) =    -0.2559514205D+00 E(B2PLYPD3) =    -0.15801886909799D+03

 The electronic state is 1-A.
 Alpha  occ. eigenvalues --  -10.65864 -10.63149 -10.62269 -10.59950  -0.98097
 Alpha  occ. eigenvalues --   -0.85284  -0.73361  -0.68021  -0.55139  -0.50990
 Alpha  occ. eigenvalues --   -0.48032  -0.45949  -0.41303  -0.40834  -0.38546
 Alpha  occ. eigenvalues --   -0.35246  -0.34262
 Alpha virt. eigenvalues --    0.03498   0.04449   0.05270   0.06855   0.10479
 Alpha virt. eigenvalues --    0.11448   0.11636   0.12752   0.13228   0.13287
 Alpha virt. eigenvalues --    0.15283   0.16103   0.18535   0.19291   0.19905

 Mulliken charges:
               1
     1  C   -0.158303
     2  C   -0.140851
     3  H    0.046171
     4  H    0.032062
     5  H    0.056349
     6  C   -0.086243
     7  H    0.156590
     8  H   -0.028589
     9  C   -0.170199
    10  H   -0.011900
    11  H    0.126682
    12  H    0.106506
    13  H    0.064180
    14  H    0.007543
 Sum of Mulliken charges =   0.00000

 Dipole moment (field-independent basis, Debye):
    X=             -0.2575    Y=             -0.3979    Z=              0.4690  Tot=              0.6667
 Quadrupole moment (field-independent basis, Debye-Ang):
   XX=            -30.5825   YY=            -30.4834   ZZ=            -29.3385
   XY=             -0.6059   XZ=             -2.1769   YZ=              1.0902

 Normal termination of Gaussian 09 at Wed Aug 26 14:32:12 2020.
