 Gaussian 09, Revision D.01,
 Gaussian 09:  ES64L-G09RevD.01 24-Apr-2013

 --------------------
 #p B2PLYPD3/Def2QZVP
 --------------------

 ----------
 butane_opt
 ----------
 Symbolic Z-matrix:
 Charge =  0 Multiplicity = 1

                         Standard orientation:
 ---------------------------------------------------------------------
 Center     Atomic      Atomic             Coordinates (Angstroms)
 Number     Number       Type             X           Y           Z
 ---------------------------------------------------------------------
      1          6           0        1.986018   -0.179223   -0.090719
      2          6           0        0.460600    0.568145    0.179369
      3          1           0        2.630196    0.376117   -0.518835
      4          1           0        1.998769   -0.486144   -0.785250
      5          1           0        2.454456   -0.825549    0.802399
      6          6           0       -0.588162   -0.451952    0.084129
      7          1           0        0.389901    1.378512   -0.710431
      8          1           0        0.402887    1.274663    1.093700
      9          6           0       -1.829583    0.075947   -0.102417
     10          1           0       -0.824337   -1.044728    0.948914
     11          1           0       -0.337274   -1.305685   -0.873908
     12          1           0       -1.874703    0.499957    0.739908
     13          1           0       -2.846107   -0.762243   -0.013845
     14          1           0       -2.167027    0.817602   -1.104823
 ---------------------------------------------------------------------

 SCF Done:  E(RB2PLYPD3) =  -157.795409925     A.U. after   12 cycles
 E2(B2PLYPD3) =    -0.2512864430D+00 E(B2PLYPD3) =    -0.15804669636818D+03

 The electronic state is 1-A.
 Alpha  occ. eigenvalues --  -10.64259 -10.61769 -10.61321 -10.57057  -0.95063
 Alpha  occ. eigenvalues --   -0.88499  -0.76021  -0.64746  -0.54810  -0.50820
 Alpha  occ. eigenvalues --   -0.49652  -0.47513  -0.42776  -0.41675  -0.37082
 Alpha  occ. eigenvalues --   -0.35751  -0.35277
 Alpha virt. eigenvalues --    0.05200   0.06514   0.07358   0.07739   0.10365
 Alpha virt. eigenvalues --    0.11024   0.12548   0.12676   0.15010   0.15361
 Alpha virt. eigenvalues --    0.16543   0.16764   0.18719   0.19157   0.20826

 Mulliken charges:
               1
     1  C   -0.403211
     2  C   -0.058010
     3  H    0.043014
     4  H    0.296718
     5  H    0.060208
     6  C   -0.002619
     7  H    0.021070
     8  H    0.038211
     9  C   -0.172703
    10  H    0.059554
    11  H   -0.010246
    12  H    0.092986
    13  H    0.010664
    14  H    0.024364
 Sum of Mulliken charges =   0.00000

 Dipole moment (field-independent basis, Debye):
    X=              0.2499    Y=              0.1962    Z=              0.1464  Tot=              0.3498
 Quadrupole moment (field-independent basis, Debye-Ang):
   XX=            -29.8653   YY=            -29.7302   ZZ=            -27.7579
   XY=             -0.0494   XZ=             -1.6944   YZ=             -0.5823

 Normal termination of Gaussian 09 at Wed Aug 26 23:46:03 2020.
