 Gaussian 09, Revision D.01,
 Gaussian 09:  ES64L-G09RevD.01 24-Apr-2013

 --------------------
 #p B2PLYPD3/Def2QZVP
 --------------------

 ----------
 butane_opt
 ----------
 Symbolic Z-matrix:
 Charge =  0 Multiplicity = 1

                         Standard orientation:
 ---------------------------------------------------------------------
 Center     Atomic      Atomic             Coordinates (Angstroms)
 Number     Number       Type             X           Y           Z
 ---------------------------------------------------------------------
      1          6           0       -2.003807   -0.134796   -0.233427
      2          6           0       -0.536646    0.544815    0.250333
      3          1           0       -2.601275    0.542502   -0.663402
      4          1           0       -2.658868   -1.094676    0.768083
      5          1           0       -1.543816   -0.444314   -0.894399
      6          6           0        0.610376   -0.533579    0.153545
      7          1           0       -0.703203    1.590433    1.425770
      8          1           0       -0.531079    0.635468   -0.356794
      9          6           0        1.951031    0.127407   -0.150019
     10          1           0        0.254872   -0.884870   -0.570662
     11          1           0        0.714054   -1.280390    1.120268
     12          1           0        1.748892    1.133219   -1.259625
     13          1           0        2.885223   -0.809664   -0.383783
     14          1           0        2.309471    0.589215    0.691956
 ---------------------------------------------------------------------

 SCF Done:  E(RB2PLYPD3) =  -157.305507140     A.U. after   12 cycles
 E2(B2PLYPD3) =    -0.2577345036D+00 E(B2PLYPD3) =    -0.15756324164324D+03

 The electronic state is 1-A.
 Alpha  occ. eigenvalues --  -10.66217 -10.63041 -10.62124 -10.61820  -0.98538
 Alpha  occ. eigenvalues --   -0.85580  -0.75767  -0.69756  -0.54355  -0.51436
 Alpha  occ. eigenvalues --   -0.46739  -0.46427  -0.44587  -0.39457  -0.37654
 Alpha  occ. eigenvalues --   -0.36575  -0.33099
 Alpha virt. eigenvalues --    0.03674   0.03943   0.05115   0.06987   0.09314
 Alpha virt. eigenvalues --    0.10044   0.11353   0.11525   0.12804   0.14388
 Alpha virt. eigenvalues --    0.16103   0.16641   0.17340   0.18877   0.19734

 Mulliken charges:
               1
     1  C   -0.288312
     2  C   -0.971181
     3  H    0.077485
     4  H    0.028282
     5  H    0.175520
     6  C   -0.109529
     7  H    0.036576
     8  H    0.866563
     9  C   -0.163134
    10  H    0.173858
    11  H    0.037350
    12  H    0.010015
    13  H    0.034132
    14  H    0.092374
 Sum of Mulliken charges =   0.00000

 Dipole moment (field-independent basis, Debye):
    X=              0.1043    Y=             -0.1513    Z=             -0.2972  Tot=              0.3494
 Quadrupole moment (field-independent basis, Debye-Ang):
   XX=            -30.9247   YY=            -30.2614   ZZ=            -28.4425
   XY=             -1.4287   XZ=              2.0266   YZ=             -0.4567

 Normal termination of Gaussian 09 at Wed Aug 26 12:50:08 2020.
