 Gaussian 09, Revision D.01,
 Gaussian 09:  ES64L-G09RevD.01 24-Apr-2013

 --------------------
 #p B2PLYPD3/Def2QZVP
 --------------------

 ----------
 butane_opt
 ----------
 Symbolic Z-matrix:
 Charge =  0 Multiplicity = 1

                         Standard orientation:
 ---------------------------------------------------------------------
 Center     Atomic      Atomic             Coordinates (Angstroms)
 Number     Number       Type             X           Y           Z
 ---------------------------------------------------------------------
      1          6           0       -1.974811    0.099575   -0.099697
      2          6           0       -0.623323   -0.512729    0.160655
      3          1           0       -2.768466   -0.710636   -0.599646
      4          1           0       -1.852138    0.537237   -0.907693
      5          1           0       -2.226499    0.688278    0.748192
      6          6           0        0.501210    0.616545    0.082074
      7          1           0       -0.494262   -0.977451   -0.550761
      8          1           0       -0.538745   -1.411325    1.229879
      9          6           0        1.997052   -0.177980   -0.094484
     10          1           0        0.276515    1.365803    1.011674
     11          1           0        0.632021    1.343036   -0.992078
     12          1           0        2.398426   -0.392193    0.714823
     13          1           0        2.666641    0.391931    0.138295
     14          1           0        2.505739   -0.987155   -1.083975
 ---------------------------------------------------------------------

 SCF Done:  E(RB2PLYPD3) =  -157.781630079     A.U. after   11 cycles
 E2(B2PLYPD3) =    -0.2532203933D+00 E(B2PLYPD3) =    -0.15803485047201D+03

 The electronic state is 1-A.
 Alpha  occ. eigenvalues --  -10.66733 -10.61004 -10.59659 -10.59091  -0.91501
 Alpha  occ. eigenvalues --   -0.87407  -0.75489  -0.67476  -0.54904  -0.48739
 Alpha  occ. eigenvalues --   -0.46310  -0.45187  -0.42551  -0.39566  -0.37948
 Alpha  occ. eigenvalues --   -0.35517  -0.35287
 Alpha virt. eigenvalues --    0.04913   0.05368   0.06385   0.08083   0.10332
 Alpha virt. eigenvalues --    0.10971   0.12039   0.13504   0.14749   0.14982
 Alpha virt. eigenvalues --    0.16242   0.16503   0.17705   0.18927   0.20430

 Mulliken charges:
               1
     1  C   -0.181680
     2  C   -0.171184
     3  H    0.020806
     4  H    0.099718
     5  H    0.064226
     6  C   -0.099871
     7  H    0.188169
     8  H    0.010119
     9  C   -0.251772
    10  H    0.045546
    11  H    0.030568
    12  H    0.078411
    13  H    0.119482
    14  H    0.047462
 Sum of Mulliken charges =   0.00000

 Dipole moment (field-independent basis, Debye):
    X=              0.4863    Y=              0.3498    Z=             -0.0701  Tot=              0.6031
 Quadrupole moment (field-independent basis, Debye-Ang):
   XX=            -28.6349   YY=            -29.9280   ZZ=            -28.0058
   XY=             -0.0979   XZ=              1.1666   YZ=              1.3767

 Normal termination of Gaussian 09 at Wed Aug 26 13:15:53 2020.
