 Gaussian 09, Revision D.01,
 Gaussian 09:  ES64L-G09RevD.01 24-Apr-2013

 --------------------
 #p B2PLYPD3/Def2QZVP
 --------------------

 ----------
 butane_opt
 ----------
 Symbolic Z-matrix:
 Charge =  0 Multiplicity = 1

                         Standard orientation:
 ---------------------------------------------------------------------
 Center     Atomic      Atomic             Coordinates (Angstroms)
 Number     Number       Type             X           Y           Z
 ---------------------------------------------------------------------
      1          6           0        1.855918    0.069667   -0.238900
      2          6           0        0.584786   -0.476972    0.179671
      3          1           0        2.594539   -0.688440   -0.369878
      4          1           0        2.308804    1.050286    0.886381
      5          1           0        1.781269    0.253204   -0.967115
      6          6           0       -0.453158    0.577590    0.143030
      7          1           0        0.582083   -1.322103    1.372445
      8          1           0        0.326406   -0.815914   -0.385932
      9          6           0       -1.918426   -0.144973   -0.126588
     10          1           0       -0.109916    0.928344   -0.517541
     11          1           0       -0.549054    1.312488    0.957734
     12          1           0       -1.980141   -0.787561   -1.017800
     13          1           0       -2.822224    0.726908   -0.500988
     14          1           0       -2.546490   -0.809083    0.799414
 ---------------------------------------------------------------------

 SCF Done:  E(RB2PLYPD3) =  -157.503421570     A.U. after   12 cycles
 E2(B2PLYPD3) =    -0.2520872485D+00 E(B2PLYPD3) =    -0.15775550881845D+03

 The electronic state is 1-A.
 Alpha  occ. eigenvalues --  -10.65179 -10.60520 -10.59700 -10.59613  -0.99493
 Alpha  occ. eigenvalues --   -0.85464  -0.75367  -0.71972  -0.57367  -0.53244
 Alpha  occ. eigenvalues --   -0.49627  -0.45974  -0.41411  -0.40722  -0.38081
 Alpha  occ. eigenvalues --   -0.37196  -0.35488
 Alpha virt. eigenvalues --    0.03557   0.05473   0.07564   0.08200   0.09274
 Alpha virt. eigenvalues --    0.10888   0.11291   0.12759   0.13830   0.15106
 Alpha virt. eigenvalues --    0.16226   0.17089   0.18788   0.19616   0.20804

 Mulliken charges:
               1
     1  C   -0.405021
     2  C   -0.547070
     3  H    0.064481
     4  H    0.016108
     5  H    0.313240
     6  C   -0.216954
     7  H    0.000051
     8  H    0.524109
     9  C   -0.173514
    10  H    0.252728
    11  H    0.058688
    12  H    0.046529
    13  H    0.014803
    14  H    0.051821
 Sum of Mulliken charges =   0.00000

 Dipole moment (field-independent basis, Debye):
    X=              0.1200    Y=             -0.1349    Z=             -0.9849  Tot=              1.0013
 Quadrupole moment (field-independent basis, Debye-Ang):
   XX=            -30.7422   YY=            -29.7720   ZZ=            -28.0211
   XY=             -0.2970   XZ=             -1.0670   YZ=              0.8816

 Normal termination of Gaussian 09 at Wed Aug 26 19:24:24 2020.
