 Gaussian 09, Revision D.01,
 Gaussian 09:  ES64L-G09RevD.01 24-Apr-2013

 --------------------
 #p B2PLYPD3/Def2QZVP
 --------------------

 ----------
 butane_opt
 ----------
 Symbolic Z-matrix:
 Charge =  0 Multiplicity = 1

                         Standard orientation:
 ---------------------------------------------------------------------
 Center     Atomic      Atomic             Coordinates (Angstroms)
 Number     Number       Type             X           Y           Z
 ---------------------------------------------------------------------
      1          6           0       -1.906271    0.074195   -0.123731
      2          6           0       -0.620937   -0.426692    0.110056
      3          1           0       -2.593148   -0.547582   -0.173557
      4          1           0       -1.898782    0.837044   -1.222064
      5          1           0       -1.836867    0.499853    0.632480
      6          6           0        0.542873    0.468573    0.224592
      7          1           0       -0.295496   -0.922972   -0.839136
      8          1           0       -0.506797   -1.213823    1.075119
      9          6           0        1.926808   -0.165382   -0.202247
     10          1           0        0.445488    1.460552    1.538767
     11          1           0        0.289575    0.923987   -0.408034
     12          1           0        2.297209   -1.173194    0.861045
     13          1           0        2.796846    0.791171   -0.658968
     14          1           0        1.647132   -0.359197   -0.857662
 ---------------------------------------------------------------------

 SCF Done:  E(RB2PLYPD3) =  -157.537446640     A.U. after   12 cycles
 E2(B2PLYPD3) =    -0.2555553494D+00 E(B2PLYPD3) =    -0.15779300198942D+03

 The electronic state is 1-A.
 Alpha  occ. eigenvalues --  -10.64471 -10.62831 -10.62757 -10.58279  -0.98159
 Alpha  occ. eigenvalues --   -0.89785  -0.78100  -0.66457  -0.58462  -0.54960
 Alpha  occ. eigenvalues --   -0.48594  -0.47310  -0.42416  -0.39854  -0.39345
 Alpha  occ. eigenvalues --   -0.35983  -0.32896
 Alpha virt. eigenvalues --    0.02585   0.04983   0.05626   0.07143   0.08863
 Alpha virt. eigenvalues --    0.10058   0.11849   0.12777   0.14200   0.14687
 Alpha virt. eigenvalues --    0.14945   0.16716   0.17113   0.19236   0.19480

 Mulliken charges:
               1
     1  C   -0.188560
     2  C   -0.044707
     3  H    0.067946
     4  H    0.006480
     5  H    0.139726
     6  C   -0.248686
     7  H    0.026010
     8  H    0.011523
     9  C   -0.547296
    10  H   -0.059567
    11  H    0.284522
    12  H    0.057175
    13  H    0.050440
    14  H    0.444992
 Sum of Mulliken charges =   0.00000

 Dipole moment (field-independent basis, Debye):
    X=             -0.5199    Y=             -0.5839    Z=             -0.9298  Tot=              1.2148
 Quadrupole moment (field-independent basis, Debye-Ang):
   XX=            -30.2108   YY=            -31.0347   ZZ=            -28.8120
   XY=              0.6598   XZ=             -0.9087   YZ=             -1.7451

 Normal termination of Gaussian 09 at Wed Aug 26 11:01:21 2020.
