 Gaussian 09, Revision D.01,
 Gaussian 09:  ES64L-G09RevD.01 24-Apr-2013

 --------------------
 #p B2PLYPD3/Def2QZVP
 --------------------

 ----------
 butane_opt
 ----------
 Symbolic Z-matrix:
 Charge =  0 Multiplicity = 1

                         Standard orientation:
 ---------------------------------------------------------------------
 Center     Atomic      Atomic             Coordinates (Angstroms)
 Number     Number       Type             X           Y           Z
 ---------------------------------------------------------------------
      1          6           0        1.860003   -0.087223    0.109585
      2          6           0        0.577946    0.424351   -0.224420
      3          1           0        2.677949    0.666514    0.368641
      4          1           0        2.280292   -0.594953   -0.687878
      5          1           0        1.774006   -0.669408    1.140932
      6          6           0       -0.551174   -0.550029   -0.043811
      7          1           0        0.554389    1.274031   -1.397092
      8          1           0        0.113685    1.150191    0.668631
      9          6           0       -1.875070    0.093913    0.106722
     10          1           0       -0.329134   -1.076543    0.911970
     11          1           0       -0.613345   -1.290235   -0.811164
     12          1           0       -2.243245    1.219526    1.190476
     13          1           0       -2.526252   -0.407621   -0.590290
     14          1           0       -1.758568    0.442417   -0.482681
 ---------------------------------------------------------------------

 SCF Done:  E(RB2PLYPD3) =  -157.670483802     A.U. after   12 cycles
 E2(B2PLYPD3) =    -0.2550792331D+00 E(B2PLYPD3) =    -0.15792556303486D+03

 The electronic state is 1-A.
 Alpha  occ. eigenvalues --  -10.64610 -10.61356 -10.60847 -10.59227  -0.96604
 Alpha  occ. eigenvalues --   -0.88426  -0.75556  -0.64841  -0.54653  -0.50859
 Alpha  occ. eigenvalues --   -0.48673  -0.48001  -0.41144  -0.39585  -0.38520
 Alpha  occ. eigenvalues --   -0.35799  -0.34693
 Alpha virt. eigenvalues --    0.02592   0.05440   0.06060   0.07269   0.09937
 Alpha virt. eigenvalues --    0.10852   0.11639   0.12770   0.13984   0.15580
 Alpha virt. eigenvalues --    0.15657   0.16921   0.17872   0.19411   0.20772

 Mulliken charges:
               1
     1  C   -0.125152
     2  C   -0.075485
     3  H    0.037207
     4  H    0.060907
     5  H    0.037128
     6  C    0.024717
     7  H   -0.006813
     8  H    0.026093
     9  C   -0.707886
    10  H    0.034545
    11  H    0.035486
    12  H    0.045110
    13  H    0.049003
    14  H    0.565139
 Sum of Mulliken charges =   0.00000

 Dipole moment (field-independent basis, Debye):
    X=              0.3564    Y=             -0.1739    Z=             -0.4555  Tot=              0.6040
 Quadrupole moment (field-independent basis, Debye-Ang):
   XX=            -30.4652   YY=            -30.0895   ZZ=            -28.1822
   XY=             -0.6288   XZ=              1.3937   YZ=              1.0040

 Normal termination of Gaussian 09 at Wed Aug 26 10:09:03 2020.
