 Gaussian 09, Revision D.01,
 Gaussian 09:  ES64L-G09RevD.01 24-Apr-2013

 --------------------
 #p B2PLYPD3/Def2QZVP
 --------------------

 ----------
 butane_opt
 ----------
 Symbolic Z-matrix:
 Charge =  0 Multiplicity = 1

                         Standard orientation:
 ---------------------------------------------------------------------
 Center     Atomic      Atomic             Coordinates (Angstroms)
 Number     Number       Type             X           Y           Z
 ---------------------------------------------------------------------
      1          6           0        1.997527   -0.133997   -0.022624
      2          6           0        0.553935    0.589710    0.046814
      3          1           0        2.654438    0.467198   -0.225417
      4          1           0        2.049885   -0.905343   -0.922593
      5          1           0        2.396036   -0.638844    0.771420
      6          6           0       -0.571765   -0.508578    0.109552
      7          1           0        0.338567    1.297614   -0.899857
      8          1           0        0.404281    1.228590    0.903969
      9          6           0       -1.936108    0.090191   -0.085154
     10          1           0       -0.475354   -1.204440    1.012519
     11          1           0       -0.509224   -1.199010   -0.707682
     12          1           0       -2.378735    0.900170    0.865188
     13          1           0       -2.857116   -0.819707   -0.215282
     14          1           0       -1.884314    0.649815   -0.873800
 ---------------------------------------------------------------------

 SCF Done:  E(RB2PLYPD3) =  -158.019353827     A.U. after   11 cycles
 E2(B2PLYPD3) =    -0.2483752862D+00 E(B2PLYPD3) =    -0.15826772911309D+03

 The electronic state is 1-A.
 Alpha  occ. eigenvalues --  -10.63149 -10.62640 -10.61183 -10.58869  -0.90235
 Alpha  occ. eigenvalues --   -0.83499  -0.73403  -0.66800  -0.52580  -0.49991
 Alpha  occ. eigenvalues --   -0.47865  -0.45802  -0.44037  -0.40288  -0.39797
 Alpha  occ. eigenvalues --   -0.37352  -0.36104
 Alpha virt. eigenvalues --    0.05387   0.06445   0.07763   0.08819   0.10402
 Alpha virt. eigenvalues --    0.11252   0.12764   0.13746   0.14770   0.15224
 Alpha virt. eigenvalues --    0.15973   0.16142   0.19484   0.19729   0.21161

 Mulliken charges:
               1
     1  C   -0.147578
     2  C   -0.070429
     3  H    0.075377
     4  H    0.020152
     5  H    0.043703
     6  C   -0.011416
     7  H    0.016596
     8  H    0.055496
     9  C   -0.175227
    10  H    0.028783
    11  H    0.041069
    12  H    0.008171
    13  H    0.026720
    14  H    0.088583
 Sum of Mulliken charges =   0.00000

 Dipole moment (field-independent basis, Debye):
    X=              0.5278    Y=              0.0222    Z=             -0.1460  Tot=              0.5481
 Quadrupole moment (field-independent basis, Debye-Ang):
   XX=            -29.9198   YY=            -28.7640   ZZ=            -28.7606
   XY=              0.2087   XZ=              0.7465   YZ=             -0.0976

 Normal termination of Gaussian 09 at Wed Aug 26 21:01:03 2020.
