 Gaussian 09, Revision D.01,
 Gaussian 09:  ES64L-G09RevD.01 24-Apr-2013

 --------------------
 #p B2PLYPD3/Def2QZVP
 --------------------

 ----------
 butane_opt
 ----------
 Symbolic Z-matrix:
 Charge =  0 Multiplicity = 1

                         Standard orientation:
 ---------------------------------------------------------------------
 Center     Atomic      Atomic             Coordinates (Angstroms)
 Number     Number       Type             X           Y           Z
 ---------------------------------------------------------------------
      1          6           0        1.907561    0.041272   -0.187773
      2          6           0        0.571253   -0.399115    0.337939
      3          1           0        2.733262   -0.656169   -0.616910
      4          1           0        2.443427    0.816727    0.672031
      5          1           0        1.507548    0.539894   -1.100995
      6          6           0       -0.550646    0.584106    0.142445
      7          1           0        0.645934   -1.081173    1.331927
      8          1           0        0.179999   -1.288490   -0.608625
      9          6           0       -1.886204   -0.178171   -0.203890
     10          1           0       -0.311926    1.040666   -0.878805
     11          1           0       -0.572108    1.298947    1.005444
     12          1           0       -1.910644   -0.732720   -0.959655
     13          1           0       -2.617000    0.527433   -0.148100
     14          1           0       -2.350279   -0.753669    0.771362
 ---------------------------------------------------------------------

 SCF Done:  E(RB2PLYPD3) =  -158.002332195     A.U. after   11 cycles
 E2(B2PLYPD3) =    -0.2519817815D+00 E(B2PLYPD3) =    -0.15825431397651D+03

 The electronic state is 1-A.
 Alpha  occ. eigenvalues --  -10.64297 -10.62860 -10.62752 -10.59323  -0.91456
 Alpha  occ. eigenvalues --   -0.83205  -0.73111  -0.63642  -0.55543  -0.49744
 Alpha  occ. eigenvalues --   -0.49019  -0.46800  -0.43769  -0.39263  -0.38497
 Alpha  occ. eigenvalues --   -0.37206  -0.33260
 Alpha virt. eigenvalues --    0.05299   0.06600   0.07491   0.07834   0.10090
 Alpha virt. eigenvalues --    0.10842   0.12032   0.13028   0.14428   0.15324
 Alpha virt. eigenvalues --    0.16225   0.16489   0.18942   0.19770   0.20580

 Mulliken charges:
               1
     1  C   -0.152330
     2  C   -0.050311
     3  H    0.059815
     4  H    0.020717
     5  H    0.052091
     6  C   -0.040273
     7  H    0.044266
     8  H   -0.020548
     9  C   -0.134936
    10  H    0.046917
    11  H    0.044886
    12  H    0.079685
    13  H    0.044629
    14  H    0.005392
 Sum of Mulliken charges =   0.00000

 Dipole moment (field-independent basis, Debye):
    X=             -0.2502    Y=              0.2480    Z=             -0.1086  Tot=              0.3686
 Quadrupole moment (field-independent basis, Debye-Ang):
   XX=            -29.8035   YY=            -30.6280   ZZ=            -28.1644
   XY=             -0.7866   XZ=              0.1162   YZ=              0.6531

 Normal termination of Gaussian 09 at Wed Aug 26 15:43:44 2020.
