 Gaussian 09, Revision D.01,
 Gaussian 09:  ES64L-G09RevD.01 24-Apr-2013

 --------------------
 #p B2PLYPD3/Def2QZVP
 --------------------

 ----------
 butane_opt
 ----------
 Symbolic Z-matrix:
 Charge =  0 Multiplicity = 1

                         Standard orientation:
 ---------------------------------------------------------------------
 Center     Atomic      Atomic             Coordinates (Angstroms)
 Number     Number       Type             X           Y           Z
 ---------------------------------------------------------------------
      1          6           0       -1.931881    0.133312    0.107199
      2          6           0       -0.467821   -0.520837   -0.190934
      3          1           0       -2.594817   -0.699212    0.810986
      4          1           0       -2.656265    1.049256   -0.929395
      5          1           0       -2.036118    0.520384    0.731681
      6          6           0        0.563116    0.430409   -0.134244
      7          1           0       -0.645369   -1.184381   -0.971719
      8          1           0       -0.281292   -1.036571    0.690399
      9          6           0        1.916747   -0.083281    0.079352
     10          1           0        0.525939    1.342154    0.981929
     11          1           0        0.411046    0.898630   -0.932125
     12          1           0        1.838502   -0.742100    1.057998
     13          1           0        2.865217    0.847572    0.173021
     14          1           0        2.092189   -0.753348   -0.781012
 ---------------------------------------------------------------------

 SCF Done:  E(RB2PLYPD3) =  -157.727033141     A.U. after   11 cycles
 E2(B2PLYPD3) =    -0.2538100468D+00 E(B2PLYPD3) =    -0.15798084318772D+03

 The electronic state is 1-A.
 Alpha  occ. eigenvalues --  -10.63707 -10.62695 -10.61441 -10.61026  -0.95146
 Alpha  occ. eigenvalues --   -0.85073  -0.76645  -0.68136  -0.57167  -0.50503
 Alpha  occ. eigenvalues --   -0.48547  -0.45675  -0.42694  -0.40859  -0.37390
 Alpha  occ. eigenvalues --   -0.36683  -0.33605
 Alpha virt. eigenvalues --    0.03386   0.04102   0.06894   0.07725   0.09764
 Alpha virt. eigenvalues --    0.09915   0.11690   0.12425   0.13328   0.15280
 Alpha virt. eigenvalues --    0.15770   0.16064   0.18882   0.19391   0.20232

 Mulliken charges:
               1
     1  C   -0.484441
     2  C   -0.035295
     3  H    0.009114
     4  H    0.016469
     5  H    0.372074
     6  C   -0.030433
     7  H    0.060961
     8  H    0.049300
     9  C   -0.154890
    10  H   -0.026960
    11  H    0.082205
    12  H    0.047662
    13  H    0.044630
    14  H    0.049603
 Sum of Mulliken charges =   0.00000

 Dipole moment (field-independent basis, Debye):
    X=              0.4727    Y=             -0.3392    Z=              0.0866  Tot=              0.5883
 Quadrupole moment (field-independent basis, Debye-Ang):
   XX=            -32.6034   YY=            -29.9897   ZZ=            -28.1057
   XY=             -0.0887   XZ=             -1.2453   YZ=             -0.2541

 Normal termination of Gaussian 09 at Wed Aug 26 22:18:31 2020.
