 Gaussian 09, Revision D.01,
 Gaussian 09:  ES64L-G09RevD.01 24-Apr-2013

 --------------------
 #p B2PLYPD3/Def2QZVP
 --------------------

 ----------
 butane_opt
 ----------
 Symbolic Z-matrix:
 Charge =  0 Multiplicity = 1

                         Standard orientation:
 ---------------------------------------------------------------------
 Center     Atomic      Atomic             Coordinates (Angstroms)
 Number     Number       Type             X           Y           Z
 ---------------------------------------------------------------------
      1          6           0        1.947289   -0.136818   -0.083908
      2          6           0        0.550714    0.504900    0.124283
      3          1           0        2.729086    0.713145   -0.165966
      4          1           0        2.038519   -0.763235   -0.973447
      5          1           0        2.116463   -0.567827    0.569967
      6          6           0       -0.531093   -0.543499    0.132598
      7          1           0        0.381960    1.105551   -0.753997
      8          1           0        0.560037    1.247515    1.055239
      9          6           0       -1.959508    0.116209   -0.135719
     10          1           0       -0.603346   -1.353887    1.166741
     11          1           0       -0.269090   -1.017203   -0.651735
     12          1           0       -2.320847    0.875619    0.814412
     13          1           0       -2.717685   -0.558115   -0.297874
     14          1           0       -1.959508    0.673686   -0.986866
 ---------------------------------------------------------------------

 SCF Done:  E(RB2PLYPD3) =  -157.962458126     A.U. after   11 cycles
 E2(B2PLYPD3) =    -0.2471116939D+00 E(B2PLYPD3) =    -0.15820956982001D+03

 The electronic state is 1-A.
 Alpha  occ. eigenvalues --  -10.61722 -10.61379 -10.60472 -10.57326  -0.91874
 Alpha  occ. eigenvalues --   -0.83965  -0.75065  -0.66913  -0.54627  -0.49986
 Alpha  occ. eigenvalues --   -0.48962  -0.46831  -0.43617  -0.41206  -0.38446
 Alpha  occ. eigenvalues --   -0.38249  -0.36928
 Alpha virt. eigenvalues --    0.05646   0.06800   0.07765   0.08571   0.10878
 Alpha virt. eigenvalues --    0.12034   0.12912   0.13542   0.14856   0.15265
 Alpha virt. eigenvalues --    0.15999   0.16503   0.19371   0.20065   0.21989

 Mulliken charges:
               1
     1  C   -0.315450
     2  C   -0.025035
     3  H    0.035214
     4  H    0.035074
     5  H    0.218495
     6  C   -0.108351
     7  H    0.047735
     8  H    0.021677
     9  C   -0.136413
    10  H    0.008421
    11  H    0.096270
    12  H    0.022985
    13  H    0.049502
    14  H    0.049876
 Sum of Mulliken charges =   0.00000

 Dipole moment (field-independent basis, Debye):
    X=              0.0984    Y=             -0.1387    Z=             -0.4292  Tot=              0.4616
 Quadrupole moment (field-independent basis, Debye-Ang):
   XX=            -29.5087   YY=            -29.0427   ZZ=            -28.0498
   XY=              0.1337   XZ=              0.5957   YZ=              0.1349

 Normal termination of Gaussian 09 at Wed Aug 26 22:00:35 2020.
