 Gaussian 09, Revision D.01,
 Gaussian 09:  ES64L-G09RevD.01 24-Apr-2013

 --------------------
 #p B2PLYPD3/Def2QZVP
 --------------------

 ----------
 butane_opt
 ----------
 Symbolic Z-matrix:
 Charge =  0 Multiplicity = 1

                         Standard orientation:
 ---------------------------------------------------------------------
 Center     Atomic      Atomic             Coordinates (Angstroms)
 Number     Number       Type             X           Y           Z
 ---------------------------------------------------------------------
      1          6           0        2.045041   -0.163236   -0.123000
      2          6           0        0.596358    0.603515    0.190778
      3          1           0        2.674832    0.383083   -0.732481
      4          1           0        1.751398   -1.025821   -1.054091
      5          1           0        2.666310   -0.754905    0.852476
      6          6           0       -0.661331   -0.447690    0.278569
      7          1           0        0.327009    1.205648   -0.652102
      8          1           0        0.533779    1.468003    1.057437
      9          6           0       -1.986786    0.117830   -0.244492
     10          1           0       -0.926054   -1.156117    1.340587
     11          1           0       -0.148183   -1.153561   -0.539994
     12          1           0       -2.351005    0.742627    0.494617
     13          1           0       -2.890177   -0.765490   -0.249229
     14          1           0       -1.597601    0.394017   -1.128351
 ---------------------------------------------------------------------

 SCF Done:  E(RB2PLYPD3) =  -157.972944123     A.U. after   11 cycles
 E2(B2PLYPD3) =    -0.2539271327D+00 E(B2PLYPD3) =    -0.15822687125554D+03

 The electronic state is 1-A.
 Alpha  occ. eigenvalues --  -10.65310 -10.64669 -10.64361 -10.60652  -0.89128
 Alpha  occ. eigenvalues --   -0.81626  -0.71702  -0.64117  -0.54822  -0.48535
 Alpha  occ. eigenvalues --   -0.47276  -0.45576  -0.41108  -0.39349  -0.38301
 Alpha  occ. eigenvalues --   -0.36626  -0.34941
 Alpha virt. eigenvalues --    0.04959   0.05830   0.07632   0.08131   0.10343
 Alpha virt. eigenvalues --    0.11226   0.11763   0.12145   0.13998   0.14938
 Alpha virt. eigenvalues --    0.15981   0.16333   0.18403   0.18758   0.20270

 Mulliken charges:
               1
     1  C   -0.164473
     2  C   -0.044663
     3  H    0.075179
     4  H    0.011165
     5  H    0.061043
     6  C   -0.077055
     7  H    0.047961
     8  H    0.021095
     9  C   -0.147450
    10  H    0.018589
    11  H    0.037754
    12  H    0.065907
    13  H    0.024351
    14  H    0.070596
 Sum of Mulliken charges =   0.00000

 Dipole moment (field-independent basis, Debye):
    X=              0.1206    Y=              0.4100    Z=             -0.2993  Tot=              0.5218
 Quadrupole moment (field-independent basis, Debye-Ang):
   XX=            -29.4394   YY=            -30.3812   ZZ=            -29.0701
   XY=              0.0912   XZ=             -1.3275   YZ=             -0.2161

 Normal termination of Gaussian 09 at Wed Aug 26 21:48:54 2020.
