 Gaussian 09, Revision D.01,
 Gaussian 09:  ES64L-G09RevD.01 24-Apr-2013

 --------------------
 #p B2PLYPD3/Def2QZVP
 --------------------

 ----------
 butane_opt
 ----------
 Symbolic Z-matrix:
 Charge =  0 Multiplicity = 1

                         Standard orientation:
 ---------------------------------------------------------------------
 Center     Atomic      Atomic             Coordinates (Angstroms)
 Number     Number       Type             X           Y           Z
 ---------------------------------------------------------------------
      1          6           0       -1.951679    0.095185    0.101123
      2          6           0       -0.565993   -0.515549   -0.086977
      3          1           0       -2.728822   -0.677210    0.024608
      4          1           0       -2.072092    0.634603   -0.811104
      5          1           0       -1.964449    0.915403    1.137482
      6          6           0        0.562446    0.570847   -0.171186
      7          1           0       -0.575247   -1.173725   -0.930915
      8          1           0       -0.232813   -1.085347    0.781368
      9          6           0        1.930170   -0.136010    0.119851
     10          1           0        0.402846    1.121237    0.674357
     11          1           0        0.481505    1.125283   -1.060429
     12          1           0        1.854396   -0.748353    0.962257
     13          1           0        2.668551    0.580826    0.241043
     14          1           0        2.316461   -0.779557   -0.795530
 ---------------------------------------------------------------------

 SCF Done:  E(RB2PLYPD3) =  -158.080982400     A.U. after   11 cycles
 E2(B2PLYPD3) =    -0.2472975164D+00 E(B2PLYPD3) =    -0.15832827991621D+03

 The electronic state is 1-A.
 Alpha  occ. eigenvalues --  -10.61829 -10.60057 -10.59750 -10.59559  -0.90873
 Alpha  occ. eigenvalues --   -0.82759  -0.72451  -0.66808  -0.55009  -0.48981
 Alpha  occ. eigenvalues --   -0.48593  -0.46900  -0.43463  -0.40490  -0.38714
 Alpha  occ. eigenvalues --   -0.38133  -0.36663
 Alpha virt. eigenvalues --    0.05571   0.06746   0.08401   0.08690   0.10913
 Alpha virt. eigenvalues --    0.12054   0.12543   0.13957   0.14527   0.15320
 Alpha virt. eigenvalues --    0.15579   0.16331   0.19403   0.19633   0.22016

 Mulliken charges:
               1
     1  C   -0.166066
     2  C   -0.039314
     3  H    0.052765
     4  H    0.052653
     5  H    0.024409
     6  C   -0.076433
     7  H    0.037502
     8  H    0.032243
     9  C   -0.143187
    10  H    0.059162
    11  H    0.040617
    12  H    0.057441
    13  H    0.047394
    14  H    0.020814
 Sum of Mulliken charges =   0.00000

 Dipole moment (field-independent basis, Debye):
    X=              0.0857    Y=              0.0023    Z=             -0.1501  Tot=              0.1729
 Quadrupole moment (field-independent basis, Debye-Ang):
   XX=            -30.2102   YY=            -29.1204   ZZ=            -27.9295
   XY=              0.8130   XZ=              0.9319   YZ=              0.1693

 Normal termination of Gaussian 09 at Wed Aug 26 12:53:40 2020.
