 Gaussian 09, Revision D.01,
 Gaussian 09:  ES64L-G09RevD.01 24-Apr-2013

 --------------------
 #p B2PLYPD3/Def2QZVP
 --------------------

 ----------
 butane_opt
 ----------
 Symbolic Z-matrix:
 Charge =  0 Multiplicity = 1

                         Standard orientation:
 ---------------------------------------------------------------------
 Center     Atomic      Atomic             Coordinates (Angstroms)
 Number     Number       Type             X           Y           Z
 ---------------------------------------------------------------------
      1          6           0        1.938242   -0.188493   -0.096331
      2          6           0        0.517098    0.530315    0.180963
      3          1           0        2.714166    0.553789   -0.604599
      4          1           0        1.820616   -0.776335   -0.993077
      5          1           0        2.470012   -0.946863    0.864359
      6          6           0       -0.592366   -0.364535   -0.016454
      7          1           0        0.548155    1.022988   -0.555367
      8          1           0        0.502394    1.511638    1.343459
      9          6           0       -1.893516    0.095558   -0.062822
     10          1           0       -0.581786   -1.386572    0.955933
     11          1           0       -0.414740   -0.773005   -0.634124
     12          1           0       -1.878205    0.325451    0.743843
     13          1           0       -2.905077   -1.004230   -0.010893
     14          1           0       -2.092283    1.036071   -1.141673
 ---------------------------------------------------------------------

 SCF Done:  E(RB2PLYPD3) =  -157.615684212     A.U. after   12 cycles
 E2(B2PLYPD3) =    -0.2553395605D+00 E(B2PLYPD3) =    -0.15787102377237D+03

 The electronic state is 1-A.
 Alpha  occ. eigenvalues --  -10.64876 -10.63593 -10.63312 -10.59728  -0.98043
 Alpha  occ. eigenvalues --   -0.86034  -0.75165  -0.70213  -0.56207  -0.49163
 Alpha  occ. eigenvalues --   -0.48057  -0.47036  -0.41715  -0.40898  -0.38639
 Alpha  occ. eigenvalues --   -0.36610  -0.33418
 Alpha virt. eigenvalues --    0.03154   0.04646   0.05240   0.06140   0.09675
 Alpha virt. eigenvalues --    0.10123   0.11560   0.12440   0.13413   0.14664
 Alpha virt. eigenvalues --    0.15254   0.15746   0.18037   0.19140   0.20060

 Mulliken charges:
               1
     1  C   -0.155698
     2  C   -0.138935
     3  H    0.039727
     4  H    0.057570
     5  H    0.046606
     6  C   -0.333334
     7  H    0.177626
     8  H   -0.002462
     9  C   -0.264405
    10  H   -0.017147
    11  H    0.334318
    12  H    0.208543
    13  H    0.019114
    14  H    0.028477
 Sum of Mulliken charges =   0.00000

 Dipole moment (field-independent basis, Debye):
    X=              0.4990    Y=              0.0321    Z=             -0.8195  Tot=              0.9600
 Quadrupole moment (field-independent basis, Debye-Ang):
   XX=            -31.8798   YY=            -30.3407   ZZ=            -28.6795
   XY=              0.1163   XZ=             -1.3177   YZ=             -0.6186

 Normal termination of Gaussian 09 at Wed Aug 26 20:52:02 2020.
