 Gaussian 09, Revision D.01,
 Gaussian 09:  ES64L-G09RevD.01 24-Apr-2013

 --------------------
 #p B2PLYPD3/Def2QZVP
 --------------------

 ----------
 butane_opt
 ----------
 Symbolic Z-matrix:
 Charge =  0 Multiplicity = 1

                         Standard orientation:
 ---------------------------------------------------------------------
 Center     Atomic      Atomic             Coordinates (Angstroms)
 Number     Number       Type             X           Y           Z
 ---------------------------------------------------------------------
      1          6           0        1.994544    0.027094   -0.239424
      2          6           0        0.604126   -0.388834    0.268064
      3          1           0        2.731881   -0.851326   -0.432649
      4          1           0        2.350672    0.739613    0.629383
      5          1           0        1.795618    0.440367   -1.098443
      6          6           0       -0.551770    0.612243    0.052004
      7          1           0        0.549603   -1.275488    1.725095
      8          1           0        0.371694   -0.882007   -0.382922
      9          6           0       -2.019109   -0.125584   -0.117260
     10          1           0       -0.515740    1.008736   -0.707182
     11          1           0       -0.293090    1.533361    1.014000
     12          1           0       -2.423696   -1.300693   -1.058044
     13          1           0       -2.560267    0.307990   -0.091117
     14          1           0       -2.173415   -0.470067    0.621574
 ---------------------------------------------------------------------

 SCF Done:  E(RB2PLYPD3) =  -157.457874324     A.U. after   12 cycles
 E2(B2PLYPD3) =    -0.2533128295D+00 E(B2PLYPD3) =    -0.15771118715303D+03

 The electronic state is 1-A.
 Alpha  occ. eigenvalues --  -10.63126 -10.62860 -10.61530 -10.58427  -0.94320
 Alpha  occ. eigenvalues --   -0.89229  -0.78863  -0.69567  -0.55252  -0.53243
 Alpha  occ. eigenvalues --   -0.49824  -0.46270  -0.44110  -0.40093  -0.38931
 Alpha  occ. eigenvalues --   -0.35619  -0.34173
 Alpha virt. eigenvalues --    0.02180   0.03274   0.06170   0.07851   0.10509
 Alpha virt. eigenvalues --    0.10931   0.11770   0.12713   0.14214   0.15231
 Alpha virt. eigenvalues --    0.15509   0.16408   0.17565   0.18420   0.20747

 Mulliken charges:
               1
     1  C   -0.154673
     2  C   -0.237637
     3  H    0.052597
     4  H    0.050898
     5  H    0.077563
     6  C   -0.167174
     7  H   -0.035567
     8  H    0.245272
     9  C   -0.564145
    10  H    0.180390
    11  H    0.017389
    12  H    0.013236
    13  H    0.373785
    14  H    0.148066
 Sum of Mulliken charges =   0.00000

 Dipole moment (field-independent basis, Debye):
    X=             -0.1433    Y=              0.4098    Z=             -0.7128  Tot=              0.8346
 Quadrupole moment (field-independent basis, Debye-Ang):
   XX=            -28.4793   YY=            -29.9434   ZZ=            -29.0688
   XY=             -0.2797   XZ=             -1.2557   YZ=              0.7415

 Normal termination of Gaussian 09 at Wed Aug 26 11:17:04 2020.
