 Gaussian 09, Revision D.01,
 Gaussian 09:  ES64L-G09RevD.01 24-Apr-2013

 --------------------
 #p B2PLYPD3/Def2QZVP
 --------------------

 ----------
 butane_opt
 ----------
 Symbolic Z-matrix:
 Charge =  0 Multiplicity = 1

                         Standard orientation:
 ---------------------------------------------------------------------
 Center     Atomic      Atomic             Coordinates (Angstroms)
 Number     Number       Type             X           Y           Z
 ---------------------------------------------------------------------
      1          6           0       -1.917031    0.078258    0.071060
      2          6           0       -0.575199   -0.466906   -0.097940
      3          1           0       -2.773931   -0.857377   -0.075714
      4          1           0       -1.842736    0.561887   -0.641480
      5          1           0       -2.124029    0.991084    1.130029
      6          6           0        0.549187    0.570642   -0.088306
      7          1           0       -0.616898   -1.202939   -1.045227
      8          1           0       -0.394998   -0.943742    0.659137
      9          6           0        1.936321   -0.162744    0.082482
     10          1           0        0.211456    1.216107    0.799462
     11          1           0        0.477475    1.075706   -0.955494
     12          1           0        2.290384   -1.167659    1.154431
     13          1           0        2.750514    0.602095   -0.307038
     14          1           0        2.063094   -0.390659   -0.521879
 ---------------------------------------------------------------------

 SCF Done:  E(RB2PLYPD3) =  -157.552539867     A.U. after   11 cycles
 E2(B2PLYPD3) =    -0.2521173505D+00 E(B2PLYPD3) =    -0.15780465721794D+03

 The electronic state is 1-A.
 Alpha  occ. eigenvalues --  -10.61451 -10.61297 -10.61215 -10.58868  -0.94532
 Alpha  occ. eigenvalues --   -0.88743  -0.76694  -0.68718  -0.54826  -0.49754
 Alpha  occ. eigenvalues --   -0.48809  -0.45894  -0.41473  -0.40267  -0.38799
 Alpha  occ. eigenvalues --   -0.37831  -0.35740
 Alpha virt. eigenvalues --    0.04016   0.05354   0.06852   0.07531   0.10396
 Alpha virt. eigenvalues --    0.10955   0.11700   0.12948   0.14193   0.15395
 Alpha virt. eigenvalues --    0.15654   0.16218   0.18473   0.18968   0.21090

 Mulliken charges:
               1
     1  C   -0.275886
     2  C   -0.072386
     3  H    0.045736
     4  H    0.176703
     5  H    0.010150
     6  C   -0.007856
     7  H    0.007408
     8  H    0.101571
     9  C   -0.728127
    10  H    0.040541
    11  H    0.051190
    12  H    0.060370
    13  H    0.041488
    14  H    0.549098
 Sum of Mulliken charges =   0.00000

 Dipole moment (field-independent basis, Debye):
    X=              0.2250    Y=             -0.2043    Z=             -0.7798  Tot=              0.8369
 Quadrupole moment (field-independent basis, Debye-Ang):
   XX=            -31.2866   YY=            -28.9420   ZZ=            -28.0179
   XY=             -0.0780   XZ=             -0.6820   YZ=             -0.6322

 Normal termination of Gaussian 09 at Wed Aug 26 22:30:54 2020.
