 Gaussian 09, Revision D.01,
 Gaussian 09:  ES64L-G09RevD.01 24-Apr-2013

 --------------------
 #p B2PLYPD3/Def2QZVP
 --------------------

 ----------
 butane_opt
 ----------
 Symbolic Z-matrix:
 Charge =  0 Multiplicity = 1

                         Standard orientation:
 ---------------------------------------------------------------------
 Center     Atomic      Atomic             Coordinates (Angstroms)
 Number     Number       Type             X           Y           Z
 ---------------------------------------------------------------------
      1          6           0        1.851003    0.061123   -0.117181
      2          6           0        0.587577   -0.417278    0.047985
      3          1           0        2.780882   -0.754894    0.221929
      4          1           0        1.796343    0.250613    0.457064
      5          1           0        2.002321    1.092128   -1.200770
      6          6           0       -0.458055    0.495526    0.226811
      7          1           0        0.686267   -1.247821    1.086432
      8          1           0        0.485167   -0.767604   -0.735533
      9          6           0       -1.951287   -0.176274   -0.173615
     10          1           0       -0.154557    1.030060   -0.534364
     11          1           0       -0.534319    1.526875    1.409154
     12          1           0       -1.871959   -0.752267   -0.880812
     13          1           0       -2.731741    0.630958   -0.415146
     14          1           0       -2.633839   -0.786633    0.688049
 ---------------------------------------------------------------------

 SCF Done:  E(RB2PLYPD3) =  -157.309727238     A.U. after   12 cycles
 E2(B2PLYPD3) =    -0.2555879114D+00 E(B2PLYPD3) =    -0.15756531514980D+03

 The electronic state is 1-A.
 Alpha  occ. eigenvalues --  -10.64540 -10.62167 -10.60619 -10.60044  -1.01989
 Alpha  occ. eigenvalues --   -0.87216  -0.77911  -0.69430  -0.56553  -0.50946
 Alpha  occ. eigenvalues --   -0.49570  -0.45110  -0.43073  -0.41024  -0.39630
 Alpha  occ. eigenvalues --   -0.35013  -0.34132
 Alpha virt. eigenvalues --    0.03636   0.04386   0.05847   0.06478   0.10181
 Alpha virt. eigenvalues --    0.11015   0.11615   0.13221   0.13996   0.14421
 Alpha virt. eigenvalues --    0.14788   0.16273   0.17541   0.20276   0.20907

 Mulliken charges:
               1
     1  C   -0.886810
     2  C   -0.092295
     3  H    0.082741
     4  H    0.691692
     5  H    0.029991
     6  C   -0.096760
     7  H   -0.008276
     8  H    0.183780
     9  C   -0.172711
    10  H    0.100773
    11  H   -0.010696
    12  H    0.109355
    13  H    0.040818
    14  H    0.028400
 Sum of Mulliken charges =   0.00000

 Dipole moment (field-independent basis, Debye):
    X=             -0.1683    Y=             -0.2618    Z=             -0.4772  Tot=              0.5697
 Quadrupole moment (field-independent basis, Debye-Ang):
   XX=            -29.7104   YY=            -30.0978   ZZ=            -28.7434
   XY=             -0.2498   XZ=              1.2493   YZ=             -0.5729

 Normal termination of Gaussian 09 at Wed Aug 26 13:04:17 2020.
