 Gaussian 09, Revision D.01,
 Gaussian 09:  ES64L-G09RevD.01 24-Apr-2013

 --------------------
 #p B2PLYPD3/Def2QZVP
 --------------------

 ----------
 butane_opt
 ----------
 Symbolic Z-matrix:
 Charge =  0 Multiplicity = 1

                         Standard orientation:
 ---------------------------------------------------------------------
 Center     Atomic      Atomic             Coordinates (Angstroms)
 Number     Number       Type             X           Y           Z
 ---------------------------------------------------------------------
      1          6           0        2.001698   -0.149740   -0.105221
      2          6           0        0.598498    0.513440    0.053938
      3          1           0        2.744272    0.461506   -0.110884
      4          1           0        1.903577   -0.956091   -1.001302
      5          1           0        2.486012   -0.582076    0.644928
      6          6           0       -0.623319   -0.401484    0.237675
      7          1           0        0.257832    1.142900   -0.751445
      8          1           0        0.459773    1.316323    0.872783
      9          6           0       -1.926081    0.100062   -0.170353
     10          1           0       -0.878307   -1.343339    1.495136
     11          1           0       -0.262253   -0.975028   -0.500795
     12          1           0       -2.401979    1.153293    0.677661
     13          1           0       -2.867774   -0.902669   -0.638310
     14          1           0       -1.745928    0.311514   -0.784005
 ---------------------------------------------------------------------

 SCF Done:  E(RB2PLYPD3) =  -157.600910639     A.U. after   12 cycles
 E2(B2PLYPD3) =    -0.2543532007D+00 E(B2PLYPD3) =    -0.15785526384002D+03

 The electronic state is 1-A.
 Alpha  occ. eigenvalues --  -10.63841 -10.63417 -10.62698 -10.60488  -0.95433
 Alpha  occ. eigenvalues --   -0.87319  -0.78042  -0.67072  -0.56025  -0.50543
 Alpha  occ. eigenvalues --   -0.49204  -0.47145  -0.42192  -0.41792  -0.39538
 Alpha  occ. eigenvalues --   -0.34523  -0.33435
 Alpha virt. eigenvalues --    0.02941   0.05787   0.06006   0.07591   0.09652
 Alpha virt. eigenvalues --    0.09754   0.11748   0.13469   0.14213   0.14937
 Alpha virt. eigenvalues --    0.15319   0.16249   0.18272   0.18908   0.20300

 Mulliken charges:
               1
     1  C   -0.113031
     2  C   -0.034247
     3  H    0.049502
     4  H    0.028710
     5  H    0.043500
     6  C   -0.014406
     7  H    0.046145
     8  H    0.016052
     9  C   -0.704048
    10  H   -0.026964
    11  H    0.078358
    12  H    0.043296
    13  H    0.040943
    14  H    0.546190
 Sum of Mulliken charges =   0.00000

 Dipole moment (field-independent basis, Debye):
    X=              1.0044    Y=              0.5608    Z=             -0.8568  Tot=              1.4344
 Quadrupole moment (field-independent basis, Debye-Ang):
   XX=            -29.0827   YY=            -29.9794   ZZ=            -29.8002
   XY=             -0.3506   XZ=              1.4607   YZ=              1.2601

 Normal termination of Gaussian 09 at Wed Aug 26 23:12:10 2020.
