 Gaussian 09, Revision D.01,
 Gaussian 09:  ES64L-G09RevD.01 24-Apr-2013

 --------------------
 #p B2PLYPD3/Def2QZVP
 --------------------

 ----------
 butane_opt
 ----------
 Symbolic Z-matrix:
 Charge =  0 Multiplicity = 1

                         Standard orientation:
 ---------------------------------------------------------------------
 Center     Atomic      Atomic             Coordinates (Angstroms)
 Number     Number       Type             X           Y           Z
 ---------------------------------------------------------------------
      1          6           0       -1.857622   -0.113895    0.148476
      2          6           0       -0.590443    0.453046   -0.231093
      3          1           0       -2.548087    0.641106    0.012829
      4          1           0       -1.725105   -1.025153    1.300635
      5          1           0       -2.422370   -0.131013   -0.356580
      6          6           0        0.464626   -0.533956   -0.107362
      7          1           0       -0.409637    1.134178    0.598832
      8          1           0       -0.601664    1.129233   -1.300579
      9          6           0        1.955115    0.135578    0.110537
     10          1           0        0.476458   -1.344005   -0.943119
     11          1           0        0.463354   -1.076287    0.815523
     12          1           0        1.922358    0.190956   -0.480301
     13          1           0        2.714868   -0.544491   -0.477974
     14          1           0        2.299769    1.380839    1.307386
 ---------------------------------------------------------------------

 SCF Done:  E(RB2PLYPD3) =  -157.096374151     A.U. after   13 cycles
 E2(B2PLYPD3) =    -0.2605869046D+00 E(B2PLYPD3) =    -0.15735696105585D+03

 The electronic state is 1-A.
 Alpha  occ. eigenvalues --  -10.62006 -10.61899 -10.61873 -10.59185  -0.97209
 Alpha  occ. eigenvalues --   -0.93649  -0.83171  -0.67934  -0.54517  -0.52735
 Alpha  occ. eigenvalues --   -0.47606  -0.43360  -0.39524  -0.39119  -0.38280
 Alpha  occ. eigenvalues --   -0.33150  -0.31934
 Alpha virt. eigenvalues --   -0.00217   0.04576   0.05557   0.06328   0.09571
 Alpha virt. eigenvalues --    0.10105   0.11362   0.13082   0.13281   0.15233
 Alpha virt. eigenvalues --    0.15913   0.17469   0.17818   0.19371   0.21299

 Mulliken charges:
               1
     1  C   -0.495963
     2  C   -0.030494
     3  H    0.054226
     4  H    0.064303
     5  H    0.344763
     6  C   -0.034935
     7  H    0.066334
     8  H    0.006058
     9  C   -0.957781
    10  H    0.032871
    11  H    0.060771
    12  H    0.790301
    13  H    0.041384
    14  H    0.058162
 Sum of Mulliken charges =   0.00000

 Dipole moment (field-independent basis, Debye):
    X=             -0.8566    Y=              0.3302    Z=             -0.7987  Tot=              1.2169
 Quadrupole moment (field-independent basis, Debye-Ang):
   XX=            -29.5855   YY=            -29.7350   ZZ=            -27.8986
   XY=             -0.6542   XZ=              0.0479   YZ=              0.1675

 Normal termination of Gaussian 09 at Wed Aug 26 10:19:49 2020.
