 Gaussian 09, Revision D.01,
 Gaussian 09:  ES64L-G09RevD.01 24-Apr-2013

 --------------------
 #p B2PLYPD3/Def2QZVP
 --------------------

 ----------
 butane_opt
 ----------
 Symbolic Z-matrix:
 Charge =  0 Multiplicity = 1

                         Standard orientation:
 ---------------------------------------------------------------------
 Center     Atomic      Atomic             Coordinates (Angstroms)
 Number     Number       Type             X           Y           Z
 ---------------------------------------------------------------------
      1          6           0       -1.859628    0.067376   -0.066144
      2          6           0       -0.566942   -0.423985    0.071937
      3          1           0       -2.857865   -0.803030   -0.317440
      4          1           0       -1.512589    0.440302   -0.882481
      5          1           0       -2.085093    1.025607    1.050398
      6          6           0        0.534771    0.545056    0.048811
      7          1           0       -0.488656   -1.076179   -0.711384
      8          1           0       -0.924224   -0.945340    0.926277
      9          6           0        1.973880   -0.230244   -0.008492
     10          1           0        0.347147    1.023692    0.676611
     11          1           0        0.166997    1.447358   -0.981757
     12          1           0        2.035613   -0.712177    0.873733
     13          1           0        2.812950    0.688906   -0.136233
     14          1           0        2.013232   -0.838353   -0.774397
 ---------------------------------------------------------------------

 SCF Done:  E(RB2PLYPD3) =  -157.786595683     A.U. after   11 cycles
 E2(B2PLYPD3) =    -0.2534860427D+00 E(B2PLYPD3) =    -0.15804008172616D+03

 The electronic state is 1-A.
 Alpha  occ. eigenvalues --  -10.63349 -10.61484 -10.61455 -10.58444  -0.97153
 Alpha  occ. eigenvalues --   -0.85593  -0.76007  -0.66306  -0.59021  -0.51043
 Alpha  occ. eigenvalues --   -0.49782  -0.47251  -0.45230  -0.39084  -0.38662
 Alpha  occ. eigenvalues --   -0.35402  -0.33087
 Alpha virt. eigenvalues --    0.04063   0.05957   0.06972   0.07757   0.09906
 Alpha virt. eigenvalues --    0.11013   0.12501   0.12571   0.13993   0.14751
 Alpha virt. eigenvalues --    0.15588   0.16181   0.18868   0.19368   0.20681

 Mulliken charges:
               1
     1  C   -0.184669
     2  C   -0.017018
     3  H    0.045283
     4  H    0.075769
     5  H   -0.003079
     6  C   -0.252183
     7  H    0.050247
     8  H    0.025269
     9  C   -0.152377
    10  H    0.240128
    11  H   -0.023633
    12  H    0.083466
    13  H    0.036829
    14  H    0.075966
 Sum of Mulliken charges =   0.00000

 Dipole moment (field-independent basis, Debye):
    X=              0.4798    Y=             -0.7408    Z=              0.0704  Tot=              0.8854
 Quadrupole moment (field-independent basis, Debye-Ang):
   XX=            -31.0079   YY=            -29.7138   ZZ=            -28.7847
   XY=              1.3406   XZ=              0.1197   YZ=              1.0780

 Normal termination of Gaussian 09 at Wed Aug 26 09:50:20 2020.
