 Gaussian 09, Revision D.01,
 Gaussian 09:  ES64L-G09RevD.01 24-Apr-2013

 --------------------
 #p B2PLYPD3/Def2QZVP
 --------------------

 ----------
 butane_opt
 ----------
 Symbolic Z-matrix:
 Charge =  0 Multiplicity = 1

                         Standard orientation:
 ---------------------------------------------------------------------
 Center     Atomic      Atomic             Coordinates (Angstroms)
 Number     Number       Type             X           Y           Z
 ---------------------------------------------------------------------
      1          6           0       -1.923230    0.139587   -0.024442
      2          6           0       -0.527615   -0.517017    0.064958
      3          1           0       -2.676310   -0.643620   -0.335810
      4          1           0       -1.856766    0.173103   -0.608012
      5          1           0       -2.405422    1.619242    1.251263
      6          6           0        0.652785    0.371795   -0.147825
      7          1           0       -0.436947   -1.420839   -0.796163
      8          1           0       -0.502863   -0.921317    1.029091
      9          6           0        1.870681   -0.083864    0.092559
     10          1           0        0.527823    0.931598    0.540548
     11          1           0        0.233825    1.131560   -1.299263
     12          1           0        2.093057   -0.725045    1.124279
     13          1           0        2.802170    0.914469   -0.255338
     14          1           0        1.785700   -0.522155   -0.562098
 ---------------------------------------------------------------------

 SCF Done:  E(RB2PLYPD3) =  -157.103574339     A.U. after   13 cycles
 E2(B2PLYPD3) =    -0.2606926288D+00 E(B2PLYPD3) =    -0.15736426696818D+03

 The electronic state is 1-A.
 Alpha  occ. eigenvalues --  -10.63477 -10.63282 -10.60403 -10.60071  -0.99269
 Alpha  occ. eigenvalues --   -0.93953  -0.78368  -0.68487  -0.57068  -0.50477
 Alpha  occ. eigenvalues --   -0.49188  -0.46920  -0.43525  -0.40008  -0.36750
 Alpha  occ. eigenvalues --   -0.34732  -0.33137
 Alpha virt. eigenvalues --   -0.04034   0.04158   0.05363   0.06351   0.09700
 Alpha virt. eigenvalues --    0.10311   0.11152   0.12223   0.13964   0.14980
 Alpha virt. eigenvalues --    0.15768   0.16668   0.18272   0.18936   0.20313

 Mulliken charges:
               1
     1  C   -0.884179
     2  C    0.024030
     3  H    0.084159
     4  H    0.700146
     5  H    0.014927
     6  C   -0.104830
     7  H   -0.007592
     8  H    0.052436
     9  C   -0.406570
    10  H    0.142192
    11  H   -0.010698
    12  H    0.069971
    13  H    0.037246
    14  H    0.288761
 Sum of Mulliken charges =   0.00000

 Dipole moment (field-independent basis, Debye):
    X=              0.1292    Y=             -0.6383    Z=             -0.1579  Tot=              0.6701
 Quadrupole moment (field-independent basis, Debye-Ang):
   XX=            -31.8370   YY=            -29.8946   ZZ=            -28.1820
   XY=              0.6021   XZ=              1.7485   YZ=              0.6797

 Normal termination of Gaussian 09 at Wed Aug 26 19:09:09 2020.
