 Gaussian 09, Revision D.01,
 Gaussian 09:  ES64L-G09RevD.01 24-Apr-2013

 --------------------
 #p B2PLYPD3/Def2QZVP
 --------------------

 ----------
 butane_opt
 ----------
 Symbolic Z-matrix:
 Charge =  0 Multiplicity = 1

                         Standard orientation:
 ---------------------------------------------------------------------
 Center     Atomic      Atomic             Coordinates (Angstroms)
 Number     Number       Type             X           Y           Z
 ---------------------------------------------------------------------
      1          6           0        1.955700    0.108414   -0.127502
      2          6           0        0.509392   -0.510004    0.105156
      3          1           0        2.826405   -0.819669   -0.122461
      4          1           0        1.870348    0.761545    0.849758
      5          1           0        1.763488    0.816561   -1.001477
      6          6           0       -0.533251    0.495096    0.180239
      7          1           0        0.388542   -1.160880    0.935487
      8          1           0        0.394982   -0.963441   -0.754985
      9          6           0       -1.899016   -0.118460   -0.227189
     10          1           0       -0.050940    0.801901   -0.465169
     11          1           0       -0.537316    1.480845    1.405973
     12          1           0       -1.597160   -0.274130   -0.846713
     13          1           0       -2.677280    0.679211   -0.711625
     14          1           0       -2.578017   -1.172226    1.126984
 ---------------------------------------------------------------------

 SCF Done:  E(RB2PLYPD3) =  -157.536087645     A.U. after   12 cycles
 E2(B2PLYPD3) =    -0.2597924244D+00 E(B2PLYPD3) =    -0.15779588006993D+03

 The electronic state is 1-A.
 Alpha  occ. eigenvalues --  -10.64534 -10.64078 -10.62594 -10.60159  -0.98773
 Alpha  occ. eigenvalues --   -0.87054  -0.75321  -0.68120  -0.57115  -0.50387
 Alpha  occ. eigenvalues --   -0.48529  -0.46723  -0.41974  -0.39750  -0.37892
 Alpha  occ. eigenvalues --   -0.34700  -0.33873
 Alpha virt. eigenvalues --   -0.01372   0.04898   0.05713   0.07154   0.09025
 Alpha virt. eigenvalues --    0.10121   0.12089   0.12284   0.13717   0.14965
 Alpha virt. eigenvalues --    0.15330   0.16047   0.18155   0.19336   0.19452

 Mulliken charges:
               1
     1  C   -0.194230
     2  C   -0.092058
     3  H    0.067203
     4  H    0.061861
     5  H    0.058525
     6  C   -0.198400
     7  H    0.048274
     8  H    0.080754
     9  C   -0.640583
    10  H    0.211767
    11  H   -0.022007
    12  H    0.528103
    13  H    0.069725
    14  H    0.021066
 Sum of Mulliken charges =   0.00000

 Dipole moment (field-independent basis, Debye):
    X=              0.5110    Y=             -0.3297    Z=             -1.0100  Tot=              1.1789
 Quadrupole moment (field-independent basis, Debye-Ang):
   XX=            -31.7944   YY=            -30.8285   ZZ=            -28.4323
   XY=             -1.4428   XZ=              0.3965   YZ=             -1.0611

 Normal termination of Gaussian 09 at Wed Aug 26 13:27:42 2020.
