 Gaussian 09, Revision D.01,
 Gaussian 09:  ES64L-G09RevD.01 24-Apr-2013

 --------------------
 #p B2PLYPD3/Def2QZVP
 --------------------

 ----------
 butane_opt
 ----------
 Symbolic Z-matrix:
 Charge =  0 Multiplicity = 1

                         Standard orientation:
 ---------------------------------------------------------------------
 Center     Atomic      Atomic             Coordinates (Angstroms)
 Number     Number       Type             X           Y           Z
 ---------------------------------------------------------------------
      1          6           0        1.967178   -0.139319   -0.100172
      2          6           0        0.592122    0.555820    0.121912
      3          1           0        2.766544    0.578770   -0.406523
      4          1           0        1.991939   -0.777904   -0.969969
      5          1           0        2.553928   -0.934542    0.912686
      6          6           0       -0.606213   -0.457686    0.040940
      7          1           0        0.418442    1.199827   -0.649386
      8          1           0        0.420659    1.272330    1.103324
      9          6           0       -1.981499    0.090199   -0.051227
     10          1           0       -0.453226   -1.306176    1.025283
     11          1           0       -0.568009   -1.023238   -0.731759
     12          1           0       -2.048138    0.689956    0.746858
     13          1           0       -2.865313   -0.768311   -0.185396
     14          1           0       -2.046359    0.775205   -0.913838
 ---------------------------------------------------------------------

 SCF Done:  E(RB2PLYPD3) =  -158.010059693     A.U. after   11 cycles
 E2(B2PLYPD3) =    -0.2496027834D+00 E(B2PLYPD3) =    -0.15825966247656D+03

 The electronic state is 1-A.
 Alpha  occ. eigenvalues --  -10.63868 -10.62870 -10.60915 -10.60441  -0.91238
 Alpha  occ. eigenvalues --   -0.83313  -0.72120  -0.67298  -0.53449  -0.49130
 Alpha  occ. eigenvalues --   -0.48509  -0.45698  -0.43278  -0.40187  -0.39015
 Alpha  occ. eigenvalues --   -0.37600  -0.35418
 Alpha virt. eigenvalues --    0.05118   0.05951   0.07855   0.08324   0.10132
 Alpha virt. eigenvalues --    0.11179   0.12532   0.12785   0.14396   0.15219
 Alpha virt. eigenvalues --    0.15641   0.16134   0.19178   0.19723   0.20701

 Mulliken charges:
               1
     1  C   -0.148342
     2  C   -0.048026
     3  H    0.044819
     4  H    0.056046
     5  H    0.020034
     6  C   -0.048905
     7  H    0.056195
     8  H    0.020384
     9  C   -0.152799
    10  H   -0.006609
    11  H    0.065603
    12  H    0.063567
    13  H    0.045337
    14  H    0.032695
 Sum of Mulliken charges =   0.00000

 Dipole moment (field-independent basis, Debye):
    X=             -0.0713    Y=              0.3674    Z=             -0.7355  Tot=              0.8252
 Quadrupole moment (field-independent basis, Debye-Ang):
   XX=            -30.0900   YY=            -29.2580   ZZ=            -28.9129
   XY=              0.2397   XZ=             -0.4827   YZ=              0.3171

 Normal termination of Gaussian 09 at Wed Aug 26 21:11:10 2020.
