 Gaussian 09, Revision D.01,
 Gaussian 09:  ES64L-G09RevD.01 24-Apr-2013

 --------------------
 #p B2PLYPD3/Def2QZVP
 --------------------

 ----------
 butane_opt
 ----------
 Symbolic Z-matrix:
 Charge =  0 Multiplicity = 1

                         Standard orientation:
 ---------------------------------------------------------------------
 Center     Atomic      Atomic             Coordinates (Angstroms)
 Number     Number       Type             X           Y           Z
 ---------------------------------------------------------------------
      1          6           0       -2.021612   -0.175041   -0.042590
      2          6           0       -0.514377    0.590188    0.150604
      3          1           0       -2.868307    0.522015   -0.391386
      4          1           0       -2.225142   -0.806788    0.773593
      5          1           0       -1.831550   -0.876871   -0.981355
      6          6           0        0.606898   -0.469545    0.155919
      7          1           0       -0.531800    1.230309    0.891529
      8          1           0       -0.376151    1.440228   -0.857947
      9          6           0        1.938402    0.068178   -0.141128
     10          1           0        0.289949   -0.981461   -0.715382
     11          1           0        0.849461   -1.307785    1.086712
     12          1           0        1.588440    0.381245   -0.781217
     13          1           0        2.596703   -0.547424   -0.592677
     14          1           0        2.452530    0.863846    0.831296
 ---------------------------------------------------------------------

 SCF Done:  E(RB2PLYPD3) =  -157.874801983     A.U. after   11 cycles
 E2(B2PLYPD3) =    -0.2510436710D+00 E(B2PLYPD3) =    -0.15812584565415D+03

 The electronic state is 1-A.
 Alpha  occ. eigenvalues --  -10.63630 -10.62667 -10.62493 -10.57433  -0.94232
 Alpha  occ. eigenvalues --   -0.83440  -0.73381  -0.66722  -0.54890  -0.51423
 Alpha  occ. eigenvalues --   -0.48913  -0.46737  -0.41151  -0.40220  -0.38787
 Alpha  occ. eigenvalues --   -0.37386  -0.35086
 Alpha virt. eigenvalues --    0.05420   0.06047   0.07052   0.08715   0.10430
 Alpha virt. eigenvalues --    0.11656   0.12072   0.13057   0.13963   0.15256
 Alpha virt. eigenvalues --    0.16183   0.16761   0.18811   0.19367   0.21054

 Mulliken charges:
               1
     1  C   -0.169822
     2  C   -0.043499
     3  H    0.057492
     4  H    0.081490
     5  H    0.026569
     6  C   -0.051560
     7  H    0.064740
     8  H   -0.010575
     9  C   -0.381447
    10  H    0.058515
    11  H    0.015450
    12  H    0.266376
    13  H    0.050108
    14  H    0.036162
 Sum of Mulliken charges =   0.00000

 Dipole moment (field-independent basis, Debye):
    X=             -0.1971    Y=             -0.0583    Z=             -0.2568  Tot=              0.3289
 Quadrupole moment (field-independent basis, Debye-Ang):
   XX=            -29.7996   YY=            -29.5213   ZZ=            -28.4072
   XY=             -0.9296   XZ=             -0.2559   YZ=              0.5584

 Normal termination of Gaussian 09 at Wed Aug 26 23:09:29 2020.
