 Gaussian 09, Revision D.01,
 Gaussian 09:  ES64L-G09RevD.01 24-Apr-2013

 --------------------
 #p B2PLYPD3/Def2QZVP
 --------------------

 ----------
 butane_opt
 ----------
 Symbolic Z-matrix:
 Charge =  0 Multiplicity = 1

                         Standard orientation:
 ---------------------------------------------------------------------
 Center     Atomic      Atomic             Coordinates (Angstroms)
 Number     Number       Type             X           Y           Z
 ---------------------------------------------------------------------
      1          6           0       -1.996368   -0.091730   -0.222812
      2          6           0       -0.625115    0.420667    0.094381
      3          1           0       -2.862449    0.864895   -0.012507
      4          1           0       -2.181814   -0.522209    0.687600
      5          1           0       -1.880526   -0.876548   -1.272609
      6          6           0        0.561389   -0.553107    0.287269
      7          1           0       -0.747827    1.504097    1.187301
      8          1           0       -0.347706    0.899035   -0.698457
      9          6           0        2.025250    0.113866   -0.185402
     10          1           0        0.424738   -1.008747   -0.346065
     11          1           0        0.152879   -1.307314    1.466361
     12          1           0        1.971992    0.671628   -1.014677
     13          1           0        2.736825   -0.493120   -0.642180
     14          1           0        2.942949    0.930112    0.804618
 ---------------------------------------------------------------------

 SCF Done:  E(RB2PLYPD3) =  -157.715679668     A.U. after   11 cycles
 E2(B2PLYPD3) =    -0.2570058726D+00 E(B2PLYPD3) =    -0.15797268554099D+03

 The electronic state is 1-A.
 Alpha  occ. eigenvalues --  -10.64930 -10.64349 -10.63970 -10.63563  -0.93387
 Alpha  occ. eigenvalues --   -0.83922  -0.76134  -0.67386  -0.53268  -0.48913
 Alpha  occ. eigenvalues --   -0.47451  -0.46587  -0.41500  -0.40837  -0.36836
 Alpha  occ. eigenvalues --   -0.36027  -0.34027
 Alpha virt. eigenvalues --    0.02828   0.03842   0.05496   0.06576   0.09275
 Alpha virt. eigenvalues --    0.10183   0.11102   0.12140   0.13951   0.14741
 Alpha virt. eigenvalues --    0.15329   0.15523   0.17127   0.18678   0.19500

 Mulliken charges:
               1
     1  C   -0.163037
     2  C   -0.045738
     3  H    0.053535
     4  H    0.065642
     5  H    0.045584
     6  C   -0.372105
     7  H   -0.038722
     8  H    0.087880
     9  C   -0.135994
    10  H    0.344904
    11  H    0.027241
    12  H    0.070986
    13  H    0.051817
    14  H    0.008007
 Sum of Mulliken charges =   0.00000

 Dipole moment (field-independent basis, Debye):
    X=             -0.1657    Y=             -0.5725    Z=             -1.2091  Tot=              1.3480
 Quadrupole moment (field-independent basis, Debye-Ang):
   XX=            -30.5426   YY=            -31.2048   ZZ=            -28.9847
   XY=             -0.2725   XZ=             -2.8029   YZ=              0.2579

 Normal termination of Gaussian 09 at Wed Aug 26 18:32:16 2020.
