 Gaussian 09, Revision D.01,
 Gaussian 09:  ES64L-G09RevD.01 24-Apr-2013

 --------------------
 #p B2PLYPD3/Def2QZVP
 --------------------

 ----------
 butane_opt
 ----------
 Symbolic Z-matrix:
 Charge =  0 Multiplicity = 1

                         Standard orientation:
 ---------------------------------------------------------------------
 Center     Atomic      Atomic             Coordinates (Angstroms)
 Number     Number       Type             X           Y           Z
 ---------------------------------------------------------------------
      1          6           0       -1.958749    0.079267   -0.170207
      2          6           0       -0.657393   -0.465002    0.148075
      3          1           0       -2.725309   -0.780656   -0.508498
      4          1           0       -1.785871    0.582632   -0.878854
      5          1           0       -2.283072    0.972502    0.861581
      6          6           0        0.603067    0.593304    0.067487
      7          1           0       -0.495006   -0.856483   -0.416681
      8          1           0       -0.743542   -1.376800    1.168274
      9          6           0        2.035978   -0.218437   -0.033606
     10          1           0        0.165739    1.387866    0.957791
     11          1           0        0.461980    0.961639   -0.681104
     12          1           0        2.270986   -0.558141    0.637691
     13          1           0        2.912446    0.549513   -0.416258
     14          1           0        2.084237   -0.816863   -0.794433
 ---------------------------------------------------------------------

 SCF Done:  E(RB2PLYPD3) =  -157.565120282     A.U. after   11 cycles
 E2(B2PLYPD3) =    -0.2493863959D+00 E(B2PLYPD3) =    -0.15781450667756D+03

 The electronic state is 1-A.
 Alpha  occ. eigenvalues --  -10.61709 -10.61449 -10.58903 -10.58535  -0.94549
 Alpha  occ. eigenvalues --   -0.86538  -0.77189  -0.71895  -0.56086  -0.52737
 Alpha  occ. eigenvalues --   -0.49703  -0.47154  -0.44085  -0.41581  -0.39120
 Alpha  occ. eigenvalues --   -0.36880  -0.34557
 Alpha virt. eigenvalues --    0.04320   0.06334   0.08026   0.08993   0.10806
 Alpha virt. eigenvalues --    0.11274   0.12236   0.12747   0.14818   0.15438
 Alpha virt. eigenvalues --    0.15803   0.16579   0.17724   0.19158   0.20229

 Mulliken charges:
               1
     1  C   -0.184357
     2  C   -0.542941
     3  H    0.050981
     4  H    0.128122
     5  H    0.008990
     6  C   -0.206266
     7  H    0.489527
     8  H    0.011594
     9  C   -0.305198
    10  H    0.041662
    11  H    0.198292
    12  H    0.233421
    13  H    0.020427
    14  H    0.055747
 Sum of Mulliken charges =   0.00000

 Dipole moment (field-independent basis, Debye):
    X=              0.3725    Y=             -0.3622    Z=             -1.0886  Tot=              1.2063
 Quadrupole moment (field-independent basis, Debye-Ang):
   XX=            -29.8951   YY=            -29.0087   ZZ=            -28.0658
   XY=             -0.2355   XZ=              0.3664   YZ=              0.2652

 Normal termination of Gaussian 09 at Wed Aug 26 15:34:04 2020.
