 Gaussian 09, Revision D.01,
 Gaussian 09:  ES64L-G09RevD.01 24-Apr-2013

 --------------------
 #p B2PLYPD3/Def2QZVP
 --------------------

 ----------
 butane_opt
 ----------
 Symbolic Z-matrix:
 Charge =  0 Multiplicity = 1

                         Standard orientation:
 ---------------------------------------------------------------------
 Center     Atomic      Atomic             Coordinates (Angstroms)
 Number     Number       Type             X           Y           Z
 ---------------------------------------------------------------------
      1          6           0        1.973163   -0.125719    0.033823
      2          6           0        0.597466    0.583893   -0.065966
      3          1           0        2.708818    0.541678   -0.262788
      4          1           0        2.163482   -0.601013   -0.780784
      5          1           0        2.380331   -1.075896    1.164395
      6          6           0       -0.608425   -0.505766    0.096095
      7          1           0        0.189198    1.417728   -1.155944
      8          1           0        0.537741    1.204752    0.719918
      9          6           0       -1.898789    0.063171   -0.003465
     10          1           0       -0.478478   -0.796443    0.888440
     11          1           0       -0.729778   -1.435974   -0.941710
     12          1           0       -2.734819    1.217075    1.122390
     13          1           0       -2.564625   -0.840500   -0.487110
     14          1           0       -1.852362    0.275117   -0.629733
 ---------------------------------------------------------------------

 SCF Done:  E(RB2PLYPD3) =  -157.421236536     A.U. after   12 cycles
 E2(B2PLYPD3) =    -0.2583046407D+00 E(B2PLYPD3) =    -0.15767954117663D+03

 The electronic state is 1-A.
 Alpha  occ. eigenvalues --  -10.64700 -10.62641 -10.62060 -10.61619  -0.96011
 Alpha  occ. eigenvalues --   -0.87132  -0.77474  -0.69633  -0.52615  -0.50041
 Alpha  occ. eigenvalues --   -0.48243  -0.43992  -0.43498  -0.42261  -0.37533
 Alpha  occ. eigenvalues --   -0.35475  -0.32826
 Alpha virt. eigenvalues --   -0.00011   0.02511   0.04103   0.06542   0.09773
 Alpha virt. eigenvalues --    0.10563   0.11226   0.11947   0.13271   0.15151
 Alpha virt. eigenvalues --    0.15365   0.16797   0.17772   0.18602   0.19926

 Mulliken charges:
               1
     1  C   -0.161944
     2  C   -0.086375
     3  H    0.049295
     4  H    0.065626
     5  H    0.036519
     6  C   -0.090471
     7  H    0.000260
     8  H    0.093510
     9  C   -0.702253
    10  H    0.167618
    11  H    0.010751
    12  H   -0.000168
    13  H    0.052115
    14  H    0.565518
 Sum of Mulliken charges =   0.00000

 Dipole moment (field-independent basis, Debye):
    X=              0.6919    Y=             -0.2869    Z=             -0.5903  Tot=              0.9537
 Quadrupole moment (field-independent basis, Debye-Ang):
   XX=            -31.5905   YY=            -29.9056   ZZ=            -28.5547
   XY=              0.3910   XZ=              0.8031   YZ=              0.3332

 Normal termination of Gaussian 09 at Wed Aug 26 19:00:54 2020.
