 Gaussian 09, Revision D.01,
 Gaussian 09:  ES64L-G09RevD.01 24-Apr-2013

 --------------------
 #p B2PLYPD3/Def2QZVP
 --------------------

 ----------
 butane_opt
 ----------
 Symbolic Z-matrix:
 Charge =  0 Multiplicity = 1

                         Standard orientation:
 ---------------------------------------------------------------------
 Center     Atomic      Atomic             Coordinates (Angstroms)
 Number     Number       Type             X           Y           Z
 ---------------------------------------------------------------------
      1          6           0        1.926056    0.117265   -0.163901
      2          6           0        0.610683   -0.510111    0.199595
      3          1           0        2.699023   -0.730638   -0.364194
      4          1           0        2.257992    0.604564    0.570324
      5          1           0        1.763923    0.869972   -1.235746
      6          6           0       -0.547743    0.603062    0.151594
      7          1           0        0.753447   -1.391644    1.162702
      8          1           0        0.631238   -1.025355   -0.439731
      9          6           0       -2.010544   -0.195416   -0.184382
     10          1           0       -0.309300    0.856349   -0.382576
     11          1           0       -0.381637    1.587661    1.275194
     12          1           0       -1.978136   -0.557713   -0.888897
     13          1           0       -2.749684    0.511179   -0.277636
     14          1           0       -2.557579   -0.813179    0.563125
 ---------------------------------------------------------------------

 SCF Done:  E(RB2PLYPD3) =  -157.427457143     A.U. after   11 cycles
 E2(B2PLYPD3) =    -0.2499790284D+00 E(B2PLYPD3) =    -0.15767743617107D+03

 The electronic state is 1-A.
 Alpha  occ. eigenvalues --  -10.62892 -10.61105 -10.59768 -10.57890  -0.94455
 Alpha  occ. eigenvalues --   -0.86062  -0.79916  -0.71097  -0.54222  -0.52101
 Alpha  occ. eigenvalues --   -0.47900  -0.46461  -0.43419  -0.43015  -0.38147
 Alpha  occ. eigenvalues --   -0.37781  -0.35572
 Alpha virt. eigenvalues --    0.04618   0.06666   0.07016   0.07613   0.10999
 Alpha virt. eigenvalues --    0.11800   0.12570   0.13647   0.14681   0.15406
 Alpha virt. eigenvalues --    0.15765   0.16500   0.18360   0.19590   0.20735

 Mulliken charges:
               1
     1  C   -0.164795
     2  C   -0.228390
     3  H    0.036062
     4  H    0.086553
     5  H    0.013283
     6  C   -0.754697
     7  H    0.007424
     8  H    0.254239
     9  C   -0.280837
    10  H    0.687410
    11  H    0.024524
    12  H    0.227572
    13  H    0.041080
    14  H    0.050571
 Sum of Mulliken charges =   0.00000

 Dipole moment (field-independent basis, Debye):
    X=             -0.1902    Y=             -0.2697    Z=             -0.5568  Tot=              0.6473
 Quadrupole moment (field-independent basis, Debye-Ang):
   XX=            -28.0365   YY=            -28.7626   ZZ=            -28.4793
   XY=             -0.0960   XZ=              0.8155   YZ=              0.3438

 Normal termination of Gaussian 09 at Wed Aug 26 14:54:33 2020.
