 Gaussian 09, Revision D.01,
 Gaussian 09:  ES64L-G09RevD.01 24-Apr-2013

 --------------------
 #p B2PLYPD3/Def2QZVP
 --------------------

 ----------
 butane_opt
 ----------
 Symbolic Z-matrix:
 Charge =  0 Multiplicity = 1

                         Standard orientation:
 ---------------------------------------------------------------------
 Center     Atomic      Atomic             Coordinates (Angstroms)
 Number     Number       Type             X           Y           Z
 ---------------------------------------------------------------------
      1          6           0        1.894164    0.102620   -0.048438
      2          6           0        0.600739   -0.494257   -0.009162
      3          1           0        2.717865   -0.758761   -0.014375
      4          1           0        2.086833    0.753252    0.885277
      5          1           0        1.885689    0.725589   -0.897067
      6          6           0       -0.513868    0.532199    0.065578
      7          1           0        0.480921   -1.046813    0.856301
      8          1           0        0.434744   -1.052004   -0.861440
      9          6           0       -1.978688   -0.140585   -0.013736
     10          1           0       -0.508953    1.077161   -0.696904
     11          1           0       -0.270527    1.256792    1.010391
     12          1           0       -1.834061   -0.569163   -0.900304
     13          1           0       -2.771580    0.649054   -0.362900
     14          1           0       -2.235011   -1.034970    1.015567
 ---------------------------------------------------------------------

 SCF Done:  E(RB2PLYPD3) =  -158.015793928     A.U. after   11 cycles
 E2(B2PLYPD3) =    -0.2487209901D+00 E(B2PLYPD3) =    -0.15826451491845D+03

 The electronic state is 1-A.
 Alpha  occ. eigenvalues --  -10.63108 -10.60402 -10.60358 -10.58158  -0.93151
 Alpha  occ. eigenvalues --   -0.83552  -0.71898  -0.67418  -0.56198  -0.49946
 Alpha  occ. eigenvalues --   -0.47806  -0.46977  -0.42097  -0.40497  -0.39080
 Alpha  occ. eigenvalues --   -0.37753  -0.36595
 Alpha virt. eigenvalues --    0.05112   0.06354   0.08283   0.08363   0.10737
 Alpha virt. eigenvalues --    0.11413   0.12178   0.13231   0.14529   0.15068
 Alpha virt. eigenvalues --    0.15675   0.16453   0.19247   0.19558   0.20811

 Mulliken charges:
               1
     1  C   -0.155312
     2  C   -0.033197
     3  H    0.038071
     4  H    0.034395
     5  H    0.055421
     6  C   -0.082404
     7  H    0.045928
     8  H    0.040584
     9  C   -0.199216
    10  H    0.078206
    11  H    0.009972
    12  H    0.085607
    13  H    0.044472
    14  H    0.037472
 Sum of Mulliken charges =   0.00000

 Dipole moment (field-independent basis, Debye):
    X=              0.1030    Y=             -0.0145    Z=             -0.5138  Tot=              0.5242
 Quadrupole moment (field-independent basis, Debye-Ang):
   XX=            -31.2759   YY=            -29.2479   ZZ=            -27.8968
   XY=             -0.5936   XZ=              1.1220   YZ=             -0.7441

 Normal termination of Gaussian 09 at Wed Aug 26 10:12:15 2020.
