 Gaussian 09, Revision D.01,
 Gaussian 09:  ES64L-G09RevD.01 24-Apr-2013

 --------------------
 #p B2PLYPD3/Def2QZVP
 --------------------

 ----------
 butane_opt
 ----------
 Symbolic Z-matrix:
 Charge =  0 Multiplicity = 1

                         Standard orientation:
 ---------------------------------------------------------------------
 Center     Atomic      Atomic             Coordinates (Angstroms)
 Number     Number       Type             X           Y           Z
 ---------------------------------------------------------------------
      1          6           0        1.896613   -0.062242   -0.151575
      2          6           0        0.554217    0.395802    0.264913
      3          1           0        2.830622    1.015122   -0.316521
      4          1           0        1.517499   -0.477385   -1.115286
      5          1           0        2.328547   -0.774254    0.537732
      6          6           0       -0.527294   -0.568903   -0.005190
      7          1           0        0.573315    0.814837   -0.308822
      8          1           0        0.248652    1.156301    1.603530
      9          6           0       -1.955878    0.145103   -0.154859
     10          1           0       -0.291422   -1.565564    0.834261
     11          1           0       -0.214222   -0.917010   -0.877155
     12          1           0       -2.031586    0.492913    0.776714
     13          1           0       -2.585542   -0.695500    0.261763
     14          1           0       -2.181811    1.491985   -1.115951
 ---------------------------------------------------------------------

 SCF Done:  E(RB2PLYPD3) =  -157.592346254     A.U. after   11 cycles
 E2(B2PLYPD3) =    -0.2590339025D+00 E(B2PLYPD3) =    -0.15785138015683D+03

 The electronic state is 1-A.
 Alpha  occ. eigenvalues --  -10.64752 -10.64240 -10.63153 -10.59981  -0.97524
 Alpha  occ. eigenvalues --   -0.84579  -0.73174  -0.69354  -0.55490  -0.48683
 Alpha  occ. eigenvalues --   -0.47842  -0.44343  -0.40810  -0.40030  -0.37006
 Alpha  occ. eigenvalues --   -0.36739  -0.34588
 Alpha virt. eigenvalues --   -0.00313   0.04120   0.05400   0.06854   0.09789
 Alpha virt. eigenvalues --    0.10656   0.11013   0.12740   0.13602   0.14615
 Alpha virt. eigenvalues --    0.15455   0.15628   0.17478   0.18982   0.19601

 Mulliken charges:
               1
     1  C   -0.154843
     2  C   -0.569369
     3  H    0.025847
     4  H    0.063161
     5  H    0.066325
     6  C   -0.030020
     7  H    0.542208
     8  H   -0.025479
     9  C   -0.222509
    10  H    0.017335
    11  H    0.066686
    12  H    0.100688
    13  H    0.053866
    14  H    0.066105
 Sum of Mulliken charges =   0.00000

 Dipole moment (field-independent basis, Debye):
    X=             -0.0161    Y=             -0.2388    Z=             -0.2639  Tot=              0.3563
 Quadrupole moment (field-independent basis, Debye-Ang):
   XX=            -31.4479   YY=            -29.5304   ZZ=            -29.6883
   XY=             -0.7813   XZ=             -1.2749   YZ=             -1.7879

 Normal termination of Gaussian 09 at Wed Aug 26 14:42:39 2020.
