 Gaussian 09, Revision D.01,
 Gaussian 09:  ES64L-G09RevD.01 24-Apr-2013

 --------------------
 #p B2PLYPD3/Def2QZVP
 --------------------

 ----------
 butane_opt
 ----------
 Symbolic Z-matrix:
 Charge =  0 Multiplicity = 1

                         Standard orientation:
 ---------------------------------------------------------------------
 Center     Atomic      Atomic             Coordinates (Angstroms)
 Number     Number       Type             X           Y           Z
 ---------------------------------------------------------------------
      1          6           0       -1.936022    0.048855   -0.273329
      2          6           0       -0.647687   -0.390632    0.259939
      3          1           0       -2.657380   -0.706554   -0.292869
      4          1           0       -1.773101    0.345514   -0.923592
      5          1           0       -2.517921    0.818737    0.623335
      6          6           0        0.524905    0.580133    0.106018
      7          1           0       -0.425990   -0.942674   -0.280979
      8          1           0       -0.482737   -1.406421    1.521972
      9          6           0        2.024856   -0.163341   -0.127449
     10          1           0        0.419974    1.522751    0.999842
     11          1           0        0.346868    1.044725   -0.780955
     12          1           0        2.385010   -0.473291    0.583696
     13          1           0        2.809970    0.591009   -0.164451
     14          1           0        2.098996   -1.243889   -1.077070
 ---------------------------------------------------------------------

 SCF Done:  E(RB2PLYPD3) =  -157.601379944     A.U. after   12 cycles
 E2(B2PLYPD3) =    -0.2520491775D+00 E(B2PLYPD3) =    -0.15785342912109D+03

 The electronic state is 1-A.
 Alpha  occ. eigenvalues --  -10.64323 -10.62170 -10.61544 -10.58883  -0.95473
 Alpha  occ. eigenvalues --   -0.85344  -0.78259  -0.69753  -0.56627  -0.52636
 Alpha  occ. eigenvalues --   -0.49075  -0.45163  -0.43757  -0.40442  -0.38797
 Alpha  occ. eigenvalues --   -0.37025  -0.33745
 Alpha virt. eigenvalues --    0.03645   0.04861   0.06410   0.07623   0.10381
 Alpha virt. eigenvalues --    0.10822   0.11830   0.13365   0.13700   0.14866
 Alpha virt. eigenvalues --    0.15698   0.16194   0.18237   0.19649   0.20662

 Mulliken charges:
               1
     1  C   -0.457730
     2  C   -0.252731
     3  H    0.069574
     4  H    0.357021
     5  H    0.023529
     6  C   -0.050556
     7  H    0.290288
     8  H   -0.047572
     9  C   -0.232025
    10  H    0.017824
    11  H    0.068922
    12  H    0.145795
    13  H    0.043402
    14  H    0.024257
 Sum of Mulliken charges =   0.00000

 Dipole moment (field-independent basis, Debye):
    X=              0.1665    Y=              0.1297    Z=             -0.8164  Tot=              0.8432
 Quadrupole moment (field-independent basis, Debye-Ang):
   XX=            -28.1821   YY=            -29.6290   ZZ=            -29.6886
   XY=              0.4372   XZ=              1.7434   YZ=              1.0620

 Normal termination of Gaussian 09 at Wed Aug 26 19:21:13 2020.
