 Gaussian 09, Revision D.01,
 Gaussian 09:  ES64L-G09RevD.01 24-Apr-2013

 --------------------
 #p B2PLYPD3/Def2QZVP
 --------------------

 ----------
 butane_opt
 ----------
 Symbolic Z-matrix:
 Charge =  0 Multiplicity = 1

                         Standard orientation:
 ---------------------------------------------------------------------
 Center     Atomic      Atomic             Coordinates (Angstroms)
 Number     Number       Type             X           Y           Z
 ---------------------------------------------------------------------
      1          6           0        1.884189   -0.116755   -0.123375
      2          6           0        0.614970    0.459677    0.095854
      3          1           0        2.635333    0.819419   -0.239404
      4          1           0        1.857945   -1.136558   -1.153032
      5          1           0        2.126514   -0.565483    0.651546
      6          6           0       -0.541587   -0.489290    0.229184
      7          1           0        0.374688    0.781077   -0.473979
      8          1           0        0.445035    1.523666    1.059610
      9          6           0       -1.875231    0.130162   -0.193145
     10          1           0       -0.599523   -1.247015    1.333717
     11          1           0       -0.266960   -0.781158   -0.292020
     12          1           0       -2.638463    0.776550    0.532893
     13          1           0       -2.699209   -0.668559   -0.300100
     14          1           0       -1.729403    0.595290   -1.170339
 ---------------------------------------------------------------------

 SCF Done:  E(RB2PLYPD3) =  -157.396517289     A.U. after   11 cycles
 E2(B2PLYPD3) =    -0.2517262817D+00 E(B2PLYPD3) =    -0.15764824357076D+03

 The electronic state is 1-A.
 Alpha  occ. eigenvalues --  -10.62672 -10.62622 -10.59541 -10.59411  -0.99975
 Alpha  occ. eigenvalues --   -0.85725  -0.75817  -0.73115  -0.54597  -0.51225
 Alpha  occ. eigenvalues --   -0.50427  -0.46467  -0.43861  -0.42180  -0.39171
 Alpha  occ. eigenvalues --   -0.36738  -0.33760
 Alpha virt. eigenvalues --    0.04172   0.05066   0.06693   0.07956   0.10844
 Alpha virt. eigenvalues --    0.11219   0.12198   0.12970   0.14277   0.14807
 Alpha virt. eigenvalues --    0.15617   0.15773   0.18154   0.19787   0.21342

 Mulliken charges:
               1
     1  C   -0.149152
     2  C   -0.553349
     3  H    0.061324
     4  H    0.011555
     5  H    0.105492
     6  C   -0.716205
     7  H    0.521077
     8  H   -0.001700
     9  C   -0.096007
    10  H    0.031991
    11  H    0.668529
    12  H    0.038027
    13  H    0.030336
    14  H    0.048084
 Sum of Mulliken charges =   0.00000

 Dipole moment (field-independent basis, Debye):
    X=             -0.0291    Y=             -0.1572    Z=             -0.3772  Tot=              0.4097
 Quadrupole moment (field-independent basis, Debye-Ang):
   XX=            -28.6834   YY=            -29.8344   ZZ=            -28.9718
   XY=              0.1619   XZ=              0.2923   YZ=             -0.5717

 Normal termination of Gaussian 09 at Wed Aug 26 22:36:01 2020.
