 Gaussian 09, Revision D.01,
 Gaussian 09:  ES64L-G09RevD.01 24-Apr-2013

 --------------------
 #p B2PLYPD3/Def2QZVP
 --------------------

 ----------
 butane_opt
 ----------
 Symbolic Z-matrix:
 Charge =  0 Multiplicity = 1

                         Standard orientation:
 ---------------------------------------------------------------------
 Center     Atomic      Atomic             Coordinates (Angstroms)
 Number     Number       Type             X           Y           Z
 ---------------------------------------------------------------------
      1          6           0       -2.077173   -0.155734   -0.047848
      2          6           0       -0.501355    0.664096    0.069739
      3          1           0       -2.670079    0.411651   -0.260684
      4          1           0       -2.412413   -0.747561    0.880681
      5          1           0       -1.892552   -0.923533   -0.926751
      6          6           0        0.584797   -0.487457    0.152531
      7          1           0       -0.397024    1.276465    0.791480
      8          1           0       -0.207297    1.192462   -0.886997
      9          6           0        1.932363    0.027625   -0.101737
     10          1           0        0.234038   -1.040612   -0.713017
     11          1           0        0.932149   -1.031038    1.077157
     12          1           0        1.927224    0.313904   -0.773078
     13          1           0        2.628717   -0.554801   -0.295857
     14          1           0        2.225447    0.811879    0.670959
 ---------------------------------------------------------------------

 SCF Done:  E(RB2PLYPD3) =  -157.785614960     A.U. after   11 cycles
 E2(B2PLYPD3) =    -0.2475009479D+00 E(B2PLYPD3) =    -0.15803311590750D+03

 The electronic state is 1-A.
 Alpha  occ. eigenvalues --  -10.61418 -10.60274 -10.59889 -10.53396  -0.93110
 Alpha  occ. eigenvalues --   -0.84251  -0.77035  -0.68705  -0.56977  -0.51084
 Alpha  occ. eigenvalues --   -0.49681  -0.47949  -0.43153  -0.42017  -0.38945
 Alpha  occ. eigenvalues --   -0.36672  -0.35725
 Alpha virt. eigenvalues --    0.05849   0.06766   0.08565   0.09248   0.10480
 Alpha virt. eigenvalues --    0.12827   0.13085   0.13404   0.14720   0.15543
 Alpha virt. eigenvalues --    0.16948   0.17376   0.18800   0.20096   0.21656

 Mulliken charges:
               1
     1  C   -0.250482
     2  C   -0.096242
     3  H    0.154484
     4  H    0.053334
     5  H    0.034908
     6  C   -0.032391
     7  H    0.072537
     8  H    0.042483
     9  C   -0.439280
    10  H    0.038552
    11  H    0.041426
    12  H    0.310803
    13  H    0.023856
    14  H    0.046012
 Sum of Mulliken charges =   0.00000

 Dipole moment (field-independent basis, Debye):
    X=              0.1412    Y=              0.2426    Z=             -0.3063  Tot=              0.4155
 Quadrupole moment (field-independent basis, Debye-Ang):
   XX=            -27.9365   YY=            -28.8660   ZZ=            -27.5086
   XY=             -0.4139   XZ=             -0.4618   YZ=              0.3711

 Normal termination of Gaussian 09 at Wed Aug 26 11:37:53 2020.
