 Gaussian 09, Revision D.01,
 Gaussian 09:  ES64L-G09RevD.01 24-Apr-2013

 --------------------
 #p B2PLYPD3/Def2QZVP
 --------------------

 ----------
 butane_opt
 ----------
 Symbolic Z-matrix:
 Charge =  0 Multiplicity = 1

                         Standard orientation:
 ---------------------------------------------------------------------
 Center     Atomic      Atomic             Coordinates (Angstroms)
 Number     Number       Type             X           Y           Z
 ---------------------------------------------------------------------
      1          6           0       -1.929628    0.089533    0.146132
      2          6           0       -0.652387   -0.457590   -0.119646
      3          1           0       -2.789936   -0.722527   -0.262621
      4          1           0       -2.075375    0.482206   -0.517259
      5          1           0       -1.966065    0.904240    1.269654
      6          6           0        0.521916    0.560464   -0.240492
      7          1           0       -0.836763   -0.971240   -0.879032
      8          1           0       -0.514449   -1.086209    0.753939
      9          6           0        2.063542   -0.150611    0.093316
     10          1           0        0.670538    1.088055    0.543380
     11          1           0        0.386878    1.332461   -1.049932
     12          1           0        1.657308   -0.878995    1.131672
     13          1           0        2.756172    0.477925    0.688336
     14          1           0        2.691037   -0.876693   -0.953999
 ---------------------------------------------------------------------

 SCF Done:  E(RB2PLYPD3) =  -157.787284476     A.U. after   11 cycles
 E2(B2PLYPD3) =    -0.2533690144D+00 E(B2PLYPD3) =    -0.15804065349016D+03

 The electronic state is 1-A.
 Alpha  occ. eigenvalues --  -10.66997 -10.61781 -10.60009 -10.58514  -0.94470
 Alpha  occ. eigenvalues --   -0.83565  -0.72550  -0.68455  -0.56232  -0.49951
 Alpha  occ. eigenvalues --   -0.48224  -0.46028  -0.41026  -0.39461  -0.38164
 Alpha  occ. eigenvalues --   -0.36654  -0.35096
 Alpha virt. eigenvalues --    0.04229   0.04848   0.07981   0.08253   0.10059
 Alpha virt. eigenvalues --    0.10630   0.11325   0.12967   0.13385   0.14180
 Alpha virt. eigenvalues --    0.15818   0.16471   0.17896   0.19537   0.20766

 Mulliken charges:
               1
     1  C   -0.393921
     2  C   -0.011896
     3  H    0.020050
     4  H    0.278103
     5  H    0.032596
     6  C   -0.099464
     7  H    0.058440
     8  H    0.043679
     9  C   -0.198613
    10  H    0.093379
    11  H    0.033048
    12  H    0.032865
    13  H    0.069934
    14  H    0.041800
 Sum of Mulliken charges =   0.00000

 Dipole moment (field-independent basis, Debye):
    X=             -0.1773    Y=              0.4657    Z=             -0.2369  Tot=              0.5517
 Quadrupole moment (field-independent basis, Debye-Ang):
   XX=            -31.2697   YY=            -29.6670   ZZ=            -28.0580
   XY=              1.1829   XZ=              2.2773   YZ=              0.8624

 Normal termination of Gaussian 09 at Wed Aug 26 16:14:38 2020.
