 Gaussian 09, Revision D.01,
 Gaussian 09:  ES64L-G09RevD.01 24-Apr-2013

 --------------------
 #p B2PLYPD3/Def2QZVP
 --------------------

 ----------
 butane_opt
 ----------
 Symbolic Z-matrix:
 Charge =  0 Multiplicity = 1

                         Standard orientation:
 ---------------------------------------------------------------------
 Center     Atomic      Atomic             Coordinates (Angstroms)
 Number     Number       Type             X           Y           Z
 ---------------------------------------------------------------------
      1          6           0        1.993878   -0.114157   -0.120087
      2          6           0        0.508003    0.485217    0.192114
      3          1           0        2.695817    0.574535   -0.041055
      4          1           0        2.079434   -0.771115   -1.027496
      5          1           0        2.238762   -0.762197    0.664440
      6          6           0       -0.600432   -0.430579   -0.005900
      7          1           0        0.157701    1.290841   -0.563563
      8          1           0        0.298003    1.138152    1.287016
      9          6           0       -1.831468    0.089634   -0.125197
     10          1           0       -0.537089   -1.326269    0.978795
     11          1           0       -0.445155   -0.899919   -0.891944
     12          1           0       -2.001121    0.535050    0.766711
     13          1           0       -2.744999   -0.999575    0.320096
     14          1           0       -2.161236    1.039809   -1.138584
 ---------------------------------------------------------------------

 SCF Done:  E(RB2PLYPD3) =  -157.910282967     A.U. after   12 cycles
 E2(B2PLYPD3) =    -0.2543006928D+00 E(B2PLYPD3) =    -0.15816458365989D+03

 The electronic state is 1-A.
 Alpha  occ. eigenvalues --  -10.64399 -10.63930 -10.60862 -10.60319  -0.94962
 Alpha  occ. eigenvalues --   -0.83991  -0.73675  -0.65120  -0.54079  -0.50754
 Alpha  occ. eigenvalues --   -0.48162  -0.46305  -0.44625  -0.39984  -0.38856
 Alpha  occ. eigenvalues --   -0.35459  -0.33110
 Alpha virt. eigenvalues --    0.03068   0.04862   0.06517   0.07483   0.10005
 Alpha virt. eigenvalues --    0.10888   0.12373   0.13403   0.14020   0.14577
 Alpha virt. eigenvalues --    0.15228   0.15567   0.18831   0.19345   0.20336

 Mulliken charges:
               1
     1  C   -0.123379
     2  C   -0.053421
     3  H    0.062537
     4  H    0.045641
     5  H    0.043606
     6  C    0.000157
     7  H    0.015652
     8  H    0.008440
     9  C   -0.180815
    10  H   -0.004849
    11  H    0.066281
    12  H    0.073428
    13  H    0.007749
    14  H    0.038972
 Sum of Mulliken charges =   0.00000

 Dipole moment (field-independent basis, Debye):
    X=              0.6986    Y=              0.1429    Z=              0.0561  Tot=              0.7153
 Quadrupole moment (field-independent basis, Debye-Ang):
   XX=            -30.9412   YY=            -29.9541   ZZ=            -28.8671
   XY=             -1.1020   XZ=             -0.5934   YZ=             -0.3316

 Normal termination of Gaussian 09 at Wed Aug 26 18:30:57 2020.
