 Gaussian 09, Revision D.01,
 Gaussian 09:  ES64L-G09RevD.01 24-Apr-2013

 --------------------
 #p B2PLYPD3/Def2QZVP
 --------------------

 ----------
 butane_opt
 ----------
 Symbolic Z-matrix:
 Charge =  0 Multiplicity = 1

                         Standard orientation:
 ---------------------------------------------------------------------
 Center     Atomic      Atomic             Coordinates (Angstroms)
 Number     Number       Type             X           Y           Z
 ---------------------------------------------------------------------
      1          6           0       -1.890008    0.073333    0.046490
      2          6           0       -0.613585   -0.437696   -0.005187
      3          1           0       -2.707659   -0.700391   -0.298197
      4          1           0       -1.851791    0.398894   -0.642674
      5          1           0       -2.154280    0.975679    1.197799
      6          6           0        0.538510    0.528323   -0.143426
      7          1           0       -0.407425   -1.141322   -0.968855
      8          1           0       -0.546433   -1.009344    0.839737
      9          6           0        1.939941   -0.170546    0.050064
     10          1           0        0.436729    1.237010    0.767096
     11          1           0        0.350642    1.204697   -1.100248
     12          1           0        2.090838   -0.963456    1.098445
     13          1           0        2.753195    0.697846    0.106011
     14          1           0        2.187035   -0.660103   -0.686758
 ---------------------------------------------------------------------

 SCF Done:  E(RB2PLYPD3) =  -157.817836851     A.U. after   11 cycles
 E2(B2PLYPD3) =    -0.2510435350D+00 E(B2PLYPD3) =    -0.15806888038606D+03

 The electronic state is 1-A.
 Alpha  occ. eigenvalues --  -10.62932 -10.62041 -10.59910 -10.59387  -0.95428
 Alpha  occ. eigenvalues --   -0.85234  -0.74306  -0.66677  -0.55156  -0.50118
 Alpha  occ. eigenvalues --   -0.48514  -0.46959  -0.41169  -0.40219  -0.39347
 Alpha  occ. eigenvalues --   -0.37684  -0.34689
 Alpha virt. eigenvalues --    0.04920   0.05556   0.06569   0.07823   0.10441
 Alpha virt. eigenvalues --    0.11056   0.12007   0.12776   0.14264   0.15013
 Alpha virt. eigenvalues --    0.15670   0.16018   0.19189   0.19763   0.21298

 Mulliken charges:
               1
     1  C   -0.462431
     2  C   -0.005320
     3  H    0.057352
     4  H    0.336732
     5  H    0.027323
     6  C   -0.035831
     7  H   -0.002372
     8  H    0.053859
     9  C   -0.179248
    10  H    0.020205
    11  H    0.028244
    12  H    0.031347
    13  H    0.039188
    14  H    0.090952
 Sum of Mulliken charges =   0.00000

 Dipole moment (field-independent basis, Debye):
    X=              0.1874    Y=             -0.1129    Z=             -0.5428  Tot=              0.5852
 Quadrupole moment (field-independent basis, Debye-Ang):
   XX=            -30.5242   YY=            -29.6602   ZZ=            -28.1489
   XY=              0.2141   XZ=              0.3918   YZ=              0.1063

 Normal termination of Gaussian 09 at Wed Aug 26 23:49:28 2020.
