 Gaussian 09, Revision D.01,
 Gaussian 09:  ES64L-G09RevD.01 24-Apr-2013

 --------------------
 #p B2PLYPD3/Def2QZVP
 --------------------

 ----------
 butane_opt
 ----------
 Symbolic Z-matrix:
 Charge =  0 Multiplicity = 1

                         Standard orientation:
 ---------------------------------------------------------------------
 Center     Atomic      Atomic             Coordinates (Angstroms)
 Number     Number       Type             X           Y           Z
 ---------------------------------------------------------------------
      1          6           0       -1.928480   -0.041943   -0.242821
      2          6           0       -0.640023    0.414353    0.324173
      3          1           0       -2.819477    1.050005   -0.431550
      4          1           0       -2.675910   -0.927977    0.573120
      5          1           0       -1.470981   -0.534729   -1.018561
      6          6           0        0.574746   -0.670448    0.068286
      7          1           0       -0.862861    1.028099    1.527099
      8          1           0       -0.329769    1.020160   -0.407472
      9          6           0        1.993228    0.141761   -0.050613
     10          1           0        0.382100   -1.095152   -0.856525
     11          1           0        0.438784   -1.330967    0.729871
     12          1           0        2.009273    1.509493   -1.022623
     13          1           0        2.627709   -0.191743   -0.307992
     14          1           0        2.704305    0.410479    0.620484
 ---------------------------------------------------------------------

 SCF Done:  E(RB2PLYPD3) =  -157.677289651     A.U. after   12 cycles
 E2(B2PLYPD3) =    -0.2555708895D+00 E(B2PLYPD3) =    -0.15793286054042D+03

 The electronic state is 1-A.
 Alpha  occ. eigenvalues --  -10.65367 -10.62972 -10.62823 -10.62031  -0.92553
 Alpha  occ. eigenvalues --   -0.87864  -0.78288  -0.65740  -0.55528  -0.50370
 Alpha  occ. eigenvalues --   -0.48852  -0.44995  -0.42319  -0.40144  -0.37322
 Alpha  occ. eigenvalues --   -0.35579  -0.33981
 Alpha virt. eigenvalues --    0.02244   0.04139   0.07150   0.07852   0.09042
 Alpha virt. eigenvalues --    0.09883   0.11109   0.12642   0.14612   0.14784
 Alpha virt. eigenvalues --    0.15742   0.16548   0.18352   0.19200   0.20077

 Mulliken charges:
               1
     1  C   -0.171873
     2  C   -0.099594
     3  H    0.039496
     4  H    0.006192
     5  H    0.081233
     6  C   -0.063366
     7  H    0.021932
     8  H    0.118861
     9  C   -0.391619
    10  H    0.061770
    11  H    0.086633
    12  H   -0.031966
    13  H    0.290432
    14  H    0.051869
 Sum of Mulliken charges =   0.00000

 Dipole moment (field-independent basis, Debye):
    X=              0.8049    Y=             -0.8434    Z=              0.0268  Tot=              1.1661
 Quadrupole moment (field-independent basis, Debye-Ang):
   XX=            -29.2494   YY=            -29.9942   ZZ=            -30.0904
   XY=             -1.9597   XZ=              0.3001   YZ=             -0.1640

 Normal termination of Gaussian 09 at Wed Aug 26 23:11:15 2020.
