 Gaussian 09, Revision D.01,
 Gaussian 09:  ES64L-G09RevD.01 24-Apr-2013

 --------------------
 #p B2PLYPD3/Def2QZVP
 --------------------

 ----------
 butane_opt
 ----------
 Symbolic Z-matrix:
 Charge =  0 Multiplicity = 1

                         Standard orientation:
 ---------------------------------------------------------------------
 Center     Atomic      Atomic             Coordinates (Angstroms)
 Number     Number       Type             X           Y           Z
 ---------------------------------------------------------------------
      1          6           0        1.832130    0.079931   -0.200417
      2          6           0        0.553465   -0.437907    0.242105
      3          1           0        2.684660   -0.917350   -0.572884
      4          1           0        2.556610    0.865075    0.683143
      5          1           0        1.404335    0.630221   -1.119697
      6          6           0       -0.514764    0.602241    0.147283
      7          1           0        0.904027   -1.269968    1.348281
      8          1           0        0.317131   -0.942059   -0.331380
      9          6           0       -1.908142   -0.215026   -0.088581
     10          1           0       -0.281657    1.335730   -0.812315
     11          1           0       -0.373240    1.194247    0.944461
     12          1           0       -1.805181   -1.219631   -1.136554
     13          1           0       -2.815584    0.539610   -0.214467
     14          1           0       -2.367231   -0.391316    0.609071
 ---------------------------------------------------------------------

 SCF Done:  E(RB2PLYPD3) =  -157.737383153     A.U. after   11 cycles
 E2(B2PLYPD3) =    -0.2554524383D+00 E(B2PLYPD3) =    -0.15799283559154D+03

 The electronic state is 1-A.
 Alpha  occ. eigenvalues --  -10.65392 -10.63102 -10.63002 -10.59899  -0.94826
 Alpha  occ. eigenvalues --   -0.84092  -0.74131  -0.68374  -0.54775  -0.49435
 Alpha  occ. eigenvalues --   -0.47484  -0.45987  -0.40547  -0.39476  -0.38490
 Alpha  occ. eigenvalues --   -0.36132  -0.35000
 Alpha virt. eigenvalues --    0.04126   0.04421   0.06052   0.07764   0.09446
 Alpha virt. eigenvalues --    0.10501   0.11450   0.13150   0.13803   0.15085
 Alpha virt. eigenvalues --    0.15786   0.16046   0.18030   0.18393   0.20186

 Mulliken charges:
               1
     1  C   -0.157289
     2  C   -0.284873
     3  H    0.023322
     4  H    0.030950
     5  H    0.058277
     6  C   -0.031492
     7  H    0.001304
     8  H    0.294204
     9  C   -0.244296
    10  H    0.020907
    11  H    0.075836
    12  H    0.046468
    13  H    0.013738
    14  H    0.152945
 Sum of Mulliken charges =   0.00000

 Dipole moment (field-independent basis, Debye):
    X=             -0.6552    Y=              0.1818    Z=              0.0514  Tot=              0.6819
 Quadrupole moment (field-independent basis, Debye-Ang):
   XX=            -30.6493   YY=            -29.7171   ZZ=            -29.5950
   XY=             -0.4845   XZ=             -0.4163   YZ=              1.1803

 Normal termination of Gaussian 09 at Wed Aug 26 20:04:51 2020.
