 Gaussian 09, Revision D.01,
 Gaussian 09:  ES64L-G09RevD.01 24-Apr-2013

 --------------------
 #p B2PLYPD3/Def2QZVP
 --------------------

 ----------
 butane_opt
 ----------
 Symbolic Z-matrix:
 Charge =  0 Multiplicity = 1

                         Standard orientation:
 ---------------------------------------------------------------------
 Center     Atomic      Atomic             Coordinates (Angstroms)
 Number     Number       Type             X           Y           Z
 ---------------------------------------------------------------------
      1          6           0        1.890199   -0.051003   -0.207541
      2          6           0        0.525475    0.452419    0.243791
      3          1           0        2.701702    0.881100   -0.332965
      4          1           0        1.620557   -0.697650   -1.321820
      5          1           0        2.198338   -0.906768    0.692551
      6          6           0       -0.477225   -0.546092    0.044727
      7          1           0        0.385058    0.820748   -0.347193
      8          1           0        0.689261    1.423666    1.556712
      9          6           0       -1.935107    0.086193   -0.051994
     10          1           0       -0.301047   -1.528969    1.031980
     11          1           0       -0.359791   -0.928922   -0.663927
     12          1           0       -2.235581    0.333641    0.441074
     13          1           0       -2.489809   -0.432898   -0.020011
     14          1           0       -2.228741    1.386950   -1.210300
 ---------------------------------------------------------------------

 SCF Done:  E(RB2PLYPD3) =  -157.005355310     A.U. after   12 cycles
 E2(B2PLYPD3) =    -0.2564991149D+00 E(B2PLYPD3) =    -0.15726185442524D+03

 The electronic state is 1-A.
 Alpha  occ. eigenvalues --  -10.66340 -10.62713 -10.60997 -10.59372  -0.99296
 Alpha  occ. eigenvalues --   -0.94528  -0.78851  -0.70139  -0.56901  -0.52057
 Alpha  occ. eigenvalues --   -0.50575  -0.45853  -0.42836  -0.40051  -0.38501
 Alpha  occ. eigenvalues --   -0.35313  -0.34349
 Alpha virt. eigenvalues --    0.00424   0.02564   0.04947   0.07113   0.09672
 Alpha virt. eigenvalues --    0.10666   0.11413   0.12182   0.13753   0.14819
 Alpha virt. eigenvalues --    0.15435   0.16078   0.17680   0.19420   0.20404

 Mulliken charges:
               1
     1  C   -0.175762
     2  C   -0.578738
     3  H    0.068026
     4  H    0.031166
     5  H    0.049959
     6  C   -0.165359
     7  H    0.589953
     8  H   -0.005553
     9  C   -0.680051
    10  H   -0.002779
    11  H    0.248234
    12  H    0.456489
    13  H    0.188148
    14  H   -0.023732
 Sum of Mulliken charges =   0.00000

 Dipole moment (field-independent basis, Debye):
    X=             -0.2054    Y=             -0.3807    Z=             -0.0533  Tot=              0.4358
 Quadrupole moment (field-independent basis, Debye-Ang):
   XX=            -29.6070   YY=            -29.8391   ZZ=            -29.5385
   XY=              1.6525   XZ=             -1.4463   YZ=             -0.2353

 Normal termination of Gaussian 09 at Wed Aug 26 14:56:58 2020.
