 Gaussian 09, Revision D.01,
 Gaussian 09:  ES64L-G09RevD.01 24-Apr-2013

 --------------------
 #p B2PLYPD3/Def2QZVP
 --------------------

 ----------
 butane_opt
 ----------
 Symbolic Z-matrix:
 Charge =  0 Multiplicity = 1

                         Standard orientation:
 ---------------------------------------------------------------------
 Center     Atomic      Atomic             Coordinates (Angstroms)
 Number     Number       Type             X           Y           Z
 ---------------------------------------------------------------------
      1          6           0        1.955553   -0.094820   -0.012802
      2          6           0        0.628180    0.520368   -0.059979
      3          1           0        2.609220    0.625462   -0.173810
      4          1           0        1.939577   -0.613024   -0.776151
      5          1           0        2.142491   -0.796665    1.082821
      6          6           0       -0.487891   -0.624535    0.127064
      7          1           0        0.380936    1.285778   -0.972470
      8          1           0        0.809241    1.214525    0.697680
      9          6           0       -2.029756    0.143071    0.012084
     10          1           0       -0.638702   -1.180071    0.852886
     11          1           0       -0.447197   -1.454817   -0.882550
     12          1           0       -2.370261    1.327556    1.051705
     13          1           0       -2.755022   -0.650378   -0.495640
     14          1           0       -2.066798    0.577125   -0.782674
 ---------------------------------------------------------------------

 SCF Done:  E(RB2PLYPD3) =  -157.833771330     A.U. after   11 cycles
 E2(B2PLYPD3) =    -0.2534199596D+00 E(B2PLYPD3) =    -0.15808719128913D+03

 The electronic state is 1-A.
 Alpha  occ. eigenvalues --  -10.63848 -10.63525 -10.62086 -10.58619  -0.91563
 Alpha  occ. eigenvalues --   -0.83427  -0.73816  -0.68696  -0.55548  -0.50141
 Alpha  occ. eigenvalues --   -0.46306  -0.45275  -0.41613  -0.40673  -0.37322
 Alpha  occ. eigenvalues --   -0.37050  -0.34412
 Alpha virt. eigenvalues --    0.02578   0.05410   0.06728   0.07537   0.10372
 Alpha virt. eigenvalues --    0.10883   0.11961   0.12335   0.13306   0.15618
 Alpha virt. eigenvalues --    0.15927   0.16253   0.18482   0.19002   0.20655

 Mulliken charges:
               1
     1  C   -0.166500
     2  C   -0.010952
     3  H    0.048384
     4  H    0.079303
     5  H    0.033493
     6  C   -0.077582
     7  H    0.022678
     8  H    0.036281
     9  C   -0.243254
    10  H    0.104735
    11  H   -0.009499
    12  H    0.022047
    13  H    0.029724
    14  H    0.131142
 Sum of Mulliken charges =   0.00000

 Dipole moment (field-independent basis, Debye):
    X=              0.6267    Y=              0.1311    Z=             -0.5593  Tot=              0.8501
 Quadrupole moment (field-independent basis, Debye-Ang):
   XX=            -31.9314   YY=            -28.4628   ZZ=            -28.6184
   XY=              1.0377   XZ=              1.4561   YZ=             -0.0850

 Normal termination of Gaussian 09 at Wed Aug 26 11:22:28 2020.
