 Gaussian 09, Revision D.01,
 Gaussian 09:  ES64L-G09RevD.01 24-Apr-2013

 --------------------
 #p B2PLYPD3/Def2QZVP
 --------------------

 ----------
 butane_opt
 ----------
 Symbolic Z-matrix:
 Charge =  0 Multiplicity = 1

                         Standard orientation:
 ---------------------------------------------------------------------
 Center     Atomic      Atomic             Coordinates (Angstroms)
 Number     Number       Type             X           Y           Z
 ---------------------------------------------------------------------
      1          6           0        1.860398    0.083005    0.207781
      2          6           0        0.560999   -0.409044   -0.260872
      3          1           0        2.759466   -0.836823   -0.042540
      4          1           0        1.872625    0.599328    1.355613
      5          1           0        2.176620    0.445438   -0.470882
      6          6           0       -0.544275    0.599363   -0.260741
      7          1           0        0.467175   -1.167300    0.502014
      8          1           0        0.710205   -0.816046   -1.124492
      9          6           0       -1.920697   -0.199094    0.237756
     10          1           0       -0.691247    1.520585   -1.040961
     11          1           0       -0.201470    0.989938    0.514823
     12          1           0       -2.711139   -0.937912   -0.847257
     13          1           0       -2.488504    0.271895    0.782038
     14          1           0       -1.632281   -0.514482    0.828103
 ---------------------------------------------------------------------

 SCF Done:  E(RB2PLYPD3) =  -157.632375177     A.U. after   11 cycles
 E2(B2PLYPD3) =    -0.2508169829D+00 E(B2PLYPD3) =    -0.15788319216005D+03

 The electronic state is 1-A.
 Alpha  occ. eigenvalues --  -10.60969 -10.60353 -10.58728 -10.58544  -0.94944
 Alpha  occ. eigenvalues --   -0.88515  -0.78198  -0.68905  -0.57432  -0.50994
 Alpha  occ. eigenvalues --   -0.49182  -0.45836  -0.43811  -0.41539  -0.37804
 Alpha  occ. eigenvalues --   -0.36381  -0.35355
 Alpha virt. eigenvalues --    0.04728   0.05334   0.07811   0.08396   0.09861
 Alpha virt. eigenvalues --    0.10754   0.12304   0.12798   0.14317   0.15408
 Alpha virt. eigenvalues --    0.16264   0.17311   0.18661   0.19126   0.20900

 Mulliken charges:
               1
     1  C   -0.304875
     2  C   -0.013228
     3  H    0.001952
     4  H    0.060316
     5  H    0.185589
     6  C   -0.130106
     7  H    0.048868
     8  H    0.042492
     9  C   -0.519262
    10  H    0.041591
    11  H    0.103128
    12  H    0.026888
    13  H    0.061136
    14  H    0.395510
 Sum of Mulliken charges =   0.00000

 Dipole moment (field-independent basis, Debye):
    X=              0.2826    Y=              0.3652    Z=              0.3381  Tot=              0.5723
 Quadrupole moment (field-independent basis, Debye-Ang):
   XX=            -30.6727   YY=            -29.6654   ZZ=            -26.9048
   XY=             -0.2381   XZ=             -1.5306   YZ=              0.3050

 Normal termination of Gaussian 09 at Wed Aug 26 14:14:29 2020.
