 Gaussian 09, Revision D.01,
 Gaussian 09:  ES64L-G09RevD.01 24-Apr-2013

 --------------------
 #p B2PLYPD3/Def2QZVP
 --------------------

 ----------
 butane_opt
 ----------
 Symbolic Z-matrix:
 Charge =  0 Multiplicity = 1

                         Standard orientation:
 ---------------------------------------------------------------------
 Center     Atomic      Atomic             Coordinates (Angstroms)
 Number     Number       Type             X           Y           Z
 ---------------------------------------------------------------------
      1          6           0       -2.048167    0.141268    0.060248
      2          6           0       -0.465442   -0.627959   -0.174851
      3          1           0       -2.787509   -0.440361    0.564831
      4          1           0       -2.700958    0.900443   -0.911292
      5          1           0       -1.670801    0.565978    0.917182
      6          6           0        0.594055    0.484899   -0.033088
      7          1           0       -0.420504   -1.188900   -0.966673
      8          1           0       -0.445457   -1.311347    0.783270
      9          6           0        1.938419   -0.064326    0.043431
     10          1           0        0.580226    1.238019    0.961652
     11          1           0        0.483174    1.395865   -0.926742
     12          1           0        2.057311   -0.725566    0.966334
     13          1           0        2.590297    0.643718    0.087339
     14          1           0        2.201033   -0.681137   -0.850339
 ---------------------------------------------------------------------

 SCF Done:  E(RB2PLYPD3) =  -157.980151862     A.U. after   11 cycles
 E2(B2PLYPD3) =    -0.2514654578D+00 E(B2PLYPD3) =    -0.15823161731991D+03

 The electronic state is 1-A.
 Alpha  occ. eigenvalues --  -10.64183 -10.63069 -10.62527 -10.59065  -0.90893
 Alpha  occ. eigenvalues --   -0.82271  -0.73353  -0.65833  -0.52741  -0.51200
 Alpha  occ. eigenvalues --   -0.48854  -0.45606  -0.41732  -0.40907  -0.39501
 Alpha  occ. eigenvalues --   -0.35526  -0.34747
 Alpha virt. eigenvalues --    0.05345   0.05960   0.07209   0.08169   0.09525
 Alpha virt. eigenvalues --    0.11591   0.12372   0.12962   0.14765   0.15200
 Alpha virt. eigenvalues --    0.15763   0.16831   0.17632   0.19638   0.21120

 Mulliken charges:
               1
     1  C   -0.218756
     2  C   -0.072181
     3  H    0.052161
     4  H    0.044406
     5  H    0.077404
     6  C   -0.033970
     7  H    0.081354
     8  H    0.031645
     9  C   -0.121461
    10  H    0.010849
    11  H    0.016579
    12  H    0.035782
    13  H    0.063659
    14  H    0.032530
 Sum of Mulliken charges =   0.00000

 Dipole moment (field-independent basis, Debye):
    X=              0.5055    Y=             -0.2361    Z=              0.2582  Tot=              0.6147
 Quadrupole moment (field-independent basis, Debye-Ang):
   XX=            -30.0195   YY=            -29.4729   ZZ=            -28.3964
   XY=              0.7384   XZ=             -0.1967   YZ=             -0.1761

 Normal termination of Gaussian 09 at Wed Aug 26 10:41:52 2020.
