 Gaussian 09, Revision D.01,
 Gaussian 09:  ES64L-G09RevD.01 24-Apr-2013

 --------------------
 #p B2PLYPD3/Def2QZVP
 --------------------

 ----------
 butane_opt
 ----------
 Symbolic Z-matrix:
 Charge =  0 Multiplicity = 1

                         Standard orientation:
 ---------------------------------------------------------------------
 Center     Atomic      Atomic             Coordinates (Angstroms)
 Number     Number       Type             X           Y           Z
 ---------------------------------------------------------------------
      1          6           0       -1.957586    0.011799   -0.213498
      2          6           0       -0.570522   -0.444219    0.342234
      3          1           0       -2.796354   -0.774707   -0.638053
      4          1           0       -1.748532    0.552026   -1.063295
      5          1           0       -2.607668    1.115032    0.732119
      6          6           0        0.546982    0.578809    0.047563
      7          1           0       -0.294699   -0.781994   -0.259721
      8          1           0       -0.571885   -1.292669    1.652714
      9          6           0        1.965907   -0.151699   -0.212734
     10          1           0        0.999204    1.640987    0.981254
     11          1           0        0.243609    0.900795   -0.772783
     12          1           0        2.267967   -0.541915    0.727035
     13          1           0        2.594443    0.322377   -0.004153
     14          1           0        2.005232   -1.108070   -1.136504
 ---------------------------------------------------------------------

 SCF Done:  E(RB2PLYPD3) =  -157.562859839     A.U. after   11 cycles
 E2(B2PLYPD3) =    -0.2571126977D+00 E(B2PLYPD3) =    -0.15781997253622D+03

 The electronic state is 1-A.
 Alpha  occ. eigenvalues --  -10.66184 -10.65056 -10.62973 -10.60209  -0.96271
 Alpha  occ. eigenvalues --   -0.86645  -0.76140  -0.69476  -0.52765  -0.50940
 Alpha  occ. eigenvalues --   -0.47721  -0.47403  -0.41669  -0.39352  -0.37069
 Alpha  occ. eigenvalues --   -0.36694  -0.34228
 Alpha virt. eigenvalues --    0.02997   0.04441   0.05882   0.06277   0.09028
 Alpha virt. eigenvalues --    0.10025   0.10975   0.13140   0.13905   0.14396
 Alpha virt. eigenvalues --    0.15529   0.16557   0.17755   0.19047   0.19758

 Mulliken charges:
               1
     1  C   -0.142821
     2  C   -0.540240
     3  H    0.062201
     4  H    0.070718
     5  H   -0.003373
     6  C   -0.106592
     7  H    0.532317
     8  H    0.023014
     9  C   -0.315123
    10  H   -0.014317
    11  H    0.135055
    12  H    0.048692
    13  H    0.206799
    14  H    0.043669
 Sum of Mulliken charges =   0.00000

 Dipole moment (field-independent basis, Debye):
    X=              0.6500    Y=             -0.4365    Z=             -0.9276  Tot=              1.2138
 Quadrupole moment (field-independent basis, Debye-Ang):
   XX=            -30.1160   YY=            -30.7502   ZZ=            -28.9439
   XY=              0.9552   XZ=              2.5741   YZ=              0.4450

 Normal termination of Gaussian 09 at Wed Aug 26 10:51:52 2020.
