 Gaussian 09, Revision D.01,
 Gaussian 09:  ES64L-G09RevD.01 24-Apr-2013

 --------------------
 #p B2PLYPD3/Def2QZVP
 --------------------

 ----------
 butane_opt
 ----------
 Symbolic Z-matrix:
 Charge =  0 Multiplicity = 1

                         Standard orientation:
 ---------------------------------------------------------------------
 Center     Atomic      Atomic             Coordinates (Angstroms)
 Number     Number       Type             X           Y           Z
 ---------------------------------------------------------------------
      1          6           0       -1.915570    0.085685    0.071608
      2          6           0       -0.606446   -0.507423   -0.123175
      3          1           0       -2.566559   -0.643927   -0.089692
      4          1           0       -2.079967    0.211524   -0.449949
      5          1           0       -2.050066    1.059559    1.360352
      6          6           0        0.516418    0.603131   -0.204697
      7          1           0       -0.791349   -1.003660   -0.853804
      8          1           0       -0.525745   -1.167697    0.782942
      9          6           0        2.026319   -0.112506    0.168430
     10          1           0        0.355040    1.078462    0.352461
     11          1           0        0.362975    1.346639   -1.127554
     12          1           0        1.815406   -0.758734    1.145892
     13          1           0        2.765888    0.463167    0.349466
     14          1           0        2.590044   -0.998657   -0.943107
 ---------------------------------------------------------------------

 SCF Done:  E(RB2PLYPD3) =  -157.106403238     A.U. after   12 cycles
 E2(B2PLYPD3) =    -0.2522424521D+00 E(B2PLYPD3) =    -0.15735864569025D+03

 The electronic state is 1-A.
 Alpha  occ. eigenvalues --  -10.64693 -10.60229 -10.60129 -10.58965  -0.98384
 Alpha  occ. eigenvalues --   -0.87623  -0.76611  -0.73168  -0.55518  -0.50980
 Alpha  occ. eigenvalues --   -0.50114  -0.46833  -0.42518  -0.38918  -0.38080
 Alpha  occ. eigenvalues --   -0.36898  -0.36461
 Alpha virt. eigenvalues --    0.03384   0.04519   0.06540   0.07867   0.10123
 Alpha virt. eigenvalues --    0.10662   0.12209   0.13375   0.14164   0.15198
 Alpha virt. eigenvalues --    0.15827   0.16470   0.18222   0.19362   0.21173

 Mulliken charges:
               1
     1  C   -0.806567
     2  C    0.054149
     3  H    0.038730
     4  H    0.625422
     5  H    0.018556
     6  C   -0.413487
     7  H    0.079908
     8  H    0.027869
     9  C   -0.191250
    10  H    0.380934
    11  H    0.036457
    12  H    0.057569
    13  H    0.092588
    14  H   -0.000874
 Sum of Mulliken charges =   0.00000

 Dipole moment (field-independent basis, Debye):
    X=             -0.4300    Y=              0.1422    Z=             -0.0638  Tot=              0.4574
 Quadrupole moment (field-independent basis, Debye-Ang):
   XX=            -29.7912   YY=            -28.9003   ZZ=            -27.9086
   XY=              2.0731   XZ=              2.5633   YZ=              0.4614

 Normal termination of Gaussian 09 at Wed Aug 26 12:17:43 2020.
