 Gaussian 09, Revision D.01,
 Gaussian 09:  ES64L-G09RevD.01 24-Apr-2013

 --------------------
 #p B2PLYPD3/Def2QZVP
 --------------------

 ----------
 butane_opt
 ----------
 Symbolic Z-matrix:
 Charge =  0 Multiplicity = 1

                         Standard orientation:
 ---------------------------------------------------------------------
 Center     Atomic      Atomic             Coordinates (Angstroms)
 Number     Number       Type             X           Y           Z
 ---------------------------------------------------------------------
      1          6           0        1.923019    0.085779    0.153693
      2          6           0        0.575061   -0.477457   -0.182235
      3          1           0        2.862441   -0.780737   -0.030357
      4          1           0        2.118813    0.599601    1.240293
      5          1           0        2.143525    0.479502   -0.483509
      6          6           0       -0.573786    0.605965   -0.266540
      7          1           0        0.202183   -1.135879    0.635056
      8          1           0        0.695371   -1.100459   -1.102204
      9          6           0       -1.993983   -0.176736    0.184497
     10          1           0       -0.579871    1.499459   -1.181660
     11          1           0        0.005111    1.314888    0.599611
     12          1           0       -2.876821   -0.884991   -0.802008
     13          1           0       -2.616831    0.421029    0.897782
     14          1           0       -1.535788   -0.637713    0.890503
 ---------------------------------------------------------------------

 SCF Done:  E(RB2PLYPD3) =  -157.820677452     A.U. after   11 cycles
 E2(B2PLYPD3) =    -0.2547401825D+00 E(B2PLYPD3) =    -0.15807541763490D+03

 The electronic state is 1-A.
 Alpha  occ. eigenvalues --  -10.66103 -10.64072 -10.62011 -10.59927  -0.91428
 Alpha  occ. eigenvalues --   -0.83664  -0.73903  -0.65544  -0.54016  -0.49604
 Alpha  occ. eigenvalues --   -0.47756  -0.43437  -0.41610  -0.40917  -0.38277
 Alpha  occ. eigenvalues --   -0.36848  -0.34784
 Alpha virt. eigenvalues --    0.04089   0.05178   0.07605   0.07934   0.09034
 Alpha virt. eigenvalues --    0.10765   0.12209   0.12957   0.14187   0.14970
 Alpha virt. eigenvalues --    0.15920   0.16600   0.17778   0.19034   0.19586

 Mulliken charges:
               1
     1  C   -0.403462
     2  C    0.020114
     3  H    0.012014
     4  H    0.060411
     5  H    0.279008
     6  C   -0.095134
     7  H    0.039962
     8  H    0.030644
     9  C   -0.208912
    10  H    0.033856
    11  H    0.014247
    12  H    0.054693
    13  H    0.047582
    14  H    0.114976
 Sum of Mulliken charges =   0.00000

 Dipole moment (field-independent basis, Debye):
    X=              0.1711    Y=              0.0190    Z=              0.1770  Tot=              0.2469
 Quadrupole moment (field-independent basis, Debye-Ang):
   XX=            -29.9827   YY=            -30.3255   ZZ=            -28.3921
   XY=              0.9987   XZ=             -0.6962   YZ=              0.3051

 Normal termination of Gaussian 09 at Wed Aug 26 14:08:52 2020.
