 Gaussian 09, Revision D.01,
 Gaussian 09:  ES64L-G09RevD.01 24-Apr-2013

 --------------------
 #p B2PLYPD3/Def2QZVP
 --------------------

 ----------
 butane_opt
 ----------
 Symbolic Z-matrix:
 Charge =  0 Multiplicity = 1

                         Standard orientation:
 ---------------------------------------------------------------------
 Center     Atomic      Atomic             Coordinates (Angstroms)
 Number     Number       Type             X           Y           Z
 ---------------------------------------------------------------------
      1          6           0       -2.017045    0.079544   -0.070494
      2          6           0       -0.574688   -0.479835    0.134192
      3          1           0       -2.810564   -0.739525   -0.327735
      4          1           0       -1.874301    0.831701   -1.171355
      5          1           0       -2.042775    0.627326    0.610396
      6          6           0        0.519891    0.588945    0.175827
      7          1           0       -0.505861   -1.113699   -0.695721
      8          1           0       -0.383275   -1.117163    1.108600
      9          6           0        1.982177   -0.146232   -0.156156
     10          1           0        0.601216    1.480190    1.287379
     11          1           0        0.301411    0.807039   -0.490254
     12          1           0        2.694615   -1.016088    0.990007
     13          1           0        2.845175    0.538268   -0.944891
     14          1           0        1.712349   -0.552575   -0.866640
 ---------------------------------------------------------------------

 SCF Done:  E(RB2PLYPD3) =  -157.618180891     A.U. after   11 cycles
 E2(B2PLYPD3) =    -0.2554179883D+00 E(B2PLYPD3) =    -0.15787359887895D+03

 The electronic state is 1-A.
 Alpha  occ. eigenvalues --  -10.65184 -10.62026 -10.61963 -10.61909  -0.94654
 Alpha  occ. eigenvalues --   -0.84358  -0.75625  -0.68513  -0.56169  -0.51349
 Alpha  occ. eigenvalues --   -0.45357  -0.44197  -0.43432  -0.39835  -0.37967
 Alpha  occ. eigenvalues --   -0.36073  -0.35089
 Alpha virt. eigenvalues --    0.02519   0.05322   0.06294   0.08025   0.08579
 Alpha virt. eigenvalues --    0.10418   0.11272   0.12699   0.13792   0.14461
 Alpha virt. eigenvalues --    0.15477   0.16815   0.17377   0.18578   0.19476

 Mulliken charges:
               1
     1  C   -0.237664
     2  C   -0.043650
     3  H    0.077762
     4  H   -0.001087
     5  H    0.151417
     6  C   -0.543751
     7  H    0.050745
     8  H    0.027789
     9  C   -0.306708
    10  H    0.039657
    11  H    0.508637
    12  H    0.036172
    13  H    0.022412
    14  H    0.218269
 Sum of Mulliken charges =   0.00000

 Dipole moment (field-independent basis, Debye):
    X=             -0.6816    Y=             -0.3085    Z=             -0.4678  Tot=              0.8823
 Quadrupole moment (field-independent basis, Debye-Ang):
   XX=            -31.6040   YY=            -30.3080   ZZ=            -27.9761
   XY=              0.4733   XZ=             -0.4336   YZ=              0.4537

 Normal termination of Gaussian 09 at Wed Aug 26 22:55:06 2020.
