 Gaussian 09, Revision D.01,
 Gaussian 09:  ES64L-G09RevD.01 24-Apr-2013

 --------------------
 #p B2PLYPD3/Def2QZVP
 --------------------

 ----------
 butane_opt
 ----------
 Symbolic Z-matrix:
 Charge =  0 Multiplicity = 1

                         Standard orientation:
 ---------------------------------------------------------------------
 Center     Atomic      Atomic             Coordinates (Angstroms)
 Number     Number       Type             X           Y           Z
 ---------------------------------------------------------------------
      1          6           0        1.938508   -0.125753   -0.102073
      2          6           0        0.446373    0.593932    0.050517
      3          1           0        2.559820    0.254655   -0.430692
      4          1           0        2.028572   -1.416299   -0.976314
      5          1           0        2.262073   -0.280361    0.760293
      6          6           0       -0.527794   -0.385823    0.405173
      7          1           0        0.077758    0.860584   -1.024862
      8          1           0        0.741369    1.356429    0.645794
      9          6           0       -1.862409    0.010223   -0.201795
     10          1           0       -0.645386   -0.749447    1.398570
     11          1           0       -0.303051   -0.970632   -0.234461
     12          1           0       -2.262093    1.050178    0.445794
     13          1           0       -2.751314   -0.965113   -0.352131
     14          1           0       -1.675812    0.304527   -1.142924
 ---------------------------------------------------------------------

 SCF Done:  E(RB2PLYPD3) =  -157.809910758     A.U. after   11 cycles
 E2(B2PLYPD3) =    -0.2504511065D+00 E(B2PLYPD3) =    -0.15806036186434D+03

 The electronic state is 1-A.
 Alpha  occ. eigenvalues --  -10.63038 -10.62019 -10.59599 -10.57614  -0.95130
 Alpha  occ. eigenvalues --   -0.85478  -0.75236  -0.68473  -0.58343  -0.52820
 Alpha  occ. eigenvalues --   -0.49461  -0.45327  -0.43822  -0.41330  -0.38662
 Alpha  occ. eigenvalues --   -0.36428  -0.34934
 Alpha virt. eigenvalues --    0.04383   0.05578   0.08026   0.08228   0.10543
 Alpha virt. eigenvalues --    0.11114   0.11673   0.13480   0.13501   0.14856
 Alpha virt. eigenvalues --    0.16149   0.17051   0.19133   0.19774   0.21585

 Mulliken charges:
               1
     1  C   -0.297859
     2  C   -0.037681
     3  H    0.199773
     4  H   -0.036305
     5  H    0.063813
     6  C   -0.154669
     7  H    0.038058
     8  H    0.056289
     9  C   -0.162378
    10  H    0.047356
    11  H    0.166620
    12  H    0.020871
    13  H    0.024911
    14  H    0.071200
 Sum of Mulliken charges =   0.00000

 Dipole moment (field-independent basis, Debye):
    X=              0.4268    Y=              0.5307    Z=              0.2998  Tot=              0.7441
 Quadrupole moment (field-independent basis, Debye-Ang):
   XX=            -30.6158   YY=            -29.8082   ZZ=            -28.0494
   XY=              2.0115   XZ=              1.3259   YZ=              0.3721

 Normal termination of Gaussian 09 at Wed Aug 26 12:59:10 2020.
