 Gaussian 09, Revision D.01,
 Gaussian 09:  ES64L-G09RevD.01 24-Apr-2013

 --------------------
 #p B2PLYPD3/Def2QZVP
 --------------------

 ----------
 butane_opt
 ----------
 Symbolic Z-matrix:
 Charge =  0 Multiplicity = 1

                         Standard orientation:
 ---------------------------------------------------------------------
 Center     Atomic      Atomic             Coordinates (Angstroms)
 Number     Number       Type             X           Y           Z
 ---------------------------------------------------------------------
      1          6           0        1.986518    0.020825    0.075364
      2          6           0        0.616485   -0.421539   -0.219272
      3          1           0        2.771302   -0.657170   -0.137690
      4          1           0        1.905157    0.944735    1.375812
      5          1           0        2.083528    0.348923   -0.463278
      6          6           0       -0.519388    0.676683   -0.034964
      7          1           0        0.436650   -1.303745    0.726244
      8          1           0        0.289465   -1.272601   -1.159776
      9          6           0       -1.990781   -0.159734    0.075643
     10          1           0       -0.631976    1.553594   -0.923878
     11          1           0       -0.209044    1.042187    0.721695
     12          1           0       -2.288540   -0.273328   -0.550289
     13          1           0       -2.675735    0.225717   -0.149460
     14          1           0       -2.237810   -1.305718    1.179999
 ---------------------------------------------------------------------

 SCF Done:  E(RB2PLYPD3) =  -157.081254835     A.U. after   12 cycles
 E2(B2PLYPD3) =    -0.2569685482D+00 E(B2PLYPD3) =    -0.15733822338306D+03

 The electronic state is 1-A.
 Alpha  occ. eigenvalues --  -10.64912 -10.63466 -10.60261 -10.59225  -1.00744
 Alpha  occ. eigenvalues --   -0.93991  -0.82484  -0.66950  -0.53414  -0.51919
 Alpha  occ. eigenvalues --   -0.47735  -0.44286  -0.42918  -0.37581  -0.37205
 Alpha  occ. eigenvalues --   -0.36419  -0.33348
 Alpha virt. eigenvalues --    0.02719   0.03556   0.06114   0.06867   0.09394
 Alpha virt. eigenvalues --    0.09853   0.11783   0.13230   0.14231   0.15191
 Alpha virt. eigenvalues --    0.15497   0.17290   0.17388   0.19592   0.21029

 Mulliken charges:
               1
     1  C   -0.705623
     2  C   -0.008844
     3  H    0.087612
     4  H    0.016484
     5  H    0.563390
     6  C   -0.107456
     7  H    0.009854
     8  H    0.017490
     9  C   -0.755594
    10  H    0.007809
    11  H    0.154975
    12  H    0.472658
    13  H    0.208688
    14  H    0.038557
 Sum of Mulliken charges =   0.00000

 Dipole moment (field-independent basis, Debye):
    X=             -0.1378    Y=              0.3539    Z=             -1.0120  Tot=              1.0809
 Quadrupole moment (field-independent basis, Debye-Ang):
   XX=            -27.4748   YY=            -29.5401   ZZ=            -28.8186
   XY=             -0.5120   XZ=              0.9584   YZ=             -0.5167

 Normal termination of Gaussian 09 at Wed Aug 26 21:54:34 2020.
