 Gaussian 09, Revision D.01,
 Gaussian 09:  ES64L-G09RevD.01 24-Apr-2013

 --------------------
 #p B2PLYPD3/Def2QZVP
 --------------------

 ----------
 butane_opt
 ----------
 Symbolic Z-matrix:
 Charge =  0 Multiplicity = 1

                         Standard orientation:
 ---------------------------------------------------------------------
 Center     Atomic      Atomic             Coordinates (Angstroms)
 Number     Number       Type             X           Y           Z
 ---------------------------------------------------------------------
      1          6           0       -1.967108   -0.084897    0.105242
      2          6           0       -0.623784    0.528238   -0.136338
      3          1           0       -2.818154    0.768629   -0.035689
      4          1           0       -2.327610   -1.079702    1.188646
      5          1           0       -1.971407   -0.495157   -0.646497
      6          6           0        0.540255   -0.580967   -0.060891
      7          1           0       -0.438950    0.866335    0.497692
      8          1           0       -0.487321    1.446166   -1.020613
      9          6           0        2.043349    0.138443    0.123529
     10          1           0        0.251749   -1.259320   -0.974163
     11          1           0        0.322436   -0.957203    0.674005
     12          1           0        1.780885    0.273647   -0.375723
     13          1           0        2.974803   -0.594094   -0.747880
     14          1           0        2.757296    1.025795    1.250976
 ---------------------------------------------------------------------

 SCF Done:  E(RB2PLYPD3) =  -156.979895163     A.U. after   13 cycles
 E2(B2PLYPD3) =    -0.2592841013D+00 E(B2PLYPD3) =    -0.15723917926381D+03

 The electronic state is 1-A.
 Alpha  occ. eigenvalues --  -10.64824 -10.62546 -10.61935 -10.59600  -0.96224
 Alpha  occ. eigenvalues --   -0.89778  -0.77902  -0.72434  -0.54788  -0.47973
 Alpha  occ. eigenvalues --   -0.46782  -0.45740  -0.43518  -0.39926  -0.38079
 Alpha  occ. eigenvalues --   -0.35942  -0.33667
 Alpha virt. eigenvalues --    0.00848   0.03663   0.04774   0.06741   0.09200
 Alpha virt. eigenvalues --    0.10818   0.11220   0.12595   0.14442   0.15349
 Alpha virt. eigenvalues --    0.15655   0.15962   0.17352   0.18322   0.19836

 Mulliken charges:
               1
     1  C   -0.268276
     2  C   -0.488399
     3  H    0.049675
     4  H    0.033882
     5  H    0.189156
     6  C   -0.163171
     7  H    0.427551
     8  H    0.037412
     9  C   -0.966364
    10  H    0.050676
    11  H    0.194109
    12  H    0.778772
    13  H    0.018179
    14  H    0.106797
 Sum of Mulliken charges =   0.00000

 Dipole moment (field-independent basis, Debye):
    X=             -0.6266    Y=              0.5117    Z=             -0.1136  Tot=              0.8170
 Quadrupole moment (field-independent basis, Debye-Ang):
   XX=            -31.3307   YY=            -29.0885   ZZ=            -27.8637
   XY=              1.6809   XZ=              1.2213   YZ=              0.7130

 Normal termination of Gaussian 09 at Wed Aug 26 20:07:15 2020.
