 Gaussian 09, Revision D.01,
 Gaussian 09:  ES64L-G09RevD.01 24-Apr-2013

 --------------------
 #p B2PLYPD3/Def2QZVP
 --------------------

 ----------
 butane_opt
 ----------
 Symbolic Z-matrix:
 Charge =  0 Multiplicity = 1

                         Standard orientation:
 ---------------------------------------------------------------------
 Center     Atomic      Atomic             Coordinates (Angstroms)
 Number     Number       Type             X           Y           Z
 ---------------------------------------------------------------------
      1          6           0        1.884705    0.067532   -0.010575
      2          6           0        0.685492   -0.508800    0.050164
      3          1           0        2.696265   -0.700553   -0.448233
      4          1           0        2.373678    0.893442    0.850656
      5          1           0        2.084251    0.549514   -0.882952
      6          6           0       -0.543865    0.576205   -0.055950
      7          1           0        0.629170   -1.297271    1.238007
      8          1           0        0.465994   -0.834723   -0.588730
      9          6           0       -2.048394   -0.163727    0.018862
     10          1           0       -0.558614    1.252829   -0.962926
     11          1           0       -0.277733    1.224467    0.767923
     12          1           0       -2.499910   -1.062117   -1.098417
     13          1           0       -2.699053    0.459972    0.442204
     14          1           0       -2.081677   -0.312828    0.667459
 ---------------------------------------------------------------------

 SCF Done:  E(RB2PLYPD3) =  -157.433175361     A.U. after   12 cycles
 E2(B2PLYPD3) =    -0.2538994874D+00 E(B2PLYPD3) =    -0.15768707484820D+03

 The electronic state is 1-A.
 Alpha  occ. eigenvalues --  -10.62725 -10.61054 -10.59740 -10.59644  -0.95049
 Alpha  occ. eigenvalues --   -0.91322  -0.76537  -0.69776  -0.57311  -0.49263
 Alpha  occ. eigenvalues --   -0.47929  -0.46171  -0.42745  -0.41169  -0.37877
 Alpha  occ. eigenvalues --   -0.36086  -0.32527
 Alpha virt. eigenvalues --    0.04568   0.04856   0.06926   0.07857   0.09992
 Alpha virt. eigenvalues --    0.10153   0.12099   0.12728   0.14207   0.15047
 Alpha virt. eigenvalues --    0.16070   0.16377   0.18400   0.19634   0.19945

 Mulliken charges:
               1
     1  C   -0.107559
     2  C   -0.426632
     3  H    0.026100
     4  H    0.037487
     5  H    0.047878
     6  C   -0.051021
     7  H    0.010252
     8  H    0.414786
     9  C   -0.668270
    10  H    0.043450
    11  H    0.038725
    12  H    0.062947
    13  H    0.048342
    14  H    0.523515
 Sum of Mulliken charges =   0.00000

 Dipole moment (field-independent basis, Debye):
    X=             -0.0225    Y=              0.2831    Z=             -0.2453  Tot=              0.3753
 Quadrupole moment (field-independent basis, Debye-Ang):
   XX=            -29.2825   YY=            -29.8012   ZZ=            -27.3943
   XY=              0.7255   XZ=             -1.8163   YZ=              1.3192

 Normal termination of Gaussian 09 at Wed Aug 26 11:38:04 2020.
