 Gaussian 09, Revision D.01,
 Gaussian 09:  ES64L-G09RevD.01 24-Apr-2013

 --------------------
 #p B2PLYPD3/Def2QZVP
 --------------------

 ----------
 butane_opt
 ----------
 Symbolic Z-matrix:
 Charge =  0 Multiplicity = 1

                         Standard orientation:
 ---------------------------------------------------------------------
 Center     Atomic      Atomic             Coordinates (Angstroms)
 Number     Number       Type             X           Y           Z
 ---------------------------------------------------------------------
      1          6           0       -1.889507    0.046373   -0.254858
      2          6           0       -0.577600   -0.401239    0.262986
      3          1           0       -2.869164   -1.088140   -0.438856
      4          1           0       -1.412318    0.267714   -1.029744
      5          1           0       -2.263360    1.164384    0.664017
      6          6           0        0.537074    0.575576    0.099354
      7          1           0       -0.362798   -0.708734   -0.305259
      8          1           0       -0.738802   -1.183800    1.565502
      9          6           0        1.919188   -0.228171   -0.142289
     10          1           0        0.306778    1.502263    0.999465
     11          1           0        0.286589    1.175547   -0.825033
     12          1           0        2.331222   -0.676323    0.774437
     13          1           0        2.637387    0.663774   -0.265900
     14          1           0        2.149537   -1.071919   -0.929789
 ---------------------------------------------------------------------

 SCF Done:  E(RB2PLYPD3) =  -157.568361386     A.U. after   12 cycles
 E2(B2PLYPD3) =    -0.2583272912D+00 E(B2PLYPD3) =    -0.15782668867753D+03

 The electronic state is 1-A.
 Alpha  occ. eigenvalues --  -10.65623 -10.65612 -10.63599 -10.60257  -0.98903
 Alpha  occ. eigenvalues --   -0.83284  -0.73273  -0.67860  -0.54869  -0.48784
 Alpha  occ. eigenvalues --   -0.47506  -0.45812  -0.42077  -0.39689  -0.38737
 Alpha  occ. eigenvalues --   -0.35293  -0.34067
 Alpha virt. eigenvalues --    0.01973   0.05656   0.05878   0.06930   0.08491
 Alpha virt. eigenvalues --    0.10705   0.11662   0.12176   0.13347   0.14418
 Alpha virt. eigenvalues --    0.14738   0.16051   0.17996   0.18553   0.19851

 Mulliken charges:
               1
     1  C   -0.188402
     2  C   -0.730552
     3  H    0.043825
     4  H    0.119194
     5  H    0.018720
     6  C   -0.039707
     7  H    0.694033
     8  H    0.003902
     9  C   -0.150682
    10  H    0.032770
    11  H    0.041523
    12  H    0.055570
    13  H    0.044862
    14  H    0.054942
 Sum of Mulliken charges =   0.00000

 Dipole moment (field-independent basis, Debye):
    X=              0.8820    Y=             -0.1456    Z=             -0.6563  Tot=              1.1090
 Quadrupole moment (field-independent basis, Debye-Ang):
   XX=            -31.5596   YY=            -29.6784   ZZ=            -29.7046
   XY=              0.2374   XZ=             -0.3969   YZ=              0.9232

 Normal termination of Gaussian 09 at Wed Aug 26 12:35:46 2020.
