 Gaussian 09, Revision D.01,
 Gaussian 09:  ES64L-G09RevD.01 24-Apr-2013

 --------------------
 #p B2PLYPD3/Def2QZVP
 --------------------

 ----------
 butane_opt
 ----------
 Symbolic Z-matrix:
 Charge =  0 Multiplicity = 1

                         Standard orientation:
 ---------------------------------------------------------------------
 Center     Atomic      Atomic             Coordinates (Angstroms)
 Number     Number       Type             X           Y           Z
 ---------------------------------------------------------------------
      1          6           0        1.894992    0.082657    0.069739
      2          6           0        0.562420   -0.523983   -0.034757
      3          1           0        2.618236   -0.685766   -0.390742
      4          1           0        2.074189    1.159562    1.197161
      5          1           0        1.930686    0.448996   -0.622303
      6          6           0       -0.491650    0.545591   -0.084861
      7          1           0        0.501765   -1.028422    0.746103
      8          1           0        0.441012   -1.179011   -0.880936
      9          6           0       -1.955335   -0.134178    0.067586
     10          1           0       -0.434900    1.381848   -1.159445
     11          1           0       -0.353344    0.937479    0.640349
     12          1           0       -2.144536   -0.589871   -0.754282
     13          1           0       -2.700045    0.623487    0.060041
     14          1           0       -1.995626   -0.888825    1.057805
 ---------------------------------------------------------------------

 SCF Done:  E(RB2PLYPD3) =  -157.756954300     A.U. after   11 cycles
 E2(B2PLYPD3) =    -0.2500855299D+00 E(B2PLYPD3) =    -0.15800703983040D+03

 The electronic state is 1-A.
 Alpha  occ. eigenvalues --  -10.60307 -10.60222 -10.60057 -10.58059  -0.94689
 Alpha  occ. eigenvalues --   -0.85227  -0.76013  -0.70282  -0.55908  -0.49346
 Alpha  occ. eigenvalues --   -0.48277  -0.46449  -0.42652  -0.41559  -0.38003
 Alpha  occ. eigenvalues --   -0.37819  -0.36278
 Alpha virt. eigenvalues --    0.03345   0.05988   0.07138   0.07670   0.10707
 Alpha virt. eigenvalues --    0.11337   0.12286   0.13357   0.13926   0.15283
 Alpha virt. eigenvalues --    0.15689   0.16694   0.18697   0.19329   0.22031

 Mulliken charges:
               1
     1  C   -0.410660
     2  C   -0.025802
     3  H    0.035899
     4  H    0.027639
     5  H    0.297833
     6  C   -0.228071
     7  H    0.075830
     8  H    0.024216
     9  C   -0.149343
    10  H    0.002630
    11  H    0.204496
    12  H    0.066924
    13  H    0.044578
    14  H    0.033831
 Sum of Mulliken charges =   0.00000

 Dipole moment (field-independent basis, Debye):
    X=             -0.2424    Y=             -0.1794    Z=             -0.4199  Tot=              0.5170
 Quadrupole moment (field-independent basis, Debye-Ang):
   XX=            -30.9668   YY=            -28.8922   ZZ=            -27.7358
   XY=             -0.3304   XZ=             -0.9062   YZ=              0.5300

 Normal termination of Gaussian 09 at Wed Aug 26 22:01:13 2020.
