 Gaussian 09, Revision D.01,
 Gaussian 09:  ES64L-G09RevD.01 24-Apr-2013

 --------------------
 #p B2PLYPD3/Def2QZVP
 --------------------

 ----------
 butane_opt
 ----------
 Symbolic Z-matrix:
 Charge =  0 Multiplicity = 1

                         Standard orientation:
 ---------------------------------------------------------------------
 Center     Atomic      Atomic             Coordinates (Angstroms)
 Number     Number       Type             X           Y           Z
 ---------------------------------------------------------------------
      1          6           0        2.021258   -0.089719    0.018965
      2          6           0        0.643498    0.471606   -0.008254
      3          1           0        2.828640    0.721694   -0.258376
      4          1           0        1.901127   -0.404692   -0.738256
      5          1           0        1.973412   -1.071117    1.082316
      6          6           0       -0.596414   -0.536598   -0.102374
      7          1           0        0.739610    0.850491   -0.580702
      8          1           0        0.226174    1.337253    1.067121
      9          6           0       -1.991278    0.093484    0.058833
     10          1           0       -0.336047   -1.036625    0.440138
     11          1           0       -0.560335   -1.178944   -1.055142
     12          1           0       -2.011017    0.574464    0.872865
     13          1           0       -2.623560   -0.657403    0.383306
     14          1           0       -2.600387    1.232241   -1.016289
 ---------------------------------------------------------------------

 SCF Done:  E(RB2PLYPD3) =  -157.455179420     A.U. after   11 cycles
 E2(B2PLYPD3) =    -0.2530749066D+00 E(B2PLYPD3) =    -0.15770825432624D+03

 The electronic state is 1-A.
 Alpha  occ. eigenvalues --  -10.63022 -10.61926 -10.60251 -10.59607  -0.96418
 Alpha  occ. eigenvalues --   -0.88254  -0.76442  -0.72858  -0.55426  -0.51054
 Alpha  occ. eigenvalues --   -0.50061  -0.48249  -0.43215  -0.39988  -0.38274
 Alpha  occ. eigenvalues --   -0.36143  -0.34575
 Alpha virt. eigenvalues --    0.02173   0.03954   0.07211   0.08114   0.09394
 Alpha virt. eigenvalues --    0.10601   0.11649   0.12936   0.14237   0.14622
 Alpha virt. eigenvalues --    0.15380   0.16520   0.18149   0.18785   0.20322

 Mulliken charges:
               1
     1  C   -0.319876
     2  C   -0.543461
     3  H    0.058670
     4  H    0.259887
     5  H    0.025591
     6  C   -0.286206
     7  H    0.501578
     8  H   -0.019432
     9  C   -0.141848
    10  H    0.298742
    11  H    0.022310
    12  H    0.084557
    13  H    0.055285
    14  H    0.004205
 Sum of Mulliken charges =   0.00000

 Dipole moment (field-independent basis, Debye):
    X=              0.2000    Y=             -0.4847    Z=             -0.1835  Tot=              0.5555
 Quadrupole moment (field-independent basis, Debye-Ang):
   XX=            -30.5405   YY=            -29.4080   ZZ=            -28.5775
   XY=              1.4673   XZ=             -3.1972   YZ=             -1.2464

 Normal termination of Gaussian 09 at Wed Aug 26 23:31:10 2020.
