 Gaussian 09, Revision D.01,
 Gaussian 09:  ES64L-G09RevD.01 24-Apr-2013

 --------------------
 #p B2PLYPD3/Def2QZVP
 --------------------

 ----------
 butane_opt
 ----------
 Symbolic Z-matrix:
 Charge =  0 Multiplicity = 1

                         Standard orientation:
 ---------------------------------------------------------------------
 Center     Atomic      Atomic             Coordinates (Angstroms)
 Number     Number       Type             X           Y           Z
 ---------------------------------------------------------------------
      1          6           0        1.884384    0.119140   -0.167280
      2          6           0        0.456360   -0.528598    0.211648
      3          1           0        2.675376   -0.697546   -0.204427
      4          1           0        2.407312    0.530461    0.632481
      5          1           0        2.036380    1.106946   -1.199647
      6          6           0       -0.553734    0.490646    0.209343
      7          1           0        0.879180   -1.073907    1.098450
      8          1           0        0.210817   -1.318438   -0.727923
      9          6           0       -1.885640   -0.094237   -0.210360
     10          1           0       -0.174777    0.979077   -0.472255
     11          1           0       -0.657164    1.414785    1.284980
     12          1           0       -1.666016   -0.658774   -0.966673
     13          1           0       -2.742961    0.711213   -0.367024
     14          1           0       -2.376364   -0.915524    0.661931
 ---------------------------------------------------------------------

 SCF Done:  E(RB2PLYPD3) =  -157.924478053     A.U. after   11 cycles
 E2(B2PLYPD3) =    -0.2531775087D+00 E(B2PLYPD3) =    -0.15817765556183D+03

 The electronic state is 1-A.
 Alpha  occ. eigenvalues --  -10.64189 -10.63379 -10.61940 -10.61684  -0.93955
 Alpha  occ. eigenvalues --   -0.82432  -0.73505  -0.66298  -0.53957  -0.50846
 Alpha  occ. eigenvalues --   -0.47860  -0.45984  -0.41028  -0.39782  -0.37955
 Alpha  occ. eigenvalues --   -0.37283  -0.35502
 Alpha virt. eigenvalues --    0.04889   0.05593   0.06211   0.07746   0.10649
 Alpha virt. eigenvalues --    0.11104   0.12019   0.12649   0.13338   0.14734
 Alpha virt. eigenvalues --    0.15494   0.16858   0.18791   0.19563   0.20847

 Mulliken charges:
               1
     1  C   -0.147780
     2  C   -0.041772
     3  H    0.035053
     4  H    0.049106
     5  H    0.006742
     6  C   -0.093538
     7  H    0.050757
     8  H    0.023974
     9  C   -0.154343
    10  H    0.129602
    11  H   -0.005073
    12  H    0.082207
    13  H    0.044550
    14  H    0.020514
 Sum of Mulliken charges =   0.00000

 Dipole moment (field-independent basis, Debye):
    X=              0.2191    Y=             -0.2322    Z=              0.0166  Tot=              0.3197
 Quadrupole moment (field-independent basis, Debye-Ang):
   XX=            -29.8682   YY=            -29.7497   ZZ=            -29.7150
   XY=             -0.7686   XZ=              1.6493   YZ=             -0.2951

 Normal termination of Gaussian 09 at Wed Aug 26 10:34:21 2020.
