 Gaussian 09, Revision D.01,
 Gaussian 09:  ES64L-G09RevD.01 24-Apr-2013

 --------------------
 #p B2PLYPD3/Def2QZVP
 --------------------

 ----------
 butane_opt
 ----------
 Symbolic Z-matrix:
 Charge =  0 Multiplicity = 1

                         Standard orientation:
 ---------------------------------------------------------------------
 Center     Atomic      Atomic             Coordinates (Angstroms)
 Number     Number       Type             X           Y           Z
 ---------------------------------------------------------------------
      1          6           0       -1.948521    0.105933    0.086163
      2          6           0       -0.509547   -0.629224   -0.108905
      3          1           0       -2.558331   -0.388640   -0.236688
      4          1           0       -1.854857    0.514899   -0.685591
      5          1           0       -2.382588    1.258478    1.383248
      6          6           0        0.503914    0.494646   -0.089269
      7          1           0       -0.472539   -1.352771   -0.927387
      8          1           0       -0.361023   -1.018710    0.703471
      9          6           0        1.939322   -0.088908    0.156740
     10          1           0        0.559647    0.736518    0.523781
     11          1           0        0.476482    1.334354   -1.268587
     12          1           0        2.227842   -0.740439    1.124623
     13          1           0        2.718681    0.793347   -0.308171
     14          1           0        1.735671   -0.431714   -0.577069
 ---------------------------------------------------------------------

 SCF Done:  E(RB2PLYPD3) =  -157.340906765     A.U. after   12 cycles
 E2(B2PLYPD3) =    -0.2558617284D+00 E(B2PLYPD3) =    -0.15759676849312D+03

 The electronic state is 1-A.
 Alpha  occ. eigenvalues --  -10.60488 -10.60332 -10.60274 -10.59393  -0.96962
 Alpha  occ. eigenvalues --   -0.88542  -0.77461  -0.72922  -0.57017  -0.51577
 Alpha  occ. eigenvalues --   -0.50179  -0.46500  -0.43583  -0.39925  -0.36868
 Alpha  occ. eigenvalues --   -0.36126  -0.33270
 Alpha virt. eigenvalues --    0.00185   0.04798   0.06690   0.07524   0.10714
 Alpha virt. eigenvalues --    0.10855   0.11701   0.12428   0.14563   0.15691
 Alpha virt. eigenvalues --    0.16093   0.16798   0.18075   0.19112   0.20772

 Mulliken charges:
               1
     1  C   -0.335006
     2  C   -0.049878
     3  H    0.140368
     4  H    0.141665
     5  H    0.019116
     6  C   -0.740075
     7  H    0.047562
     8  H    0.110630
     9  C   -0.379416
    10  H    0.667357
    11  H    0.019919
    12  H    0.075767
    13  H    0.043603
    14  H    0.238388
 Sum of Mulliken charges =   0.00000

 Dipole moment (field-independent basis, Debye):
    X=             -0.1810    Y=             -0.6292    Z=             -0.4709  Tot=              0.8065
 Quadrupole moment (field-independent basis, Debye-Ang):
   XX=            -31.6185   YY=            -29.1856   ZZ=            -27.1993
   XY=              0.4531   XZ=              1.6839   YZ=             -0.0518

 Normal termination of Gaussian 09 at Wed Aug 26 10:07:02 2020.
