 Gaussian 09, Revision D.01,
 Gaussian 09:  ES64L-G09RevD.01 24-Apr-2013

 --------------------
 #p B2PLYPD3/Def2QZVP
 --------------------

 ----------
 butane_opt
 ----------
 Symbolic Z-matrix:
 Charge =  0 Multiplicity = 1

                         Standard orientation:
 ---------------------------------------------------------------------
 Center     Atomic      Atomic             Coordinates (Angstroms)
 Number     Number       Type             X           Y           Z
 ---------------------------------------------------------------------
      1          6           0        1.925183    0.054413   -0.154827
      2          6           0        0.544344   -0.508696    0.150188
      3          1           0        2.623755   -0.682210   -0.274786
      4          1           0        1.983110    0.670392    0.618064
      5          1           0        1.953651    0.770800   -1.044551
      6          6           0       -0.503445    0.560367    0.299732
      7          1           0        0.354920   -1.184761    1.030684
      8          1           0        0.147986   -1.099990   -0.540933
      9          6           0       -1.872287   -0.129869   -0.189327
     10          1           0       -0.204963    1.258528   -0.622101
     11          1           0       -0.594339    1.375433    1.234700
     12          1           0       -1.662974   -0.492453   -0.980725
     13          1           0       -2.684196    0.547378   -0.810861
     14          1           0       -2.479721   -1.020407    0.755911
 ---------------------------------------------------------------------

 SCF Done:  E(RB2PLYPD3) =  -157.955725810     A.U. after   11 cycles
 E2(B2PLYPD3) =    -0.2510701179D+00 E(B2PLYPD3) =    -0.15820679592759D+03

 The electronic state is 1-A.
 Alpha  occ. eigenvalues --  -10.63973 -10.62812 -10.59857 -10.58979  -0.92431
 Alpha  occ. eigenvalues --   -0.83428  -0.74223  -0.66834  -0.53265  -0.52473
 Alpha  occ. eigenvalues --   -0.47689  -0.44950  -0.42288  -0.41889  -0.39140
 Alpha  occ. eigenvalues --   -0.36692  -0.35195
 Alpha virt. eigenvalues --    0.04999   0.06340   0.07783   0.08083   0.10256
 Alpha virt. eigenvalues --    0.11315   0.12624   0.13200   0.14385   0.15466
 Alpha virt. eigenvalues --    0.16446   0.16847   0.18610   0.19578   0.19748

 Mulliken charges:
               1
     1  C   -0.161933
     2  C   -0.042022
     3  H    0.055587
     4  H    0.080230
     5  H    0.029499
     6  C   -0.046643
     7  H    0.021129
     8  H    0.050819
     9  C   -0.249299
    10  H    0.018707
    11  H    0.043264
    12  H    0.145840
    13  H    0.027466
    14  H    0.027354
 Sum of Mulliken charges =   0.00000

 Dipole moment (field-independent basis, Debye):
    X=              0.4475    Y=             -0.1211    Z=             -0.4323  Tot=              0.6339
 Quadrupole moment (field-independent basis, Debye-Ang):
   XX=            -30.9792   YY=            -29.2049   ZZ=            -28.2410
   XY=              0.1877   XZ=              0.3874   YZ=              0.0330

 Normal termination of Gaussian 09 at Wed Aug 26 22:36:18 2020.
