 Gaussian 09, Revision D.01,
 Gaussian 09:  ES64L-G09RevD.01 24-Apr-2013

 --------------------
 #p B2PLYPD3/Def2QZVP
 --------------------

 ----------
 butane_opt
 ----------
 Symbolic Z-matrix:
 Charge =  0 Multiplicity = 1

                         Standard orientation:
 ---------------------------------------------------------------------
 Center     Atomic      Atomic             Coordinates (Angstroms)
 Number     Number       Type             X           Y           Z
 ---------------------------------------------------------------------
      1          6           0       -2.017486    0.112594    0.066130
      2          6           0       -0.460139   -0.599895   -0.212656
      3          1           0       -2.677379   -0.614732    0.693636
      4          1           0       -2.636053    0.818349   -0.719352
      5          1           0       -1.573572    0.886856    1.036972
      6          6           0        0.585736    0.517580   -0.062479
      7          1           0       -0.572958   -1.137441   -1.057253
      8          1           0       -0.285557   -0.993118    0.491662
      9          6           0        1.891484   -0.087310    0.137926
     10          1           0        0.388395    1.090346    0.752795
     11          1           0        0.562883    1.127502   -1.082813
     12          1           0        1.901699   -0.941641    1.072962
     13          1           0        2.724577    0.636202   -0.134013
     14          1           0        2.170395   -0.530143   -0.628130
 ---------------------------------------------------------------------

 SCF Done:  E(RB2PLYPD3) =  -157.900951310     A.U. after   11 cycles
 E2(B2PLYPD3) =    -0.2511169298D+00 E(B2PLYPD3) =    -0.15815206823990D+03

 The electronic state is 1-A.
 Alpha  occ. eigenvalues --  -10.64690 -10.60418 -10.59742 -10.58503  -0.93248
 Alpha  occ. eigenvalues --   -0.82886  -0.71674  -0.69075  -0.57203  -0.49524
 Alpha  occ. eigenvalues --   -0.49049  -0.47011  -0.43187  -0.39161  -0.38752
 Alpha  occ. eigenvalues --   -0.36131  -0.34757
 Alpha virt. eigenvalues --    0.05243   0.06159   0.07936   0.08855   0.10234
 Alpha virt. eigenvalues --    0.11415   0.11850   0.13271   0.14182   0.15229
 Alpha virt. eigenvalues --    0.15507   0.16276   0.18551   0.19358   0.21611

 Mulliken charges:
               1
     1  C   -0.218698
     2  C   -0.231741
     3  H    0.055018
     4  H    0.071519
     5  H    0.005482
     6  C   -0.019914
     7  H    0.060827
     8  H    0.223905
     9  C   -0.166678
    10  H    0.080416
    11  H    0.008226
    12  H    0.028331
    13  H    0.030530
    14  H    0.072776
 Sum of Mulliken charges =   0.00000

 Dipole moment (field-independent basis, Debye):
    X=              0.3826    Y=             -0.3901    Z=             -0.3981  Tot=              0.6761
 Quadrupole moment (field-independent basis, Debye-Ang):
   XX=            -30.4283   YY=            -29.3209   ZZ=            -28.2148
   XY=              0.1902   XZ=             -0.5790   YZ=             -0.7503

 Normal termination of Gaussian 09 at Wed Aug 26 19:01:16 2020.
