 Gaussian 09, Revision D.01,
 Gaussian 09:  ES64L-G09RevD.01 24-Apr-2013

 --------------------
 #p B2PLYPD3/Def2QZVP
 --------------------

 ----------
 butane_opt
 ----------
 Symbolic Z-matrix:
 Charge =  0 Multiplicity = 1

                         Standard orientation:
 ---------------------------------------------------------------------
 Center     Atomic      Atomic             Coordinates (Angstroms)
 Number     Number       Type             X           Y           Z
 ---------------------------------------------------------------------
      1          6           0        1.947140   -0.049616   -0.180258
      2          6           0        0.614040    0.484047    0.169816
      3          1           0        2.630841    0.422308   -0.387463
      4          1           0        1.970182   -0.549823   -1.072858
      5          1           0        2.338569   -0.766530    0.752838
      6          6           0       -0.537186   -0.638194    0.176532
      7          1           0        0.224803    0.873460   -0.388541
      8          1           0        0.620701    1.659367    1.357503
      9          6           0       -2.056990    0.159327   -0.185599
     10          1           0       -0.600516   -1.400008    1.058777
     11          1           0       -0.077324   -0.907474   -0.558265
     12          1           0       -2.389908    0.579339    0.662662
     13          1           0       -2.667726   -0.461992   -0.160538
     14          1           0       -1.851643    0.817962   -1.147063
 ---------------------------------------------------------------------

 SCF Done:  E(RB2PLYPD3) =  -157.705352955     A.U. after   12 cycles
 E2(B2PLYPD3) =    -0.2508615084D+00 E(B2PLYPD3) =    -0.15795621446300D+03

 The electronic state is 1-A.
 Alpha  occ. eigenvalues --  -10.62509 -10.61907 -10.59580 -10.58884  -0.94342
 Alpha  occ. eigenvalues --   -0.85255  -0.79968  -0.70292  -0.55938  -0.52458
 Alpha  occ. eigenvalues --   -0.49998  -0.47616  -0.44970  -0.43202  -0.37626
 Alpha  occ. eigenvalues --   -0.37176  -0.32312
 Alpha virt. eigenvalues --    0.04112   0.06072   0.06680   0.08431   0.10471
 Alpha virt. eigenvalues --    0.11876   0.12728   0.13825   0.14815   0.14912
 Alpha virt. eigenvalues --    0.15965   0.16768   0.18188   0.19221   0.21472

 Mulliken charges:
               1
     1  C   -0.156654
     2  C   -0.313978
     3  H    0.105685
     4  H    0.026794
     5  H    0.037174
     6  C   -0.168373
     7  H    0.316410
     8  H   -0.068592
     9  C   -0.216062
    10  H    0.044047
    11  H    0.159403
    12  H    0.058400
    13  H    0.112808
    14  H    0.062939
 Sum of Mulliken charges =   0.00000

 Dipole moment (field-independent basis, Debye):
    X=             -0.1585    Y=             -0.6362    Z=             -1.0794  Tot=              1.2629
 Quadrupole moment (field-independent basis, Debye-Ang):
   XX=            -26.7243   YY=            -30.6128   ZZ=            -28.5946
   XY=             -0.0995   XZ=             -2.0618   YZ=             -1.8329

 Normal termination of Gaussian 09 at Wed Aug 26 13:31:56 2020.
