 Gaussian 09, Revision D.01,
 Gaussian 09:  ES64L-G09RevD.01 24-Apr-2013

 --------------------
 #p B2PLYPD3/Def2QZVP
 --------------------

 ----------
 butane_opt
 ----------
 Symbolic Z-matrix:
 Charge =  0 Multiplicity = 1

                         Standard orientation:
 ---------------------------------------------------------------------
 Center     Atomic      Atomic             Coordinates (Angstroms)
 Number     Number       Type             X           Y           Z
 ---------------------------------------------------------------------
      1          6           0       -2.033896   -0.166154   -0.116702
      2          6           0       -0.554408    0.575129    0.161373
      3          1           0       -2.687441    0.563224   -0.561340
      4          1           0       -2.526449   -0.967173    0.976526
      5          1           0       -1.901254   -0.626116   -0.868293
      6          6           0        0.577272   -0.502769    0.046542
      7          1           0       -0.604380    1.423251    1.105993
      8          1           0       -0.301553    1.036362   -0.623064
      9          6           0        1.995253    0.123768   -0.149459
     10          1           0        0.163130   -0.787557   -0.488349
     11          1           0        0.769997   -1.338354    0.940303
     12          1           0        1.965633    0.609807   -0.797199
     13          1           0        2.942725   -0.942261   -0.090600
     14          1           0        2.274260    0.848972    0.755504
 ---------------------------------------------------------------------

 SCF Done:  E(RB2PLYPD3) =  -157.652666210     A.U. after   11 cycles
 E2(B2PLYPD3) =    -0.2511950941D+00 E(B2PLYPD3) =    -0.15790386130452D+03

 The electronic state is 1-A.
 Alpha  occ. eigenvalues --  -10.62585 -10.62124 -10.61781 -10.59166  -0.94184
 Alpha  occ. eigenvalues --   -0.83915  -0.77760  -0.70167  -0.56132  -0.49889
 Alpha  occ. eigenvalues --   -0.47682  -0.45420  -0.43177  -0.41093  -0.38550
 Alpha  occ. eigenvalues --   -0.37542  -0.34981
 Alpha virt. eigenvalues --    0.04601   0.05225   0.08086   0.08918   0.10014
 Alpha virt. eigenvalues --    0.10554   0.11650   0.13002   0.14062   0.15449
 Alpha virt. eigenvalues --    0.15844   0.16330   0.18714   0.19392   0.20783

 Mulliken charges:
               1
     1  C   -0.256343
     2  C   -0.109743
     3  H    0.050568
     4  H    0.046957
     5  H    0.132810
     6  C   -0.432114
     7  H    0.024505
     8  H    0.105810
     9  C   -0.309534
    10  H    0.409238
    11  H    0.029095
    12  H    0.219489
    13  H    0.030303
    14  H    0.058961
 Sum of Mulliken charges =   0.00000

 Dipole moment (field-independent basis, Debye):
    X=             -0.1504    Y=              0.3075    Z=             -0.8048  Tot=              0.8746
 Quadrupole moment (field-independent basis, Debye-Ang):
   XX=            -30.8117   YY=            -28.9244   ZZ=            -28.2866
   XY=              0.3323   XZ=              1.1409   YZ=             -0.5937

 Normal termination of Gaussian 09 at Wed Aug 26 14:30:59 2020.
