 Gaussian 09, Revision D.01,
 Gaussian 09:  ES64L-G09RevD.01 24-Apr-2013

 --------------------
 #p B2PLYPD3/Def2QZVP
 --------------------

 ----------
 butane_opt
 ----------
 Symbolic Z-matrix:
 Charge =  0 Multiplicity = 1

                         Standard orientation:
 ---------------------------------------------------------------------
 Center     Atomic      Atomic             Coordinates (Angstroms)
 Number     Number       Type             X           Y           Z
 ---------------------------------------------------------------------
      1          6           0        1.915960    0.066462    0.053187
      2          6           0        0.565138   -0.397866   -0.114245
      3          1           0        2.778216   -0.888355   -0.107510
      4          1           0        1.697038    0.880330    1.063216
      5          1           0        1.896185    0.242855   -0.478843
      6          6           0       -0.524876    0.592334    0.006467
      7          1           0        0.413849   -1.073685    0.666228
      8          1           0        0.427110   -1.200149   -1.184097
      9          6           0       -1.885336   -0.169902    0.049515
     10          1           0       -0.344662    1.341040   -0.876792
     11          1           0       -0.089960    1.333748    0.859881
     12          1           0       -2.030739   -0.315552   -0.519414
     13          1           0       -2.741027    0.536106   -0.603499
     14          1           0       -2.431330   -1.402500    1.211286
 ---------------------------------------------------------------------

 SCF Done:  E(RB2PLYPD3) =  -156.740424899     A.U. after   13 cycles
 E2(B2PLYPD3) =    -0.2613546219D+00 E(B2PLYPD3) =    -0.15700177952058D+03

 The electronic state is 1-A.
 Alpha  occ. eigenvalues --  -10.64862 -10.64817 -10.61577 -10.61038  -0.97658
 Alpha  occ. eigenvalues --   -0.92760  -0.80731  -0.67057  -0.55236  -0.53070
 Alpha  occ. eigenvalues --   -0.47999  -0.44508  -0.42066  -0.38494  -0.36904
 Alpha  occ. eigenvalues --   -0.35631  -0.34899
 Alpha virt. eigenvalues --   -0.01312   0.04560   0.05482   0.06193   0.09495
 Alpha virt. eigenvalues --    0.09955   0.12166   0.12399   0.13583   0.15215
 Alpha virt. eigenvalues --    0.15549   0.16485   0.17276   0.18977   0.19946

 Mulliken charges:
               1
     1  C   -0.937122
     2  C    0.050768
     3  H    0.077589
     4  H    0.070040
     5  H    0.703371
     6  C   -0.006644
     7  H    0.058330
     8  H   -0.024652
     9  C   -0.815063
    10  H    0.025412
    11  H    0.024227
    12  H    0.699290
    13  H    0.018450
    14  H    0.056005
 Sum of Mulliken charges =   0.00000

 Dipole moment (field-independent basis, Debye):
    X=              0.0255    Y=             -0.0753    Z=             -0.5735  Tot=              0.5789
 Quadrupole moment (field-independent basis, Debye-Ang):
   XX=            -31.8270   YY=            -29.2317   ZZ=            -28.3877
   XY=              0.8599   XZ=              0.9806   YZ=             -0.8126

 Normal termination of Gaussian 09 at Wed Aug 26 11:56:40 2020.
