 Gaussian 09, Revision D.01,
 Gaussian 09:  ES64L-G09RevD.01 24-Apr-2013

 --------------------
 #p B2PLYPD3/Def2QZVP
 --------------------

 ----------
 butane_opt
 ----------
 Symbolic Z-matrix:
 Charge =  0 Multiplicity = 1

                         Standard orientation:
 ---------------------------------------------------------------------
 Center     Atomic      Atomic             Coordinates (Angstroms)
 Number     Number       Type             X           Y           Z
 ---------------------------------------------------------------------
      1          6           0        1.997422   -0.187384   -0.086883
      2          6           0        0.500202    0.583251   -0.009131
      3          1           0        2.710805    0.448239   -0.240222
      4          1           0        2.053880   -0.929376   -0.860720
      5          1           0        2.396919   -0.528674    0.596087
      6          6           0       -0.569507   -0.419709    0.309485
      7          1           0        0.324905    0.717359   -0.687027
      8          1           0        0.441291    1.741616    0.856590
      9          6           0       -1.922747   -0.021934   -0.164530
     10          1           0       -0.680140   -0.958672    1.551666
     11          1           0       -0.432166   -0.832624   -0.270234
     12          1           0       -2.656500    0.879212    0.627657
     13          1           0       -2.645263   -0.623488   -0.711807
     14          1           0       -1.545950    0.361065   -1.155633
 ---------------------------------------------------------------------

 SCF Done:  E(RB2PLYPD3) =  -157.500248917     A.U. after   11 cycles
 E2(B2PLYPD3) =    -0.2511656003D+00 E(B2PLYPD3) =    -0.15775141451749D+03

 The electronic state is 1-A.
 Alpha  occ. eigenvalues --  -10.63346 -10.61924 -10.59910 -10.57125  -0.98063
 Alpha  occ. eigenvalues --   -0.86144  -0.79068  -0.70719  -0.55899  -0.50837
 Alpha  occ. eigenvalues --   -0.49168  -0.48232  -0.44942  -0.40382  -0.39400
 Alpha  occ. eigenvalues --   -0.37308  -0.34024
 Alpha virt. eigenvalues --    0.04792   0.06633   0.07081   0.08076   0.10311
 Alpha virt. eigenvalues --    0.11233   0.11964   0.13848   0.14497   0.14686
 Alpha virt. eigenvalues --    0.15907   0.17448   0.18394   0.19418   0.21244

 Mulliken charges:
               1
     1  C   -0.160794
     2  C   -0.515335
     3  H    0.044405
     4  H    0.021249
     5  H    0.103676
     6  C   -0.555306
     7  H    0.502972
     8  H    0.016516
     9  C   -0.139194
    10  H    0.031403
    11  H    0.550420
    12  H    0.019802
    13  H    0.065704
    14  H    0.014482
 Sum of Mulliken charges =   0.00000

 Dipole moment (field-independent basis, Debye):
    X=              0.4461    Y=             -0.5184    Z=             -0.7478  Tot=              1.0134
 Quadrupole moment (field-independent basis, Debye-Ang):
   XX=            -28.1282   YY=            -30.1167   ZZ=            -27.9633
   XY=              0.2412   XZ=              0.7418   YZ=              0.9796

 Normal termination of Gaussian 09 at Wed Aug 26 14:02:15 2020.
