 Gaussian 09, Revision D.01,
 Gaussian 09:  ES64L-G09RevD.01 24-Apr-2013

 --------------------
 #p B2PLYPD3/Def2QZVP
 --------------------

 ----------
 butane_opt
 ----------
 Symbolic Z-matrix:
 Charge =  0 Multiplicity = 1

                         Standard orientation:
 ---------------------------------------------------------------------
 Center     Atomic      Atomic             Coordinates (Angstroms)
 Number     Number       Type             X           Y           Z
 ---------------------------------------------------------------------
      1          6           0       -1.925507   -0.197944   -0.122857
      2          6           0       -0.530529    0.519661   -0.010498
      3          1           0       -2.674637    0.361010   -0.360744
      4          1           0       -2.204834   -0.275802    0.619263
      5          1           0       -1.981801   -1.349726   -0.638357
      6          6           0        0.524396   -0.245639    0.471072
      7          1           0       -0.543219    1.511053    0.645627
      8          1           0       -0.304541    0.837018   -1.266048
      9          6           0        1.897823    0.019002   -0.253686
     10          1           0        0.130939   -0.945927   -0.063081
     11          1           0        0.781659   -0.680593    1.630391
     12          1           0        1.687920    0.026525   -0.899082
     13          1           0        2.891317   -1.222384   -0.589156
     14          1           0        2.420099    1.168345    0.417004
 ---------------------------------------------------------------------

 SCF Done:  E(RB2PLYPD3) =  -157.485876926     A.U. after   12 cycles
 E2(B2PLYPD3) =    -0.2557014243D+00 E(B2PLYPD3) =    -0.15774157835028D+03

 The electronic state is 1-A.
 Alpha  occ. eigenvalues --  -10.65144 -10.64179 -10.60820 -10.58186  -0.96477
 Alpha  occ. eigenvalues --   -0.87955  -0.80142  -0.65629  -0.57065  -0.51567
 Alpha  occ. eigenvalues --   -0.48477  -0.46836  -0.43737  -0.41660  -0.37394
 Alpha  occ. eigenvalues --   -0.35460  -0.33250
 Alpha virt. eigenvalues --    0.02319   0.05483   0.06433   0.06976   0.08945
 Alpha virt. eigenvalues --    0.10202   0.11754   0.13431   0.13607   0.14713
 Alpha virt. eigenvalues --    0.15378   0.16667   0.18019   0.19341   0.20444

 Mulliken charges:
               1
     1  C   -0.290786
     2  C   -0.028516
     3  H    0.045625
     4  H    0.212822
     5  H    0.035974
     6  C   -0.051309
     7  H    0.018084
     8  H    0.019231
     9  C   -0.634478
    10  H    0.081647
    11  H    0.045493
    12  H    0.508403
    13  H   -0.014219
    14  H    0.052028
 Sum of Mulliken charges =   0.00000

 Dipole moment (field-independent basis, Debye):
    X=             -1.3039    Y=              0.0833    Z=              0.1578  Tot=              1.3160
 Quadrupole moment (field-independent basis, Debye-Ang):
   XX=            -31.2102   YY=            -29.8326   ZZ=            -28.7773
   XY=              0.7090   XZ=             -0.2055   YZ=              0.9349

 Normal termination of Gaussian 09 at Wed Aug 26 11:46:31 2020.
