 Gaussian 09, Revision D.01,
 Gaussian 09:  ES64L-G09RevD.01 24-Apr-2013

 --------------------
 #p B2PLYPD3/Def2QZVP
 --------------------

 ----------
 butane_opt
 ----------
 Symbolic Z-matrix:
 Charge =  0 Multiplicity = 1

                         Standard orientation:
 ---------------------------------------------------------------------
 Center     Atomic      Atomic             Coordinates (Angstroms)
 Number     Number       Type             X           Y           Z
 ---------------------------------------------------------------------
      1          6           0        1.939101    0.104330   -0.105374
      2          6           0        0.539982   -0.448252    0.114507
      3          1           0        2.813489   -0.793616   -0.104712
      4          1           0        2.075399    0.540282    0.622211
      5          1           0        1.873659    0.869279   -1.000453
      6          6           0       -0.564664    0.543332    0.105232
      7          1           0        0.445206   -1.165017    1.052086
      8          1           0        0.407699   -1.077796   -0.684283
      9          6           0       -1.951834   -0.140808   -0.121058
     10          1           0       -0.423487    0.810929   -0.533425
     11          1           0       -0.312644    1.437136    1.078818
     12          1           0       -1.789464   -0.664594   -0.936839
     13          1           0       -2.640305    0.508601   -0.321922
     14          1           0       -2.225063   -0.816812    0.868673
 ---------------------------------------------------------------------

 SCF Done:  E(RB2PLYPD3) =  -157.765196555     A.U. after   11 cycles
 E2(B2PLYPD3) =    -0.2475650083D+00 E(B2PLYPD3) =    -0.15801276156361D+03

 The electronic state is 1-A.
 Alpha  occ. eigenvalues --  -10.59905 -10.59723 -10.59427 -10.58778  -0.95148
 Alpha  occ. eigenvalues --   -0.85269  -0.76261  -0.68916  -0.55622  -0.51245
 Alpha  occ. eigenvalues --   -0.48644  -0.47910  -0.42713  -0.42020  -0.38965
 Alpha  occ. eigenvalues --   -0.37842  -0.36970
 Alpha virt. eigenvalues --    0.05507   0.06759   0.07779   0.08626   0.10845
 Alpha virt. eigenvalues --    0.12108   0.12526   0.13724   0.14698   0.15566
 Alpha virt. eigenvalues --    0.15689   0.16536   0.18767   0.19578   0.22243

 Mulliken charges:
               1
     1  C   -0.247267
     2  C    0.008666
     3  H    0.036585
     4  H    0.152774
     5  H    0.036159
     6  C   -0.610220
     7  H    0.006155
     8  H    0.042941
     9  C   -0.118010
    10  H    0.509971
    11  H    0.020238
    12  H    0.064588
    13  H    0.060276
    14  H    0.037144
 Sum of Mulliken charges =   0.00000

 Dipole moment (field-independent basis, Debye):
    X=             -0.1150    Y=              0.0831    Z=             -0.4308  Tot=              0.4536
 Quadrupole moment (field-independent basis, Debye-Ang):
   XX=            -29.5150   YY=            -29.1579   ZZ=            -27.9261
   XY=             -0.3641   XZ=              1.1145   YZ=             -0.2988

 Normal termination of Gaussian 09 at Wed Aug 26 10:34:28 2020.
