 Gaussian 09, Revision D.01,
 Gaussian 09:  ES64L-G09RevD.01 24-Apr-2013

 --------------------
 #p B2PLYPD3/Def2QZVP
 --------------------

 ----------
 butane_opt
 ----------
 Symbolic Z-matrix:
 Charge =  0 Multiplicity = 1

                         Standard orientation:
 ---------------------------------------------------------------------
 Center     Atomic      Atomic             Coordinates (Angstroms)
 Number     Number       Type             X           Y           Z
 ---------------------------------------------------------------------
      1          6           0        2.012585   -0.138958    0.104033
      2          6           0        0.554574    0.568111   -0.060817
      3          1           0        2.731784    0.492420   -0.250891
      4          1           0        2.130239   -0.457294   -0.636051
      5          1           0        2.259329   -1.047374    1.110685
      6          6           0       -0.633704   -0.502365   -0.130844
      7          1           0        0.597780    1.293050   -0.979444
      8          1           0        0.249933    1.061326    0.730672
      9          6           0       -1.919968    0.083523    0.070535
     10          1           0       -0.483584   -1.145428    0.615298
     11          1           0       -0.581943   -1.104057   -1.004155
     12          1           0       -2.156177    1.040455    1.186234
     13          1           0       -2.697072   -0.756875   -0.067906
     14          1           0       -2.131211    0.561913   -0.601877
 ---------------------------------------------------------------------

 SCF Done:  E(RB2PLYPD3) =  -157.821986837     A.U. after   11 cycles
 E2(B2PLYPD3) =    -0.2492876608D+00 E(B2PLYPD3) =    -0.15807127449754D+03

 The electronic state is 1-A.
 Alpha  occ. eigenvalues --  -10.61313 -10.60553 -10.59161 -10.58964  -0.92556
 Alpha  occ. eigenvalues --   -0.86942  -0.76362  -0.69275  -0.53997  -0.49510
 Alpha  occ. eigenvalues --   -0.49058  -0.45794  -0.43291  -0.41480  -0.38894
 Alpha  occ. eigenvalues --   -0.37283  -0.35556
 Alpha virt. eigenvalues --    0.04991   0.05668   0.07519   0.07955   0.10648
 Alpha virt. eigenvalues --    0.11582   0.12071   0.13258   0.14133   0.15466
 Alpha virt. eigenvalues --    0.16049   0.16281   0.18809   0.19359   0.21459

 Mulliken charges:
               1
     1  C   -0.338684
     2  C   -0.054305
     3  H    0.037769
     4  H    0.215495
     5  H    0.050685
     6  C   -0.011408
     7  H    0.008278
     8  H    0.070703
     9  C   -0.240150
    10  H    0.051782
    11  H    0.024511
    12  H    0.001559
    13  H    0.038467
    14  H    0.145298
 Sum of Mulliken charges =   0.00000

 Dipole moment (field-independent basis, Debye):
    X=              0.0995    Y=             -0.2896    Z=             -0.9080  Tot=              0.9583
 Quadrupole moment (field-independent basis, Debye-Ang):
   XX=            -29.8750   YY=            -28.6511   ZZ=            -28.2197
   XY=              0.0650   XZ=             -0.2099   YZ=             -0.5364

 Normal termination of Gaussian 09 at Wed Aug 26 22:35:05 2020.
