 Gaussian 09, Revision D.01,
 Gaussian 09:  ES64L-G09RevD.01 24-Apr-2013

 --------------------
 #p B2PLYPD3/Def2QZVP
 --------------------

 ----------
 butane_opt
 ----------
 Symbolic Z-matrix:
 Charge =  0 Multiplicity = 1

                         Standard orientation:
 ---------------------------------------------------------------------
 Center     Atomic      Atomic             Coordinates (Angstroms)
 Number     Number       Type             X           Y           Z
 ---------------------------------------------------------------------
      1          6           0       -1.978017    0.028868    0.141522
      2          6           0       -0.593232   -0.423954   -0.274481
      3          1           0       -2.889445   -0.829230    0.312582
      4          1           0       -2.343477    0.587135   -0.467699
      5          1           0       -1.795667    0.858190    1.288359
      6          6           0        0.496282    0.678356   -0.156591
      7          1           0       -0.391202   -1.050897   -1.184481
      8          1           0       -0.597336   -1.169521    0.450414
      9          6           0        2.054549   -0.148535    0.181648
     10          1           0        0.438658    1.002717    0.463370
     11          1           0        0.658099    1.323072   -0.979303
     12          1           0        1.913294   -1.036980    1.002571
     13          1           0        2.557613    0.201401    0.549136
     14          1           0        2.571979   -0.694291   -0.787535
 ---------------------------------------------------------------------

 SCF Done:  E(RB2PLYPD3) =  -157.557892558     A.U. after   11 cycles
 E2(B2PLYPD3) =    -0.2495880138D+00 E(B2PLYPD3) =    -0.15780748057187D+03

 The electronic state is 1-A.
 Alpha  occ. eigenvalues --  -10.62916 -10.60670 -10.59587 -10.59161  -0.92090
 Alpha  occ. eigenvalues --   -0.84712  -0.79245  -0.70305  -0.56729  -0.49559
 Alpha  occ. eigenvalues --   -0.49214  -0.47585  -0.42696  -0.40181  -0.39180
 Alpha  occ. eigenvalues --   -0.37429  -0.34745
 Alpha virt. eigenvalues --    0.04622   0.06052   0.08084   0.08680   0.10457
 Alpha virt. eigenvalues --    0.11038   0.12650   0.13698   0.14291   0.15490
 Alpha virt. eigenvalues --    0.15597   0.17131   0.18374   0.19303   0.21751

 Mulliken charges:
               1
     1  C   -0.199544
     2  C    0.015888
     3  H    0.039799
     4  H    0.104543
     5  H    0.002987
     6  C   -0.534536
     7  H    0.030628
     8  H    0.053802
     9  C   -0.522147
    10  H    0.481596
    11  H    0.072491
    12  H    0.034749
    13  H    0.372232
    14  H    0.047513
 Sum of Mulliken charges =   0.00000

 Dipole moment (field-independent basis, Debye):
    X=             -0.0716    Y=              0.2644    Z=             -0.1895  Tot=              0.3331
 Quadrupole moment (field-independent basis, Debye-Ang):
   XX=            -29.1213   YY=            -28.3010   ZZ=            -28.4585
   XY=              0.9989   XZ=              0.8594   YZ=             -0.0638

 Normal termination of Gaussian 09 at Wed Aug 26 10:36:22 2020.
