 Gaussian 09, Revision D.01,
 Gaussian 09:  ES64L-G09RevD.01 24-Apr-2013

 --------------------
 #p B2PLYPD3/Def2QZVP
 --------------------

 ----------
 butane_opt
 ----------
 Symbolic Z-matrix:
 Charge =  0 Multiplicity = 1

                         Standard orientation:
 ---------------------------------------------------------------------
 Center     Atomic      Atomic             Coordinates (Angstroms)
 Number     Number       Type             X           Y           Z
 ---------------------------------------------------------------------
      1          6           0       -1.975097    0.078387   -0.031908
      2          6           0       -0.672830   -0.501183    0.048570
      3          1           0       -2.940233   -0.880042   -0.018841
      4          1           0       -1.924437    1.145987   -0.978069
      5          1           0       -1.975204    0.433464    0.608671
      6          6           0        0.526889    0.577876    0.183400
      7          1           0       -0.433664   -1.206510   -0.927378
      8          1           0       -0.509915   -0.759914    0.687048
      9          6           0        1.999540   -0.185275   -0.127401
     10          1           0        0.428929    1.276495    1.193709
     11          1           0        0.597432    1.183697   -0.751895
     12          1           0        2.766673   -1.122540    0.961963
     13          1           0        2.788234    0.586241   -0.473544
     14          1           0        1.931171   -0.475702   -0.737627
 ---------------------------------------------------------------------

 SCF Done:  E(RB2PLYPD3) =  -157.265580178     A.U. after   11 cycles
 E2(B2PLYPD3) =    -0.2542692938D+00 E(B2PLYPD3) =    -0.15751984947199D+03

 The electronic state is 1-A.
 Alpha  occ. eigenvalues --  -10.65241 -10.62720 -10.61576 -10.58837  -0.95979
 Alpha  occ. eigenvalues --   -0.87987  -0.78326  -0.69945  -0.57854  -0.50054
 Alpha  occ. eigenvalues --   -0.46915  -0.45311  -0.44946  -0.40725  -0.39097
 Alpha  occ. eigenvalues --   -0.35376  -0.34894
 Alpha virt. eigenvalues --    0.03549   0.03943   0.07401   0.07599   0.09182
 Alpha virt. eigenvalues --    0.10247   0.11443   0.12129   0.13625   0.14841
 Alpha virt. eigenvalues --    0.15480   0.16207   0.17882   0.19225   0.20004

 Mulliken charges:
               1
     1  C   -0.494347
     2  C   -0.503206
     3  H    0.050960
     4  H    0.023216
     5  H    0.407246
     6  C   -0.039416
     7  H    0.037748
     8  H    0.500255
     9  C   -0.630087
    10  H    0.039275
    11  H    0.044123
    12  H    0.003641
    13  H    0.068456
    14  H    0.492135
 Sum of Mulliken charges =   0.00000

 Dipole moment (field-independent basis, Debye):
    X=             -0.1521    Y=              0.2499    Z=             -0.0120  Tot=              0.2928
 Quadrupole moment (field-independent basis, Debye-Ang):
   XX=            -31.8781   YY=            -29.4668   ZZ=            -28.0483
   XY=              1.4542   XZ=             -2.5185   YZ=              0.0453

 Normal termination of Gaussian 09 at Wed Aug 26 22:08:11 2020.
