 Gaussian 09, Revision D.01,
 Gaussian 09:  ES64L-G09RevD.01 24-Apr-2013

 --------------------
 #p B2PLYPD3/Def2QZVP
 --------------------

 ----------
 butane_opt
 ----------
 Symbolic Z-matrix:
 Charge =  0 Multiplicity = 1

                         Standard orientation:
 ---------------------------------------------------------------------
 Center     Atomic      Atomic             Coordinates (Angstroms)
 Number     Number       Type             X           Y           Z
 ---------------------------------------------------------------------
      1          6           0        1.928028   -0.187183   -0.158076
      2          6           0        0.525370    0.530556    0.119492
      3          1           0        2.781343    0.680868   -0.603703
      4          1           0        1.999097   -1.101826   -0.824922
      5          1           0        2.202261   -0.623667    0.783890
      6          6           0       -0.575381   -0.387332    0.293323
      7          1           0        0.071991    0.779880   -0.720232
      8          1           0        0.679026    1.563609    1.093656
      9          6           0       -1.905990    0.030881   -0.185248
     10          1           0       -0.434492   -1.006484    1.289214
     11          1           0       -0.365806   -0.742275   -0.310727
     12          1           0       -2.515631    0.798351    0.591216
     13          1           0       -2.659138   -0.883120   -0.432674
     14          1           0       -1.590813    0.613130   -1.282656
 ---------------------------------------------------------------------

 SCF Done:  E(RB2PLYPD3) =  -157.781231572     A.U. after   11 cycles
 E2(B2PLYPD3) =    -0.2529761169D+00 E(B2PLYPD3) =    -0.15803420768928D+03

 The electronic state is 1-A.
 Alpha  occ. eigenvalues --  -10.65291 -10.63327 -10.62924 -10.57619  -0.98678
 Alpha  occ. eigenvalues --   -0.81839  -0.73049  -0.66893  -0.56891  -0.50083
 Alpha  occ. eigenvalues --   -0.47024  -0.46219  -0.41740  -0.40549  -0.38927
 Alpha  occ. eigenvalues --   -0.37518  -0.35137
 Alpha virt. eigenvalues --    0.04948   0.06008   0.07145   0.07944   0.10442
 Alpha virt. eigenvalues --    0.11253   0.11878   0.12409   0.13934   0.15026
 Alpha virt. eigenvalues --    0.15419   0.16465   0.18455   0.19601   0.20939

 Mulliken charges:
               1
     1  C   -0.166686
     2  C   -0.052248
     3  H    0.045718
     4  H    0.037314
     5  H    0.062576
     6  C   -0.603235
     7  H    0.092966
     8  H   -0.004235
     9  C   -0.133476
    10  H    0.043975
    11  H    0.552964
    12  H    0.043762
    13  H    0.056130
    14  H    0.024475
 Sum of Mulliken charges =   0.00000

 Dipole moment (field-independent basis, Debye):
    X=             -0.0785    Y=             -0.6930    Z=             -0.2912  Tot=              0.7557
 Quadrupole moment (field-independent basis, Debye-Ang):
   XX=            -30.1887   YY=            -29.9836   ZZ=            -28.9732
   XY=             -0.0820   XZ=             -0.1575   YZ=              0.2054

 Normal termination of Gaussian 09 at Wed Aug 26 22:12:38 2020.
