 Gaussian 09, Revision D.01,
 Gaussian 09:  ES64L-G09RevD.01 24-Apr-2013

 --------------------
 #p B2PLYPD3/Def2QZVP
 --------------------

 ----------
 butane_opt
 ----------
 Symbolic Z-matrix:
 Charge =  0 Multiplicity = 1

                         Standard orientation:
 ---------------------------------------------------------------------
 Center     Atomic      Atomic             Coordinates (Angstroms)
 Number     Number       Type             X           Y           Z
 ---------------------------------------------------------------------
      1          6           0        2.043404   -0.133491    0.041660
      2          6           0        0.512622    0.552658   -0.119836
      3          1           0        2.698741    0.477418   -0.110444
      4          1           0        1.909771   -0.873764   -0.745358
      5          1           0        2.396359   -0.892173    1.051728
      6          6           0       -0.616893   -0.461928   -0.042693
      7          1           0        0.506116    1.280545   -0.994096
      8          1           0        0.510369    1.359258    0.803908
      9          6           0       -2.009708    0.115695    0.051614
     10          1           0       -0.377217   -1.356620    0.944063
     11          1           0       -0.541774   -0.937958   -0.832597
     12          1           0       -2.016864    1.039429    1.192250
     13          1           0       -2.855039   -0.868831   -0.296294
     14          1           0       -1.807010    0.335095   -0.597630
 ---------------------------------------------------------------------

 SCF Done:  E(RB2PLYPD3) =  -157.672583050     A.U. after   11 cycles
 E2(B2PLYPD3) =    -0.2543917827D+00 E(B2PLYPD3) =    -0.15792697483289D+03

 The electronic state is 1-A.
 Alpha  occ. eigenvalues --  -10.64307 -10.62298 -10.62003 -10.61379  -0.95415
 Alpha  occ. eigenvalues --   -0.84583  -0.75086  -0.66596  -0.53753  -0.51752
 Alpha  occ. eigenvalues --   -0.48431  -0.45030  -0.41971  -0.40752  -0.38076
 Alpha  occ. eigenvalues --   -0.35804  -0.34512
 Alpha virt. eigenvalues --    0.03490   0.05843   0.07154   0.07529   0.09614
 Alpha virt. eigenvalues --    0.10736   0.11802   0.12768   0.13307   0.14604
 Alpha virt. eigenvalues --    0.15481   0.16621   0.18399   0.19001   0.19750

 Mulliken charges:
               1
     1  C   -0.187612
     2  C   -0.034714
     3  H    0.100363
     4  H    0.046868
     5  H    0.033771
     6  C   -0.068390
     7  H    0.031008
     8  H   -0.003615
     9  C   -0.628442
    10  H    0.006588
    11  H    0.098411
    12  H    0.062447
    13  H    0.049793
    14  H    0.493524
 Sum of Mulliken charges =   0.00000

 Dipole moment (field-independent basis, Debye):
    X=              0.4154    Y=              0.1646    Z=             -0.8055  Tot=              0.9212
 Quadrupole moment (field-independent basis, Debye-Ang):
   XX=            -31.1082   YY=            -29.2767   ZZ=            -28.6510
   XY=              1.1188   XZ=              0.6732   YZ=              0.6755

 Normal termination of Gaussian 09 at Wed Aug 26 13:06:13 2020.
