 Gaussian 09, Revision D.01,
 Gaussian 09:  ES64L-G09RevD.01 24-Apr-2013

 --------------------
 #p B2PLYPD3/Def2QZVP
 --------------------

 ----------
 butane_opt
 ----------
 Symbolic Z-matrix:
 Charge =  0 Multiplicity = 1

                         Standard orientation:
 ---------------------------------------------------------------------
 Center     Atomic      Atomic             Coordinates (Angstroms)
 Number     Number       Type             X           Y           Z
 ---------------------------------------------------------------------
      1          6           0        1.957854    0.090648   -0.030143
      2          6           0        0.608389   -0.454348    0.074357
      3          1           0        2.784459   -0.826762   -0.389448
      4          1           0        2.322290    1.049087    0.945031
      5          1           0        1.880241    0.429182   -0.704430
      6          6           0       -0.569579    0.539823   -0.078936
      7          1           0        0.479240   -1.002258    1.088582
      8          1           0        0.501403   -1.086864   -0.713603
      9          6           0       -1.981703   -0.179457    0.007866
     10          1           0       -0.426433    1.041584   -0.901344
     11          1           0       -0.647946    1.320810    0.781565
     12          1           0       -2.211643   -0.652543   -0.707695
     13          1           0       -2.682724    0.473348   -0.178848
     14          1           0       -2.088654   -0.725575    0.941324
 ---------------------------------------------------------------------

 SCF Done:  E(RB2PLYPD3) =  -157.839797685     A.U. after   11 cycles
 E2(B2PLYPD3) =    -0.2473851089D+00 E(B2PLYPD3) =    -0.15808718279393D+03

 The electronic state is 1-A.
 Alpha  occ. eigenvalues --  -10.60528 -10.60406 -10.60117 -10.56457  -0.93264
 Alpha  occ. eigenvalues --   -0.86723  -0.76312  -0.68055  -0.55233  -0.51833
 Alpha  occ. eigenvalues --   -0.48768  -0.46457  -0.44577  -0.40581  -0.38927
 Alpha  occ. eigenvalues --   -0.38022  -0.36281
 Alpha virt. eigenvalues --    0.04876   0.06523   0.08212   0.08662   0.10501
 Alpha virt. eigenvalues --    0.11336   0.12678   0.13387   0.14511   0.15643
 Alpha virt. eigenvalues --    0.15971   0.16570   0.18860   0.19860   0.21984

 Mulliken charges:
               1
     1  C   -0.490130
     2  C   -0.010746
     3  H    0.041028
     4  H    0.030548
     5  H    0.353242
     6  C   -0.050573
     7  H    0.018714
     8  H    0.059747
     9  C   -0.163240
    10  H    0.045653
    11  H    0.015997
    12  H    0.058746
    13  H    0.033861
    14  H    0.057154
 Sum of Mulliken charges =   0.00000

 Dipole moment (field-independent basis, Debye):
    X=             -0.5545    Y=              0.0103    Z=             -0.7607  Tot=              0.9414
 Quadrupole moment (field-independent basis, Debye-Ang):
   XX=            -29.9476   YY=            -29.0090   ZZ=            -27.5196
   XY=             -0.2026   XZ=             -0.3435   YZ=              0.2379

 Normal termination of Gaussian 09 at Wed Aug 26 11:38:34 2020.
