 Gaussian 09, Revision D.01,
 Gaussian 09:  ES64L-G09RevD.01 24-Apr-2013

 --------------------
 #p B2PLYPD3/Def2QZVP
 --------------------

 ----------
 butane_opt
 ----------
 Symbolic Z-matrix:
 Charge =  0 Multiplicity = 1

                         Standard orientation:
 ---------------------------------------------------------------------
 Center     Atomic      Atomic             Coordinates (Angstroms)
 Number     Number       Type             X           Y           Z
 ---------------------------------------------------------------------
      1          6           0        2.019489   -0.181909   -0.163197
      2          6           0        0.589372    0.579481    0.142279
      3          1           0        2.713913    0.209286   -0.668554
      4          1           0        2.146755   -0.923532   -0.811343
      5          1           0        2.586835   -0.681732    0.896716
      6          6           0       -0.659054   -0.401026    0.289809
      7          1           0        0.007678    0.924009   -0.662671
      8          1           0        0.730613    1.724359    1.060307
      9          6           0       -1.988818    0.035577   -0.194451
     10          1           0       -0.845996   -0.946621    1.276297
     11          1           0       -0.420700   -1.104648   -0.512622
     12          1           0       -2.172388    0.756826    0.534689
     13          1           0       -2.833490   -0.892699   -0.150665
     14          1           0       -1.679153    0.742006   -1.408796
 ---------------------------------------------------------------------

 SCF Done:  E(RB2PLYPD3) =  -157.883467880     A.U. after   11 cycles
 E2(B2PLYPD3) =    -0.2552881193D+00 E(B2PLYPD3) =    -0.15813875599909D+03

 The electronic state is 1-A.
 Alpha  occ. eigenvalues --  -10.66102 -10.64647 -10.62175 -10.60959  -0.91579
 Alpha  occ. eigenvalues --   -0.84149  -0.74913  -0.64448  -0.53837  -0.51124
 Alpha  occ. eigenvalues --   -0.46753  -0.44477  -0.41791  -0.39731  -0.37756
 Alpha  occ. eigenvalues --   -0.36307  -0.35038
 Alpha virt. eigenvalues --    0.04097   0.05812   0.06433   0.07642   0.10348
 Alpha virt. eigenvalues --    0.11004   0.11686   0.12127   0.13623   0.14640
 Alpha virt. eigenvalues --    0.15584   0.16336   0.18783   0.19217   0.20060

 Mulliken charges:
               1
     1  C   -0.126710
     2  C   -0.113095
     3  H    0.063898
     4  H    0.035643
     5  H    0.019874
     6  C   -0.030797
     7  H    0.074356
     8  H    0.008331
     9  C   -0.172166
    10  H    0.030238
    11  H    0.061359
    12  H    0.080241
    13  H    0.067343
    14  H    0.001486
 Sum of Mulliken charges =   0.00000

 Dipole moment (field-independent basis, Debye):
    X=             -0.0692    Y=             -0.5447    Z=             -0.2831  Tot=              0.6178
 Quadrupole moment (field-independent basis, Debye-Ang):
   XX=            -29.0436   YY=            -30.3288   ZZ=            -29.3167
   XY=              0.3238   XZ=             -2.3473   YZ=              0.3592

 Normal termination of Gaussian 09 at Wed Aug 26 14:10:21 2020.
