 Gaussian 09, Revision D.01,
 Gaussian 09:  ES64L-G09RevD.01 24-Apr-2013

 --------------------
 #p B2PLYPD3/Def2QZVP
 --------------------

 ----------
 butane_opt
 ----------
 Symbolic Z-matrix:
 Charge =  0 Multiplicity = 1

                         Standard orientation:
 ---------------------------------------------------------------------
 Center     Atomic      Atomic             Coordinates (Angstroms)
 Number     Number       Type             X           Y           Z
 ---------------------------------------------------------------------
      1          6           0        1.854693   -0.000895   -0.137686
      2          6           0        0.594627   -0.304049    0.356051
      3          1           0        2.789238   -1.078614   -0.482669
      4          1           0        2.425143    1.192606    0.632433
      5          1           0        1.383004    0.082163   -0.969023
      6          6           0       -0.492898    0.562535   -0.061255
      7          1           0        0.456040   -0.585329    1.405719
      8          1           0        0.499311   -1.262414   -0.261113
      9          6           0       -1.910965   -0.192141   -0.074345
     10          1           0       -0.045883    0.919128   -1.291436
     11          1           0       -0.517719    1.427635    0.610128
     12          1           0       -2.178975   -1.178857   -0.903068
     13          1           0       -2.624123    0.656016   -0.204783
     14          1           0       -2.458778   -0.565032    0.967224
 ---------------------------------------------------------------------

 SCF Done:  E(RB2PLYPD3) =  -157.854873253     A.U. after   11 cycles
 E2(B2PLYPD3) =    -0.2579301715D+00 E(B2PLYPD3) =    -0.15811280342452D+03

 The electronic state is 1-A.
 Alpha  occ. eigenvalues --  -10.65341 -10.65083 -10.64914 -10.60890  -0.96638
 Alpha  occ. eigenvalues --   -0.83271  -0.71658  -0.64721  -0.55911  -0.49128
 Alpha  occ. eigenvalues --   -0.46838  -0.45300  -0.41830  -0.40137  -0.38347
 Alpha  occ. eigenvalues --   -0.36534  -0.32845
 Alpha virt. eigenvalues --    0.03030   0.05109   0.06272   0.06752   0.08728
 Alpha virt. eigenvalues --    0.09462   0.11974   0.12369   0.13082   0.14225
 Alpha virt. eigenvalues --    0.15694   0.16214   0.18279   0.18734   0.19906

 Mulliken charges:
               1
     1  C   -0.182589
     2  C   -0.031695
     3  H    0.024509
     4  H   -0.003068
     5  H    0.106788
     6  C   -0.035768
     7  H    0.041643
     8  H    0.043168
     9  C   -0.163833
    10  H    0.007288
    11  H    0.062405
    12  H    0.044062
    13  H    0.053392
    14  H    0.033698
 Sum of Mulliken charges =   0.00000

 Dipole moment (field-independent basis, Debye):
    X=             -0.9379    Y=             -0.2084    Z=              0.1197  Tot=              0.9682
 Quadrupole moment (field-independent basis, Debye-Ang):
   XX=            -32.4950   YY=            -29.9210   ZZ=            -29.6267
   XY=             -0.8733   XZ=             -0.8789   YZ=              1.5790

 Normal termination of Gaussian 09 at Wed Aug 26 19:04:01 2020.
