 Gaussian 09, Revision D.01,
 Gaussian 09:  ES64L-G09RevD.01 24-Apr-2013

 --------------------
 #p B2PLYPD3/Def2QZVP
 --------------------

 ----------
 butane_opt
 ----------
 Symbolic Z-matrix:
 Charge =  0 Multiplicity = 1

                         Standard orientation:
 ---------------------------------------------------------------------
 Center     Atomic      Atomic             Coordinates (Angstroms)
 Number     Number       Type             X           Y           Z
 ---------------------------------------------------------------------
      1          6           0        1.929984   -0.111247   -0.236415
      2          6           0        0.644760    0.423058    0.270070
      3          1           0        2.747419    0.643582   -0.555388
      4          1           0        1.587382   -0.313726   -0.871349
      5          1           0        2.263975   -0.884468    0.566340
      6          6           0       -0.540123   -0.545752    0.053873
      7          1           0        0.697702    0.866045   -0.202979
      8          1           0        0.796574    1.462764    1.538767
      9          6           0       -2.007419    0.174341   -0.104677
     10          1           0       -0.346452   -1.509299    1.002817
     11          1           0       -0.488397   -0.965456   -0.792333
     12          1           0       -2.419831    0.460031    0.461190
     13          1           0       -2.800848   -0.634344    0.120082
     14          1           0       -2.200735    1.232468   -1.164257
 ---------------------------------------------------------------------

 SCF Done:  E(RB2PLYPD3) =  -157.227169689     A.U. after   12 cycles
 E2(B2PLYPD3) =    -0.2545066663D+00 E(B2PLYPD3) =    -0.15748167635546D+03

 The electronic state is 1-A.
 Alpha  occ. eigenvalues --  -10.65015 -10.62275 -10.61125 -10.58596  -0.98939
 Alpha  occ. eigenvalues --   -0.87889  -0.78644  -0.73366  -0.56515  -0.53432
 Alpha  occ. eigenvalues --   -0.48799  -0.46151  -0.43825  -0.39506  -0.37810
 Alpha  occ. eigenvalues --   -0.36171  -0.34112
 Alpha virt. eigenvalues --    0.03327   0.03436   0.06011   0.07324   0.10080
 Alpha virt. eigenvalues --    0.10989   0.11807   0.12875   0.14126   0.15097
 Alpha virt. eigenvalues --    0.15549   0.16281   0.18293   0.19229   0.19880

 Mulliken charges:
               1
     1  C   -0.475281
     2  C   -0.727180
     3  H    0.057042
     4  H    0.375708
     5  H    0.073326
     6  C   -0.027966
     7  H    0.676793
     8  H   -0.039241
     9  C   -0.417321
    10  H    0.017636
    11  H    0.121613
    12  H    0.305851
    13  H    0.028466
    14  H    0.030553
 Sum of Mulliken charges =   0.00000

 Dipole moment (field-independent basis, Debye):
    X=             -0.1351    Y=             -0.2836    Z=             -0.6746  Tot=              0.7441
 Quadrupole moment (field-independent basis, Debye-Ang):
   XX=            -28.6406   YY=            -29.6242   ZZ=            -29.4414
   XY=              0.1520   XZ=             -2.1187   YZ=             -1.7810

 Normal termination of Gaussian 09 at Wed Aug 26 23:01:07 2020.
