 Gaussian 09, Revision D.01,
 Gaussian 09:  ES64L-G09RevD.01 24-Apr-2013

 --------------------
 #p B2PLYPD3/Def2QZVP
 --------------------

 ----------
 butane_opt
 ----------
 Symbolic Z-matrix:
 Charge =  0 Multiplicity = 1

                         Standard orientation:
 ---------------------------------------------------------------------
 Center     Atomic      Atomic             Coordinates (Angstroms)
 Number     Number       Type             X           Y           Z
 ---------------------------------------------------------------------
      1          6           0        1.915693   -0.194592   -0.094177
      2          6           0        0.494022    0.620680   -0.048372
      3          1           0        2.540177    0.638470    0.685710
      4          1           0        2.383248   -1.182298   -1.100372
      5          1           0        1.759594   -0.540360    0.683470
      6          6           0       -0.555329   -0.435522    0.116691
      7          1           0        0.326160    1.044367   -0.807467
      8          1           0        0.708300    1.366634    0.842861
      9          6           0       -1.892441    0.046558   -0.092547
     10          1           0       -0.438634   -1.304416    1.202576
     11          1           0       -0.559742   -1.041743   -0.745453
     12          1           0       -1.847842    0.733353    0.823827
     13          1           0       -2.711475   -0.813429    0.190694
     14          1           0       -1.931455    0.876681   -1.065417
 ---------------------------------------------------------------------

 SCF Done:  E(RB2PLYPD3) =  -157.797673800     A.U. after   11 cycles
 E2(B2PLYPD3) =    -0.2567498650D+00 E(B2PLYPD3) =    -0.15805442366541D+03

 The electronic state is 1-A.
 Alpha  occ. eigenvalues --  -10.63376 -10.62817 -10.62484 -10.61103  -0.93909
 Alpha  occ. eigenvalues --   -0.84586  -0.73793  -0.65324  -0.54811  -0.50317
 Alpha  occ. eigenvalues --   -0.46844  -0.46227  -0.42095  -0.38672  -0.38220
 Alpha  occ. eigenvalues --   -0.35260  -0.34048
 Alpha virt. eigenvalues --    0.03407   0.04971   0.06121   0.06762   0.10306
 Alpha virt. eigenvalues --    0.10797   0.11638   0.12173   0.12960   0.14827
 Alpha virt. eigenvalues --    0.15533   0.16685   0.17928   0.18794   0.20136

 Mulliken charges:
               1
     1  C   -0.343060
     2  C   -0.085216
     3  H   -0.002039
     4  H    0.067164
     5  H    0.230923
     6  C   -0.027144
     7  H    0.118054
     8  H    0.026157
     9  C   -0.165587
    10  H   -0.006759
    11  H    0.057569
    12  H    0.026401
    13  H    0.060989
    14  H    0.042548
 Sum of Mulliken charges =   0.00000

 Dipole moment (field-independent basis, Debye):
    X=             -0.4270    Y=             -0.1235    Z=              0.0501  Tot=              0.4473
 Quadrupole moment (field-independent basis, Debye-Ang):
   XX=            -33.6404   YY=            -29.1074   ZZ=            -28.3031
   XY=              0.1002   XZ=              0.7544   YZ=              0.4300

 Normal termination of Gaussian 09 at Wed Aug 26 20:13:02 2020.
