 Gaussian 09, Revision D.01,
 Gaussian 09:  ES64L-G09RevD.01 24-Apr-2013

 --------------------
 #p B2PLYPD3/Def2QZVP
 --------------------

 ----------
 butane_opt
 ----------
 Symbolic Z-matrix:
 Charge =  0 Multiplicity = 1

                         Standard orientation:
 ---------------------------------------------------------------------
 Center     Atomic      Atomic             Coordinates (Angstroms)
 Number     Number       Type             X           Y           Z
 ---------------------------------------------------------------------
      1          6           0        1.995677   -0.133181   -0.003837
      2          6           0        0.635162    0.569719    0.012047
      3          1           0        2.500606    0.354825   -0.764411
      4          1           0        1.971873   -0.173260   -0.600031
      5          1           0        2.445703   -1.343069    1.241529
      6          6           0       -0.620712   -0.501340   -0.091750
      7          1           0        0.484267    1.196707   -0.721308
      8          1           0        0.424157    1.474526    1.135773
      9          6           0       -1.971891    0.071363    0.046188
     10          1           0       -0.336892   -1.166654    0.897153
     11          1           0       -0.713487   -1.076497   -1.003646
     12          1           0       -2.388960    0.804274    0.985452
     13          1           0       -2.666425   -0.670537   -0.314534
     14          1           0       -1.950257    0.560321   -0.631870
 ---------------------------------------------------------------------

 SCF Done:  E(RB2PLYPD3) =  -157.206416875     A.U. after   13 cycles
 E2(B2PLYPD3) =    -0.2591617973D+00 E(B2PLYPD3) =    -0.15746557867220D+03

 The electronic state is 1-A.
 Alpha  occ. eigenvalues --  -10.64532 -10.62640 -10.62410 -10.57931  -1.03552
 Alpha  occ. eigenvalues --   -0.90660  -0.77635  -0.67032  -0.54000  -0.50750
 Alpha  occ. eigenvalues --   -0.49381  -0.44135  -0.40246  -0.39271  -0.37838
 Alpha  occ. eigenvalues --   -0.35678  -0.31179
 Alpha virt. eigenvalues --   -0.01792   0.04962   0.06227   0.07216   0.09612
 Alpha virt. eigenvalues --    0.10429   0.11495   0.13048   0.14184   0.14969
 Alpha virt. eigenvalues --    0.16171   0.17474   0.18031   0.18701   0.19249

 Mulliken charges:
               1
     1  C   -0.887731
     2  C   -0.086759
     3  H    0.017923
     4  H    0.798184
     5  H    0.085582
     6  C   -0.015203
     7  H    0.065791
     8  H   -0.008238
     9  C   -0.295503
    10  H    0.008480
    11  H    0.046578
    12  H    0.044911
    13  H    0.042499
    14  H    0.183485
 Sum of Mulliken charges =   0.00000

 Dipole moment (field-independent basis, Debye):
    X=             -0.0054    Y=             -0.3117    Z=             -1.6165  Tot=              1.6463
 Quadrupole moment (field-independent basis, Debye-Ang):
   XX=            -30.3663   YY=            -30.0594   ZZ=            -26.8696
   XY=             -1.4185   XZ=             -1.0176   YZ=             -1.4444

 Normal termination of Gaussian 09 at Wed Aug 26 15:59:39 2020.
