 Gaussian 09, Revision D.01,
 Gaussian 09:  ES64L-G09RevD.01 24-Apr-2013

 --------------------
 #p B2PLYPD3/Def2QZVP
 --------------------

 ----------
 butane_opt
 ----------
 Symbolic Z-matrix:
 Charge =  0 Multiplicity = 1

                         Standard orientation:
 ---------------------------------------------------------------------
 Center     Atomic      Atomic             Coordinates (Angstroms)
 Number     Number       Type             X           Y           Z
 ---------------------------------------------------------------------
      1          6           0        1.926219    0.070769   -0.091921
      2          6           0        0.521552   -0.450204    0.148820
      3          1           0        2.756387   -0.705783   -0.267028
      4          1           0        2.102115    0.807087    0.707129
      5          1           0        1.720314    0.610733   -0.993399
      6          6           0       -0.522315    0.569667    0.023559
      7          1           0        0.541172   -1.239085    1.249308
      8          1           0        0.448265   -1.078600   -0.643044
      9          6           0       -1.915356   -0.152417   -0.112100
     10          1           0       -0.347456    1.010495   -0.801547
     11          1           0       -0.412066    1.379389    0.991934
     12          1           0       -2.147025   -0.839253   -0.999788
     13          1           0       -2.634515    0.483631    0.160510
     14          1           0       -2.087793   -0.655508    0.785782
 ---------------------------------------------------------------------

 SCF Done:  E(RB2PLYPD3) =  -158.021854289     A.U. after   11 cycles
 E2(B2PLYPD3) =    -0.2487266570D+00 E(B2PLYPD3) =    -0.15827058094618D+03

 The electronic state is 1-A.
 Alpha  occ. eigenvalues --  -10.61318 -10.61205 -10.60121 -10.59147  -0.92927
 Alpha  occ. eigenvalues --   -0.83744  -0.74222  -0.66016  -0.54864  -0.49612
 Alpha  occ. eigenvalues --   -0.49361  -0.47618  -0.42765  -0.41083  -0.38686
 Alpha  occ. eigenvalues --   -0.37176  -0.35950
 Alpha virt. eigenvalues --    0.05571   0.06832   0.07789   0.07947   0.10709
 Alpha virt. eigenvalues --    0.12246   0.12576   0.13972   0.14625   0.15155
 Alpha virt. eigenvalues --    0.15868   0.16375   0.19436   0.19711   0.21445

 Mulliken charges:
               1
     1  C   -0.155435
     2  C   -0.054323
     3  H    0.052111
     4  H    0.047490
     5  H    0.047275
     6  C   -0.074585
     7  H   -0.014626
     8  H    0.060816
     9  C   -0.144308
    10  H    0.086508
    11  H    0.008991
    12  H    0.053415
    13  H    0.044361
    14  H    0.042309
 Sum of Mulliken charges =   0.00000

 Dipole moment (field-independent basis, Debye):
    X=             -0.2159    Y=              0.0776    Z=             -0.3847  Tot=              0.4479
 Quadrupole moment (field-independent basis, Debye-Ang):
   XX=            -29.5010   YY=            -29.5425   ZZ=            -28.2208
   XY=             -0.3753   XZ=             -0.5156   YZ=              0.9120

 Normal termination of Gaussian 09 at Wed Aug 26 11:13:12 2020.
