 Gaussian 09, Revision D.01,
 Gaussian 09:  ES64L-G09RevD.01 24-Apr-2013

 --------------------
 #p B2PLYPD3/Def2QZVP
 --------------------

 ----------
 butane_opt
 ----------
 Symbolic Z-matrix:
 Charge =  0 Multiplicity = 1

                         Standard orientation:
 ---------------------------------------------------------------------
 Center     Atomic      Atomic             Coordinates (Angstroms)
 Number     Number       Type             X           Y           Z
 ---------------------------------------------------------------------
      1          6           0        1.837347   -0.078460    0.088440
      2          6           0        0.613401    0.491248   -0.195647
      3          1           0        2.565604    0.671854    0.043519
      4          1           0        2.045782   -0.589177   -0.648613
      5          1           0        1.849124   -0.715854    0.936908
      6          6           0       -0.475007   -0.593270    0.010647
      7          1           0        0.294279    1.013227   -1.089574
      8          1           0        0.441962    1.069727    0.602859
      9          6           0       -1.942604    0.122742    0.104408
     10          1           0       -0.164367   -1.164638    1.009595
     11          1           0       -0.528337   -1.051349   -0.698989
     12          1           0       -2.320141    1.377493    1.117089
     13          1           0       -2.787792   -0.719114   -0.681309
     14          1           0       -1.594937    0.454274   -0.638574
 ---------------------------------------------------------------------

 SCF Done:  E(RB2PLYPD3) =  -157.765401725     A.U. after   12 cycles
 E2(B2PLYPD3) =    -0.2543751416D+00 E(B2PLYPD3) =    -0.15801977686704D+03

 The electronic state is 1-A.
 Alpha  occ. eigenvalues --  -10.64817 -10.60595 -10.58415 -10.56300  -0.95839
 Alpha  occ. eigenvalues --   -0.87048  -0.73220  -0.69686  -0.57991  -0.52067
 Alpha  occ. eigenvalues --   -0.48350  -0.48291  -0.42537  -0.39661  -0.38167
 Alpha  occ. eigenvalues --   -0.35631  -0.35022
 Alpha virt. eigenvalues --    0.00324   0.06077   0.07405   0.07981   0.10066
 Alpha virt. eigenvalues --    0.10639   0.12190   0.13063   0.14345   0.15253
 Alpha virt. eigenvalues --    0.15842   0.16931   0.18791   0.19455   0.20998

 Mulliken charges:
               1
     1  C   -0.138308
     2  C   -0.066830
     3  H    0.032182
     4  H    0.055759
     5  H    0.053617
     6  C   -0.173537
     7  H    0.032970
     8  H    0.068902
     9  C   -0.328747
    10  H    0.023591
    11  H    0.178148
    12  H    0.046375
    13  H    0.011846
    14  H    0.204031
 Sum of Mulliken charges =   0.00000

 Dipole moment (field-independent basis, Debye):
    X=              1.0079    Y=              0.1626    Z=             -0.6749  Tot=              1.2239
 Quadrupole moment (field-independent basis, Debye-Ang):
   XX=            -32.6594   YY=            -28.8379   ZZ=            -27.7416
   XY=             -0.5241   XZ=              0.9688   YZ=              1.0226

 Normal termination of Gaussian 09 at Wed Aug 26 23:44:58 2020.
