 Gaussian 09, Revision D.01,
 Gaussian 09:  ES64L-G09RevD.01 24-Apr-2013

 --------------------
 #p B2PLYPD3/Def2QZVP
 --------------------

 ----------
 butane_opt
 ----------
 Symbolic Z-matrix:
 Charge =  0 Multiplicity = 1

                         Standard orientation:
 ---------------------------------------------------------------------
 Center     Atomic      Atomic             Coordinates (Angstroms)
 Number     Number       Type             X           Y           Z
 ---------------------------------------------------------------------
      1          6           0       -1.983206    0.160486   -0.093262
      2          6           0       -0.633478   -0.529997    0.138539
      3          1           0       -2.688826   -0.401387   -0.572356
      4          1           0       -1.847912    0.637372   -0.920130
      5          1           0       -2.557619    0.656627    0.838702
      6          6           0        0.629092    0.494594    0.035746
      7          1           0       -0.368562   -0.966899   -0.638727
      8          1           0       -0.559481   -1.228518    1.170399
      9          6           0        1.974879   -0.173909   -0.032867
     10          1           0        0.527123    1.327090    0.997341
     11          1           0        0.529009    0.802509   -0.700100
     12          1           0        2.013971   -0.568820    0.647554
     13          1           0        2.956522    0.873207   -0.180495
     14          1           0        2.072051   -0.838228   -0.931122
 ---------------------------------------------------------------------

 SCF Done:  E(RB2PLYPD3) =  -157.780784595     A.U. after   11 cycles
 E2(B2PLYPD3) =    -0.2485421469D+00 E(B2PLYPD3) =    -0.15802932674185D+03

 The electronic state is 1-A.
 Alpha  occ. eigenvalues --  -10.61173 -10.60194 -10.59281 -10.59254  -0.93230
 Alpha  occ. eigenvalues --   -0.86119  -0.76271  -0.69789  -0.55718  -0.51629
 Alpha  occ. eigenvalues --   -0.48534  -0.45501  -0.44895  -0.41552  -0.39970
 Alpha  occ. eigenvalues --   -0.38585  -0.33207
 Alpha virt. eigenvalues --    0.04986   0.06334   0.08266   0.08376   0.10376
 Alpha virt. eigenvalues --    0.11380   0.12165   0.13051   0.14665   0.15883
 Alpha virt. eigenvalues --    0.16047   0.16832   0.18248   0.19150   0.21699

 Mulliken charges:
               1
     1  C   -0.142765
     2  C   -0.114332
     3  H    0.033592
     4  H    0.051978
     5  H    0.051576
     6  C   -0.257624
     7  H    0.106542
     8  H    0.017101
     9  C   -0.351680
    10  H    0.021331
    11  H    0.259236
    12  H    0.261148
    13  H    0.014985
    14  H    0.048913
 Sum of Mulliken charges =   0.00000

 Dipole moment (field-independent basis, Debye):
    X=             -0.4233    Y=             -0.3012    Z=             -0.5786  Tot=              0.7776
 Quadrupole moment (field-independent basis, Debye-Ang):
   XX=            -30.0650   YY=            -29.9129   ZZ=            -27.1823
   XY=             -0.5403   XZ=              0.2306   YZ=              0.1378

 Normal termination of Gaussian 09 at Wed Aug 26 13:34:20 2020.
