 Gaussian 09, Revision D.01,
 Gaussian 09:  ES64L-G09RevD.01 24-Apr-2013

 --------------------
 #p B2PLYPD3/Def2QZVP
 --------------------

 ----------
 butane_opt
 ----------
 Symbolic Z-matrix:
 Charge =  0 Multiplicity = 1

                         Standard orientation:
 ---------------------------------------------------------------------
 Center     Atomic      Atomic             Coordinates (Angstroms)
 Number     Number       Type             X           Y           Z
 ---------------------------------------------------------------------
      1          6           0       -1.946204   -0.166087   -0.176629
      2          6           0       -0.481121    0.636239    0.216893
      3          1           0       -2.600866    0.492221   -0.714169
      4          1           0       -2.476268   -1.086603    0.900763
      5          1           0       -1.630339   -0.708918   -0.937212
      6          6           0        0.558435   -0.421293    0.185203
      7          1           0       -0.648708    1.427689    1.156154
      8          1           0        0.023691    0.949637   -0.604462
      9          6           0        1.819267    0.071713   -0.103745
     10          1           0        0.521335   -1.106408   -0.647918
     11          1           0        0.722455   -1.073001    1.030543
     12          1           0        1.805067    0.739264   -1.180736
     13          1           0        2.563260   -0.729988   -0.236224
     14          1           0        2.018118    0.372672    0.502929
 ---------------------------------------------------------------------

 SCF Done:  E(RB2PLYPD3) =  -157.726622133     A.U. after   11 cycles
 E2(B2PLYPD3) =    -0.2521673922D+00 E(B2PLYPD3) =    -0.15797878952490D+03

 The electronic state is 1-A.
 Alpha  occ. eigenvalues --  -10.63131 -10.62449 -10.58969 -10.56731  -0.96966
 Alpha  occ. eigenvalues --   -0.84352  -0.75001  -0.68095  -0.58015  -0.52185
 Alpha  occ. eigenvalues --   -0.48929  -0.44269  -0.41896  -0.40763  -0.39013
 Alpha  occ. eigenvalues --   -0.36625  -0.35230
 Alpha virt. eigenvalues --    0.04520   0.06016   0.07737   0.08124   0.10153
 Alpha virt. eigenvalues --    0.10952   0.12239   0.13099   0.14047   0.15801
 Alpha virt. eigenvalues --    0.16455   0.17120   0.18084   0.19008   0.20903

 Mulliken charges:
               1
     1  C   -0.204253
     2  C   -0.116391
     3  H    0.057118
     4  H    0.029940
     5  H    0.089024
     6  C    0.013731
     7  H    0.046328
     8  H    0.083501
     9  C   -0.514854
    10  H    0.041235
    11  H    0.017885
    12  H    0.030579
    13  H    0.049315
    14  H    0.376842
 Sum of Mulliken charges =   0.00000

 Dipole moment (field-independent basis, Debye):
    X=              0.5782    Y=             -0.0931    Z=             -0.2166  Tot=              0.6244
 Quadrupole moment (field-independent basis, Debye-Ang):
   XX=            -30.5895   YY=            -29.3950   ZZ=            -27.7101
   XY=             -0.9796   XZ=              0.8615   YZ=              0.1623

 Normal termination of Gaussian 09 at Wed Aug 26 14:52:03 2020.
