 Gaussian 09, Revision D.01,
 Gaussian 09:  ES64L-G09RevD.01 24-Apr-2013

 --------------------
 #p B2PLYPD3/Def2QZVP
 --------------------

 ----------
 butane_opt
 ----------
 Symbolic Z-matrix:
 Charge =  0 Multiplicity = 1

                         Standard orientation:
 ---------------------------------------------------------------------
 Center     Atomic      Atomic             Coordinates (Angstroms)
 Number     Number       Type             X           Y           Z
 ---------------------------------------------------------------------
      1          6           0        1.978898   -0.218385   -0.114493
      2          6           0        0.495543    0.548675    0.032414
      3          1           0        2.797393    0.629223   -0.029479
      4          1           0        1.878608   -1.127415   -0.889224
      5          1           0        2.178410   -0.514978    0.700056
      6          6           0       -0.605834   -0.406514    0.286294
      7          1           0        0.197414    1.037186   -0.981800
      8          1           0        0.435075    1.288794    0.771974
      9          6           0       -1.887739    0.090115   -0.115047
     10          1           0       -0.521076   -0.770655    1.310112
     11          1           0       -0.800244   -0.988982   -0.357756
     12          1           0       -2.188153    0.804940    0.659348
     13          1           0       -2.654980   -0.866412   -0.587732
     14          1           0       -1.207661    0.424957   -1.130517
 ---------------------------------------------------------------------

 SCF Done:  E(RB2PLYPD3) =  -157.880821826     A.U. after   11 cycles
 E2(B2PLYPD3) =    -0.2536225545D+00 E(B2PLYPD3) =    -0.15813444438011D+03

 The electronic state is 1-A.
 Alpha  occ. eigenvalues --  -10.63333 -10.61459 -10.60810 -10.56711  -0.96002
 Alpha  occ. eigenvalues --   -0.83933  -0.73587  -0.65731  -0.59225  -0.50932
 Alpha  occ. eigenvalues --   -0.48841  -0.45509  -0.43213  -0.40489  -0.39058
 Alpha  occ. eigenvalues --   -0.35252  -0.33580
 Alpha virt. eigenvalues --    0.04893   0.06242   0.08025   0.08397   0.09635
 Alpha virt. eigenvalues --    0.11540   0.12359   0.13364   0.13943   0.14763
 Alpha virt. eigenvalues --    0.16010   0.16482   0.18774   0.19404   0.20552

 Mulliken charges:
               1
     1  C   -0.225808
     2  C   -0.014484
     3  H    0.029546
     4  H    0.060273
     5  H    0.117673
     6  C   -0.162972
     7  H    0.017259
     8  H    0.046072
     9  C   -0.178429
    10  H    0.024386
    11  H    0.148664
    12  H    0.056091
    13  H    0.034488
    14  H    0.047240
 Sum of Mulliken charges =   0.00000

 Dipole moment (field-independent basis, Debye):
    X=              0.2726    Y=             -0.2303    Z=              0.4913  Tot=              0.6072
 Quadrupole moment (field-independent basis, Debye-Ang):
   XX=            -31.3404   YY=            -29.2419   ZZ=            -28.4392
   XY=              0.9106   XZ=              0.5741   YZ=              1.7017

 Normal termination of Gaussian 09 at Wed Aug 26 23:50:37 2020.
