 Gaussian 09, Revision D.01,
 Gaussian 09:  ES64L-G09RevD.01 24-Apr-2013

 --------------------
 #p B2PLYPD3/Def2QZVP
 --------------------

 ----------
 butane_opt
 ----------
 Symbolic Z-matrix:
 Charge =  0 Multiplicity = 1

                         Standard orientation:
 ---------------------------------------------------------------------
 Center     Atomic      Atomic             Coordinates (Angstroms)
 Number     Number       Type             X           Y           Z
 ---------------------------------------------------------------------
      1          6           0       -1.898038   -0.205913   -0.121733
      2          6           0       -0.550803    0.482486    0.096866
      3          1           0       -2.992244    1.048930   -0.153426
      4          1           0       -2.106487   -0.511600    0.602229
      5          1           0       -1.750428   -0.983404   -1.240372
      6          6           0        0.560628   -0.507501    0.268499
      7          1           0       -0.747755    1.234473    0.948390
      8          1           0       -0.364834    0.881540   -0.652087
      9          6           0        1.930151    0.162321   -0.157987
     10          1           0        0.453765   -0.745301   -0.462234
     11          1           0        0.520793   -1.421399    1.440264
     12          1           0        1.427919    0.508259   -0.918312
     13          1           0        2.683749   -0.603288   -0.897460
     14          1           0        2.623891    1.003435    0.819141
 ---------------------------------------------------------------------

 SCF Done:  E(RB2PLYPD3) =  -157.559479944     A.U. after   12 cycles
 E2(B2PLYPD3) =    -0.2575581922D+00 E(B2PLYPD3) =    -0.15781703813610D+03

 The electronic state is 1-A.
 Alpha  occ. eigenvalues --  -10.65510 -10.65100 -10.62194 -10.59947  -0.98149
 Alpha  occ. eigenvalues --   -0.86145  -0.74593  -0.69664  -0.56705  -0.50177
 Alpha  occ. eigenvalues --   -0.47531  -0.46397  -0.43261  -0.39613  -0.38664
 Alpha  occ. eigenvalues --   -0.35358  -0.34097
 Alpha virt. eigenvalues --    0.01858   0.03768   0.05722   0.06865   0.09030
 Alpha virt. eigenvalues --    0.09463   0.11429   0.11868   0.13559   0.14470
 Alpha virt. eigenvalues --    0.15442   0.16173   0.17223   0.18627   0.20478

 Mulliken charges:
               1
     1  C   -0.307016
     2  C   -0.120579
     3  H   -0.028529
     4  H    0.225284
     5  H    0.051541
     6  C   -0.503653
     7  H    0.030456
     8  H    0.174457
     9  C   -0.198098
    10  H    0.464667
    11  H    0.022682
    12  H    0.105317
    13  H    0.033035
    14  H    0.050434
 Sum of Mulliken charges =   0.00000

 Dipole moment (field-independent basis, Debye):
    X=              0.3059    Y=             -0.1437    Z=             -0.3297  Tot=              0.4721
 Quadrupole moment (field-independent basis, Debye-Ang):
   XX=            -34.1106   YY=            -30.5555   ZZ=            -27.9844
   XY=              0.5491   XZ=             -1.4191   YZ=              0.8771

 Normal termination of Gaussian 09 at Wed Aug 26 15:23:02 2020.
