 Gaussian 09, Revision D.01,
 Gaussian 09:  ES64L-G09RevD.01 24-Apr-2013

 --------------------
 #p B2PLYPD3/Def2QZVP
 --------------------

 ----------
 butane_opt
 ----------
 Symbolic Z-matrix:
 Charge =  0 Multiplicity = 1

                         Standard orientation:
 ---------------------------------------------------------------------
 Center     Atomic      Atomic             Coordinates (Angstroms)
 Number     Number       Type             X           Y           Z
 ---------------------------------------------------------------------
      1          6           0       -1.963279    0.079179    0.062966
      2          6           0       -0.576720   -0.425498   -0.072252
      3          1           0       -2.814254   -0.895561    0.170258
      4          1           0       -1.993260    0.626057   -0.726815
      5          1           0       -2.104151    0.701163    1.004061
      6          6           0        0.545961    0.586800   -0.206735
      7          1           0       -0.884671   -1.039220   -0.849764
      8          1           0       -0.390478   -1.327058    0.908636
      9          6           0        2.081174   -0.192826    0.098599
     10          1           0        0.330663    1.321966    0.780678
     11          1           0        0.263270    1.302486   -0.970799
     12          1           0        1.743778   -0.386307    0.596557
     13          1           0        2.779855    0.453770    0.734392
     14          1           0        2.546435   -1.043223   -0.942675
 ---------------------------------------------------------------------

 SCF Done:  E(RB2PLYPD3) =  -157.559209588     A.U. after   11 cycles
 E2(B2PLYPD3) =    -0.2539636668D+00 E(B2PLYPD3) =    -0.15781317325440D+03

 The electronic state is 1-A.
 Alpha  occ. eigenvalues --  -10.64691 -10.62259 -10.62118 -10.61188  -0.92945
 Alpha  occ. eigenvalues --   -0.88103  -0.75280  -0.65724  -0.53939  -0.50607
 Alpha  occ. eigenvalues --   -0.47450  -0.47128  -0.42602  -0.40799  -0.37897
 Alpha  occ. eigenvalues --   -0.36169  -0.34903
 Alpha virt. eigenvalues --    0.04947   0.05244   0.07369   0.07718   0.10309
 Alpha virt. eigenvalues --    0.10583   0.11381   0.12513   0.14535   0.15086
 Alpha virt. eigenvalues --    0.15746   0.16353   0.17567   0.19102   0.19786

 Mulliken charges:
               1
     1  C   -0.163007
     2  C   -0.014781
     3  H    0.036723
     4  H    0.087708
     5  H    0.030260
     6  C   -0.087815
     7  H    0.040014
     8  H   -0.024103
     9  C   -0.773891
    10  H    0.001793
    11  H    0.059184
    12  H    0.641726
    13  H    0.089311
    14  H    0.076876
 Sum of Mulliken charges =   0.00000

 Dipole moment (field-independent basis, Debye):
    X=             -0.1300    Y=              0.0889    Z=             -0.1487  Tot=              0.2166
 Quadrupole moment (field-independent basis, Debye-Ang):
   XX=            -30.0907   YY=            -29.5318   ZZ=            -28.3603
   XY=             -0.0612   XZ=              0.8645   YZ=              0.5794

 Normal termination of Gaussian 09 at Wed Aug 26 22:16:34 2020.
