 Gaussian 09, Revision D.01,
 Gaussian 09:  ES64L-G09RevD.01 24-Apr-2013

 --------------------
 #p B2PLYPD3/Def2QZVP
 --------------------

 ----------
 butane_opt
 ----------
 Symbolic Z-matrix:
 Charge =  0 Multiplicity = 1

                         Standard orientation:
 ---------------------------------------------------------------------
 Center     Atomic      Atomic             Coordinates (Angstroms)
 Number     Number       Type             X           Y           Z
 ---------------------------------------------------------------------
      1          6           0       -1.893467    0.052129   -0.146899
      2          6           0       -0.502917   -0.412325    0.397878
      3          1           0       -2.831816   -1.033588   -0.632409
      4          1           0       -1.554489    0.529697   -1.156786
      5          1           0       -2.386214    0.947243    0.617790
      6          6           0        0.520519    0.571248    0.037965
      7          1           0       -0.365411   -1.183246   -0.293301
      8          1           0       -0.337531   -0.976814    1.377167
      9          6           0        1.899904   -0.143444   -0.143272
     10          1           0        0.610930    1.650209    0.822103
     11          1           0       -0.022578    1.021557   -0.955950
     12          1           0        2.193226   -0.532998    0.782144
     13          1           0        2.693273    0.375568   -0.342481
     14          1           0        1.856379   -1.203279   -1.092307
 ---------------------------------------------------------------------

 SCF Done:  E(RB2PLYPD3) =  -157.924616833     A.U. after   11 cycles
 E2(B2PLYPD3) =    -0.2559256955D+00 E(B2PLYPD3) =    -0.15818054252828D+03

 The electronic state is 1-A.
 Alpha  occ. eigenvalues --  -10.67016 -10.65081 -10.62313 -10.61243  -0.92385
 Alpha  occ. eigenvalues --   -0.82213  -0.71150  -0.65577  -0.52949  -0.50093
 Alpha  occ. eigenvalues --   -0.47638  -0.44556  -0.41873  -0.39682  -0.37536
 Alpha  occ. eigenvalues --   -0.36940  -0.34862
 Alpha virt. eigenvalues --    0.03819   0.05226   0.06398   0.07477   0.09255
 Alpha virt. eigenvalues --    0.10760   0.11825   0.13299   0.14066   0.14474
 Alpha virt. eigenvalues --    0.15604   0.16292   0.18421   0.19270   0.19860

 Mulliken charges:
               1
     1  C   -0.185665
     2  C   -0.033069
     3  H    0.018763
     4  H    0.062406
     5  H    0.049421
     6  C   -0.046196
     7  H    0.074926
     8  H    0.037977
     9  C   -0.134755
    10  H    0.006390
    11  H    0.028030
    12  H    0.054469
    13  H    0.064227
    14  H    0.003077
 Sum of Mulliken charges =   0.00000

 Dipole moment (field-independent basis, Debye):
    X=              0.6767    Y=              0.0398    Z=              0.1025  Tot=              0.6855
 Quadrupole moment (field-independent basis, Debye-Ang):
   XX=            -31.3023   YY=            -29.9979   ZZ=            -29.4230
   XY=              0.0373   XZ=              0.9913   YZ=              0.2981

 Normal termination of Gaussian 09 at Wed Aug 26 16:23:30 2020.
