 Gaussian 09, Revision D.01,
 Gaussian 09:  ES64L-G09RevD.01 24-Apr-2013

 --------------------
 #p B2PLYPD3/Def2QZVP
 --------------------

 ----------
 butane_opt
 ----------
 Symbolic Z-matrix:
 Charge =  0 Multiplicity = 1

                         Standard orientation:
 ---------------------------------------------------------------------
 Center     Atomic      Atomic             Coordinates (Angstroms)
 Number     Number       Type             X           Y           Z
 ---------------------------------------------------------------------
      1          6           0        1.985071    0.191551   -0.171214
      2          6           0        0.575109   -0.639459    0.060296
      3          1           0        2.720875   -0.482049   -0.057042
      4          1           0        2.179164    0.463277    0.575281
      5          1           0        2.226130    1.356771   -0.995744
      6          6           0       -0.603790    0.444494    0.386495
      7          1           0        0.969783   -1.482113    0.936331
      8          1           0        0.273875   -1.112323   -0.915489
      9          6           0       -1.977272   -0.121501   -0.179552
     10          1           0       -0.499259    1.253119   -0.427259
     11          1           0       -0.597616    1.162897    1.386434
     12          1           0       -1.816240   -0.503912   -1.024686
     13          1           0       -2.813321    0.815592   -0.610990
     14          1           0       -2.518106   -0.721766    0.557017
 ---------------------------------------------------------------------

 SCF Done:  E(RB2PLYPD3) =  -157.860788617     A.U. after   11 cycles
 E2(B2PLYPD3) =    -0.2528346181D+00 E(B2PLYPD3) =    -0.15811362323461D+03

 The electronic state is 1-A.
 Alpha  occ. eigenvalues --  -10.65836 -10.64259 -10.61307 -10.59509  -0.89339
 Alpha  occ. eigenvalues --   -0.84619  -0.73890  -0.66126  -0.52509  -0.48138
 Alpha  occ. eigenvalues --   -0.47151  -0.46010  -0.42083  -0.40324  -0.38902
 Alpha  occ. eigenvalues --   -0.36203  -0.35441
 Alpha virt. eigenvalues --    0.05174   0.05499   0.06610   0.07848   0.10373
 Alpha virt. eigenvalues --    0.10965   0.11659   0.13545   0.13857   0.14777
 Alpha virt. eigenvalues --    0.15761   0.16458   0.18292   0.19153   0.20120

 Mulliken charges:
               1
     1  C   -0.310066
     2  C   -0.059426
     3  H    0.038783
     4  H    0.208005
     5  H    0.029658
     6  C   -0.073293
     7  H    0.026227
     8  H    0.057322
     9  C   -0.166863
    10  H    0.046295
    11  H    0.043707
    12  H    0.096323
    13  H    0.001292
    14  H    0.062036
 Sum of Mulliken charges =   0.00000

 Dipole moment (field-independent basis, Debye):
    X=              0.2533    Y=             -0.2042    Z=              0.2859  Tot=              0.4331
 Quadrupole moment (field-independent basis, Debye-Ang):
   XX=            -30.4977   YY=            -29.0516   ZZ=            -28.7922
   XY=             -0.0663   XZ=              1.7914   YZ=             -0.2286

 Normal termination of Gaussian 09 at Wed Aug 26 11:29:26 2020.
