 Gaussian 09, Revision D.01,
 Gaussian 09:  ES64L-G09RevD.01 24-Apr-2013

 --------------------
 #p B2PLYPD3/Def2QZVP
 --------------------

 ----------
 butane_opt
 ----------
 Symbolic Z-matrix:
 Charge =  0 Multiplicity = 1

                         Standard orientation:
 ---------------------------------------------------------------------
 Center     Atomic      Atomic             Coordinates (Angstroms)
 Number     Number       Type             X           Y           Z
 ---------------------------------------------------------------------
      1          6           0        1.886717    0.025493   -0.247658
      2          6           0        0.627970   -0.310668    0.316673
      3          1           0        2.649155   -0.912376   -0.432207
      4          1           0        2.226378    0.932689    0.588033
      5          1           0        1.350616    0.241714   -0.982870
      6          6           0       -0.538950    0.554283    0.079126
      7          1           0        0.582281   -0.885163    1.604795
      8          1           0        0.474750   -1.050779   -0.231987
      9          6           0       -1.938945   -0.175299   -0.105669
     10          1           0       -0.232355    0.968842   -0.983364
     11          1           0       -0.221807    1.404967    0.828844
     12          1           0       -1.751877   -1.249237   -0.902214
     13          1           0       -2.673018    0.497562   -0.478420
     14          1           0       -2.624877   -0.511076    0.734556
 ---------------------------------------------------------------------

 SCF Done:  E(RB2PLYPD3) =  -157.891451250     A.U. after   11 cycles
 E2(B2PLYPD3) =    -0.2542348778D+00 E(B2PLYPD3) =    -0.15814568612780D+03

 The electronic state is 1-A.
 Alpha  occ. eigenvalues --  -10.64526 -10.64021 -10.61557 -10.60615  -0.96785
 Alpha  occ. eigenvalues --   -0.83924  -0.73443  -0.65149  -0.56118  -0.51875
 Alpha  occ. eigenvalues --   -0.47531  -0.46733  -0.42336  -0.40401  -0.39121
 Alpha  occ. eigenvalues --   -0.34936  -0.34331
 Alpha virt. eigenvalues --    0.04900   0.05416   0.07137   0.07722   0.10253
 Alpha virt. eigenvalues --    0.11101   0.12152   0.12802   0.13321   0.15126
 Alpha virt. eigenvalues --    0.15904   0.16806   0.17888   0.19661   0.20583

 Mulliken charges:
               1
     1  C   -0.179882
     2  C   -0.058238
     3  H    0.062186
     4  H    0.027463
     5  H    0.085163
     6  C   -0.038292
     7  H   -0.041341
     8  H    0.086074
     9  C   -0.138967
    10  H    0.023044
    11  H    0.041557
    12  H    0.024996
    13  H    0.061198
    14  H    0.045040
 Sum of Mulliken charges =   0.00000

 Dipole moment (field-independent basis, Debye):
    X=             -0.5189    Y=             -0.1200    Z=             -0.5195  Tot=              0.7440
 Quadrupole moment (field-independent basis, Debye-Ang):
   XX=            -29.3081   YY=            -30.0626   ZZ=            -30.2149
   XY=             -1.1332   XZ=             -0.3470   YZ=              1.5025

 Normal termination of Gaussian 09 at Wed Aug 26 10:41:17 2020.
