 Gaussian 09, Revision D.01,
 Gaussian 09:  ES64L-G09RevD.01 24-Apr-2013

 --------------------
 #p B2PLYPD3/Def2QZVP
 --------------------

 ----------
 butane_opt
 ----------
 Symbolic Z-matrix:
 Charge =  0 Multiplicity = 1

                         Standard orientation:
 ---------------------------------------------------------------------
 Center     Atomic      Atomic             Coordinates (Angstroms)
 Number     Number       Type             X           Y           Z
 ---------------------------------------------------------------------
      1          6           0       -1.881949   -0.091559    0.167462
      2          6           0       -0.509680    0.517030   -0.338812
      3          1           0       -2.499003    0.335149   -0.081901
      4          1           0       -2.261508   -0.873965    1.313541
      5          1           0       -2.265604   -0.513625   -0.603962
      6          6           0        0.552541   -0.470297   -0.059422
      7          1           0       -0.214194    1.219233    0.378623
      8          1           0       -0.283580    1.015976   -1.139316
      9          6           0        1.874686    0.060874    0.175654
     10          1           0        0.711738   -1.159988   -0.784330
     11          1           0        0.203894   -0.865035    0.833376
     12          1           0        1.751734    0.224417   -0.573432
     13          1           0        2.702310   -0.964887   -0.384829
     14          1           0        1.940629    1.486439    1.372938
 ---------------------------------------------------------------------

 SCF Done:  E(RB2PLYPD3) =  -157.489151122     A.U. after   13 cycles
 E2(B2PLYPD3) =    -0.2596502062D+00 E(B2PLYPD3) =    -0.15774880132784D+03

 The electronic state is 1-A.
 Alpha  occ. eigenvalues --  -10.63310 -10.59675 -10.59344 -10.58876  -0.98090
 Alpha  occ. eigenvalues --   -0.90984  -0.80404  -0.68631  -0.57226  -0.50915
 Alpha  occ. eigenvalues --   -0.47725  -0.45412  -0.42589  -0.38490  -0.37685
 Alpha  occ. eigenvalues --   -0.35888  -0.33512
 Alpha virt. eigenvalues --   -0.02638   0.04407   0.05291   0.07610   0.10215
 Alpha virt. eigenvalues --    0.10451   0.12207   0.12483   0.14311   0.15510
 Alpha virt. eigenvalues --    0.16122   0.16528   0.17922   0.19758   0.21222

 Mulliken charges:
               1
     1  C   -0.354210
     2  C   -0.084374
     3  H    0.236714
     4  H    0.059847
     5  H    0.049957
     6  C   -0.002418
     7  H    0.039399
     8  H    0.051125
     9  C   -0.507136
    10  H    0.038267
    11  H    0.049256
    12  H    0.389395
    13  H    0.015677
    14  H    0.018501
 Sum of Mulliken charges =   0.00000

 Dipole moment (field-independent basis, Debye):
    X=             -1.2949    Y=             -0.0473    Z=             -1.1476  Tot=              1.7308
 Quadrupole moment (field-independent basis, Debye-Ang):
   XX=            -31.0630   YY=            -29.5026   ZZ=            -27.8845
   XY=             -0.0743   XZ=             -1.2068   YZ=              0.3955

 Normal termination of Gaussian 09 at Wed Aug 26 23:57:54 2020.
