 Gaussian 09, Revision D.01,
 Gaussian 09:  ES64L-G09RevD.01 24-Apr-2013

 --------------------
 #p B2PLYPD3/Def2QZVP
 --------------------

 ----------
 butane_opt
 ----------
 Symbolic Z-matrix:
 Charge =  0 Multiplicity = 1

                         Standard orientation:
 ---------------------------------------------------------------------
 Center     Atomic      Atomic             Coordinates (Angstroms)
 Number     Number       Type             X           Y           Z
 ---------------------------------------------------------------------
      1          6           0        2.056127   -0.179207    0.108258
      2          6           0        0.550964    0.643880   -0.118003
      3          1           0        2.808607    0.400561   -0.376414
      4          1           0        1.983992   -0.445454   -0.604383
      5          1           0        2.346789   -1.115871    1.258188
      6          6           0       -0.653507   -0.461893   -0.035681
      7          1           0        0.599098    1.391588   -1.062932
      8          1           0        0.222039    1.199299    0.764386
      9          6           0       -1.916665    0.035943    0.140617
     10          1           0       -0.453861   -0.914448    0.568937
     11          1           0       -0.628604   -1.541856   -1.126300
     12          1           0       -2.352487    1.040370    1.214660
     13          1           0       -2.691781   -0.814743   -0.359381
     14          1           0       -2.055312    0.568216   -0.847904
 ---------------------------------------------------------------------

 SCF Done:  E(RB2PLYPD3) =  -157.565418204     A.U. after   12 cycles
 E2(B2PLYPD3) =    -0.2588588915D+00 E(B2PLYPD3) =    -0.15782427709558D+03

 The electronic state is 1-A.
 Alpha  occ. eigenvalues --  -10.64857 -10.64779 -10.61633 -10.61099  -0.93705
 Alpha  occ. eigenvalues --   -0.87287  -0.74297  -0.69171  -0.50362  -0.49186
 Alpha  occ. eigenvalues --   -0.47492  -0.45365  -0.42044  -0.41151  -0.37410
 Alpha  occ. eigenvalues --   -0.35013  -0.33063
 Alpha virt. eigenvalues --    0.01909   0.03977   0.04230   0.07223   0.09765
 Alpha virt. eigenvalues --    0.11008   0.11267   0.12267   0.12763   0.15145
 Alpha virt. eigenvalues --    0.15581   0.16383   0.17318   0.17856   0.19334

 Mulliken charges:
               1
     1  C   -0.518174
     2  C   -0.055870
     3  H    0.052003
     4  H    0.388236
     5  H    0.068848
     6  C   -0.263876
     7  H    0.035219
     8  H    0.052987
     9  C   -0.166387
    10  H    0.287122
    11  H   -0.035747
    12  H    0.049051
    13  H    0.052541
    14  H    0.054048
 Sum of Mulliken charges =   0.00000

 Dipole moment (field-independent basis, Debye):
    X=              0.1075    Y=              0.1233    Z=             -0.3104  Tot=              0.3509
 Quadrupole moment (field-independent basis, Debye-Ang):
   XX=            -30.8820   YY=            -29.9083   ZZ=            -28.4025
   XY=             -0.7175   XZ=             -0.5626   YZ=             -0.7949

 Normal termination of Gaussian 09 at Thu Aug 27 00:47:37 2020.
