 Gaussian 09, Revision D.01,
 Gaussian 09:  ES64L-G09RevD.01 24-Apr-2013

 --------------------
 #p B2PLYPD3/Def2QZVP
 --------------------

 ----------
 butane_opt
 ----------
 Symbolic Z-matrix:
 Charge =  0 Multiplicity = 1

                         Standard orientation:
 ---------------------------------------------------------------------
 Center     Atomic      Atomic             Coordinates (Angstroms)
 Number     Number       Type             X           Y           Z
 ---------------------------------------------------------------------
      1          6           0       -2.001744   -0.124327   -0.048689
      2          6           0       -0.521368    0.558972    0.049014
      3          1           0       -2.819495    0.626847   -0.223949
      4          1           0       -2.235380   -0.747597    0.880618
      5          1           0       -2.156338   -0.878455   -1.026621
      6          6           0        0.571115   -0.510346    0.166962
      7          1           0       -0.637140    1.257285    0.871685
      8          1           0       -0.216948    1.116681   -0.887294
      9          6           0        1.940771    0.106608   -0.072229
     10          1           0        0.494577   -1.225154   -0.690268
     11          1           0        0.605102   -1.105279    1.042595
     12          1           0        1.830793    0.573045   -0.855725
     13          1           0        2.787629   -0.649867   -0.451370
     14          1           0        2.414554    0.847054    0.769983
 ---------------------------------------------------------------------

 SCF Done:  E(RB2PLYPD3) =  -158.055832847     A.U. after   11 cycles
 E2(B2PLYPD3) =    -0.2484048209D+00 E(B2PLYPD3) =    -0.15830423766741D+03

 The electronic state is 1-A.
 Alpha  occ. eigenvalues --  -10.63036 -10.62404 -10.60772 -10.59898  -0.90877
 Alpha  occ. eigenvalues --   -0.81807  -0.72193  -0.67061  -0.54066  -0.48319
 Alpha  occ. eigenvalues --   -0.47940  -0.46132  -0.42426  -0.39957  -0.39217
 Alpha  occ. eigenvalues --   -0.37878  -0.37351
 Alpha virt. eigenvalues --    0.05613   0.06406   0.08211   0.08769   0.10532
 Alpha virt. eigenvalues --    0.11580   0.12614   0.13054   0.14519   0.14888
 Alpha virt. eigenvalues --    0.16078   0.16860   0.19221   0.19918   0.21451

 Mulliken charges:
               1
     1  C   -0.160405
     2  C   -0.058983
     3  H    0.049249
     4  H    0.057131
     5  H    0.018698
     6  C   -0.026961
     7  H    0.046589
     8  H    0.036926
     9  C   -0.193107
    10  H    0.039496
    11  H    0.042005
    12  H    0.093759
    13  H    0.024613
    14  H    0.030987
 Sum of Mulliken charges =   0.00000

 Dipole moment (field-independent basis, Debye):
    X=             -0.0862    Y=              0.1339    Z=             -0.0841  Tot=              0.1801
 Quadrupole moment (field-independent basis, Debye-Ang):
   XX=            -30.3911   YY=            -29.1590   ZZ=            -28.2820
   XY=             -0.3597   XZ=             -0.7126   YZ=              0.1133

 Normal termination of Gaussian 09 at Wed Aug 26 23:15:16 2020.
