 Gaussian 09, Revision D.01,
 Gaussian 09:  ES64L-G09RevD.01 24-Apr-2013

 --------------------
 #p B2PLYPD3/Def2QZVP
 --------------------

 ----------
 butane_opt
 ----------
 Symbolic Z-matrix:
 Charge =  0 Multiplicity = 1

                         Standard orientation:
 ---------------------------------------------------------------------
 Center     Atomic      Atomic             Coordinates (Angstroms)
 Number     Number       Type             X           Y           Z
 ---------------------------------------------------------------------
      1          6           0        2.022323   -0.174046   -0.015292
      2          6           0        0.479914    0.651698    0.099376
      3          1           0        2.781426    0.352564   -0.669896
      4          1           0        1.862256   -0.696763   -0.859657
      5          1           0        2.475938   -0.724563    0.846341
      6          6           0       -0.595080   -0.413516    0.147616
      7          1           0        0.224477    1.125996   -0.757708
      8          1           0        0.522957    1.104812    0.872952
      9          6           0       -1.938319   -0.002601   -0.113993
     10          1           0       -0.885267   -0.987503    1.089211
     11          1           0       -0.220446   -1.262261   -0.762876
     12          1           0       -2.042157    0.796537    0.748268
     13          1           0       -2.558771   -0.562380   -0.194095
     14          1           0       -1.973437    0.484351   -1.018776
 ---------------------------------------------------------------------

 SCF Done:  E(RB2PLYPD3) =  -157.919868998     A.U. after   11 cycles
 E2(B2PLYPD3) =    -0.2488506694D+00 E(B2PLYPD3) =    -0.15816871966694D+03

 The electronic state is 1-A.
 Alpha  occ. eigenvalues --  -10.61929 -10.60480 -10.59798 -10.56794  -0.93090
 Alpha  occ. eigenvalues --   -0.84464  -0.76089  -0.67197  -0.57564  -0.53641
 Alpha  occ. eigenvalues --   -0.50017  -0.46578  -0.45660  -0.38999  -0.38381
 Alpha  occ. eigenvalues --   -0.36749  -0.34452
 Alpha virt. eigenvalues --    0.05798   0.06765   0.08446   0.08636   0.10150
 Alpha virt. eigenvalues --    0.12286   0.12626   0.12877   0.14130   0.16052
 Alpha virt. eigenvalues --    0.16635   0.17362   0.18617   0.19114   0.21930

 Mulliken charges:
               1
     1  C   -0.196895
     2  C   -0.110494
     3  H    0.027298
     4  H    0.068090
     5  H    0.073530
     6  C   -0.020931
     7  H    0.077892
     8  H    0.092093
     9  C   -0.196242
    10  H    0.030939
    11  H   -0.014110
    12  H    0.036650
    13  H    0.117535
    14  H    0.014646
 Sum of Mulliken charges =   0.00000

 Dipole moment (field-independent basis, Debye):
    X=             -0.3300    Y=              0.0987    Z=             -0.1436  Tot=              0.3732
 Quadrupole moment (field-independent basis, Debye-Ang):
   XX=            -29.1134   YY=            -29.9301   ZZ=            -27.2788
   XY=              0.1486   XZ=             -0.2324   YZ=             -0.1567

 Normal termination of Gaussian 09 at Wed Aug 26 12:05:50 2020.
