 Gaussian 09, Revision D.01,
 Gaussian 09:  ES64L-G09RevD.01 24-Apr-2013

 --------------------
 #p B2PLYPD3/Def2QZVP
 --------------------

 ----------
 butane_opt
 ----------
 Symbolic Z-matrix:
 Charge =  0 Multiplicity = 1

                         Standard orientation:
 ---------------------------------------------------------------------
 Center     Atomic      Atomic             Coordinates (Angstroms)
 Number     Number       Type             X           Y           Z
 ---------------------------------------------------------------------
      1          6           0        1.946274    0.057791   -0.118833
      2          6           0        0.646897   -0.447333    0.275588
      3          1           0        2.800722   -0.977318   -0.834931
      4          1           0        2.633834    1.209741    0.888367
      5          1           0        1.849881    0.325163   -0.823197
      6          6           0       -0.579307    0.630882    0.048821
      7          1           0        0.633737   -1.133443    1.335473
      8          1           0        0.339093   -1.093071   -0.660021
      9          6           0       -2.013839   -0.189525   -0.074387
     10          1           0       -0.391921    1.318989   -1.094892
     11          1           0       -0.611004    1.103370    0.652649
     12          1           0       -2.204074   -0.929911   -1.011539
     13          1           0       -2.698753    0.495503   -0.050254
     14          1           0       -2.351663   -0.629919    0.811205
 ---------------------------------------------------------------------

 SCF Done:  E(RB2PLYPD3) =  -157.605885414     A.U. after   12 cycles
 E2(B2PLYPD3) =    -0.2557823877D+00 E(B2PLYPD3) =    -0.15786166780216D+03

 The electronic state is 1-A.
 Alpha  occ. eigenvalues --  -10.64687 -10.64583 -10.62806 -10.60765  -0.92498
 Alpha  occ. eigenvalues --   -0.86103  -0.76489  -0.68858  -0.54972  -0.48878
 Alpha  occ. eigenvalues --   -0.46405  -0.45550  -0.43338  -0.41971  -0.38876
 Alpha  occ. eigenvalues --   -0.36008  -0.32658
 Alpha virt. eigenvalues --    0.01102   0.04701   0.06110   0.06790   0.09109
 Alpha virt. eigenvalues --    0.09830   0.11567   0.13283   0.13994   0.14500
 Alpha virt. eigenvalues --    0.15203   0.16306   0.18123   0.18437   0.19847

 Mulliken charges:
               1
     1  C   -0.440027
     2  C   -0.029406
     3  H   -0.007180
     4  H   -0.000221
     5  H    0.362902
     6  C   -0.321475
     7  H    0.051299
     8  H    0.044205
     9  C   -0.119477
    10  H    0.019315
    11  H    0.303207
    12  H    0.040383
    13  H    0.058906
    14  H    0.037569
 Sum of Mulliken charges =   0.00000

 Dipole moment (field-independent basis, Debye):
    X=             -1.4168    Y=              0.2221    Z=             -0.1647  Tot=              1.4436
 Quadrupole moment (field-independent basis, Debye-Ang):
   XX=            -32.7578   YY=            -29.9615   ZZ=            -28.0051
   XY=              0.1251   XZ=             -1.3447   YZ=              0.5928

 Normal termination of Gaussian 09 at Wed Aug 26 23:06:46 2020.
