 Gaussian 09, Revision D.01,
 Gaussian 09:  ES64L-G09RevD.01 24-Apr-2013

 --------------------
 #p B2PLYPD3/Def2QZVP
 --------------------

 ----------
 butane_opt
 ----------
 Symbolic Z-matrix:
 Charge =  0 Multiplicity = 1

                         Standard orientation:
 ---------------------------------------------------------------------
 Center     Atomic      Atomic             Coordinates (Angstroms)
 Number     Number       Type             X           Y           Z
 ---------------------------------------------------------------------
      1          6           0        1.994868    0.100809   -0.258078
      2          6           0        0.632198   -0.412323    0.195174
      3          1           0        2.889367   -0.893944   -0.265156
      4          1           0        2.068351    0.679962    0.622921
      5          1           0        1.838792    0.373505   -0.981220
      6          6           0       -0.561337    0.636135    0.217107
      7          1           0        0.822217   -1.168025    1.409372
      8          1           0        0.471267   -0.761489   -0.388189
      9          6           0       -2.002492   -0.236499   -0.169550
     10          1           0       -0.309652    1.082460   -0.518533
     11          1           0       -0.685389    1.448061    1.068056
     12          1           0       -2.038801   -0.807126   -0.928562
     13          1           0       -2.847056    0.381157   -0.839927
     14          1           0       -2.588514   -0.863295    0.913324
 ---------------------------------------------------------------------

 SCF Done:  E(RB2PLYPD3) =  -157.552069037     A.U. after   11 cycles
 E2(B2PLYPD3) =    -0.2522870585D+00 E(B2PLYPD3) =    -0.15780435609535D+03

 The electronic state is 1-A.
 Alpha  occ. eigenvalues --  -10.64199 -10.62745 -10.60323 -10.59002  -0.95371
 Alpha  occ. eigenvalues --   -0.83703  -0.75998  -0.72151  -0.58946  -0.51050
 Alpha  occ. eigenvalues --   -0.47373  -0.44922  -0.42698  -0.40194  -0.39321
 Alpha  occ. eigenvalues --   -0.36323  -0.34633
 Alpha virt. eigenvalues --    0.04408   0.05362   0.07717   0.08439   0.10525
 Alpha virt. eigenvalues --    0.10999   0.11895   0.12219   0.13524   0.15694
 Alpha virt. eigenvalues --    0.15917   0.16377   0.18266   0.19040   0.20281

 Mulliken charges:
               1
     1  C   -0.354863
     2  C   -0.588809
     3  H    0.034186
     4  H    0.089347
     5  H    0.237131
     6  C   -0.116391
     7  H    0.005897
     8  H    0.548009
     9  C   -0.197445
    10  H    0.144446
    11  H    0.051948
    12  H    0.088724
    13  H    0.016014
    14  H    0.041806
 Sum of Mulliken charges =   0.00000

 Dipole moment (field-independent basis, Debye):
    X=              0.0133    Y=              0.2649    Z=             -0.8176  Tot=              0.8596
 Quadrupole moment (field-independent basis, Debye-Ang):
   XX=            -31.6727   YY=            -29.5598   ZZ=            -27.4384
   XY=              0.0518   XZ=              0.8243   YZ=              0.5927

 Normal termination of Gaussian 09 at Wed Aug 26 15:45:28 2020.
