 Gaussian 09, Revision D.01,
 Gaussian 09:  ES64L-G09RevD.01 24-Apr-2013

 --------------------
 #p B2PLYPD3/Def2QZVP
 --------------------

 ----------
 butane_opt
 ----------
 Symbolic Z-matrix:
 Charge =  0 Multiplicity = 1

                         Standard orientation:
 ---------------------------------------------------------------------
 Center     Atomic      Atomic             Coordinates (Angstroms)
 Number     Number       Type             X           Y           Z
 ---------------------------------------------------------------------
      1          6           0        1.917502    0.103948    0.149792
      2          6           0        0.629811   -0.461565   -0.172848
      3          1           0        2.771885   -0.662909    0.142815
      4          1           0        1.793988    0.686714    1.073879
      5          1           0        2.101021    0.516454   -0.683917
      6          6           0       -0.603216    0.610407   -0.119063
      7          1           0        0.571397   -1.027826    0.608215
      8          1           0        0.669133   -1.088831   -1.170487
      9          6           0       -1.976891   -0.218390    0.025633
     10          1           0       -0.395690    1.086522   -0.908727
     11          1           0       -0.130089    1.195236    0.730147
     12          1           0       -2.386659   -0.334074   -0.539175
     13          1           0       -2.741123    0.580086    0.326551
     14          1           0       -2.057102   -1.157762    1.119612
 ---------------------------------------------------------------------

 SCF Done:  E(RB2PLYPD3) =  -157.746901776     A.U. after   11 cycles
 E2(B2PLYPD3) =    -0.2502379933D+00 E(B2PLYPD3) =    -0.15799713976937D+03

 The electronic state is 1-A.
 Alpha  occ. eigenvalues --  -10.61293 -10.61247 -10.58725 -10.57940  -0.92477
 Alpha  occ. eigenvalues --   -0.87066  -0.77163  -0.67488  -0.56501  -0.52417
 Alpha  occ. eigenvalues --   -0.48749  -0.45766  -0.43203  -0.40731  -0.39938
 Alpha  occ. eigenvalues --   -0.36989  -0.33788
 Alpha virt. eigenvalues --    0.05109   0.06386   0.08184   0.08411   0.10561
 Alpha virt. eigenvalues --    0.11117   0.12469   0.13704   0.14484   0.15306
 Alpha virt. eigenvalues --    0.16278   0.17912   0.18431   0.19301   0.21558

 Mulliken charges:
               1
     1  C   -0.163959
     2  C   -0.054111
     3  H    0.030169
     4  H    0.052570
     5  H    0.059557
     6  C   -0.083737
     7  H    0.073986
     8  H    0.006825
     9  C   -0.520043
    10  H    0.090384
    11  H    0.039810
    12  H    0.381343
    13  H    0.041048
    14  H    0.046158
 Sum of Mulliken charges =   0.00000

 Dipole moment (field-independent basis, Debye):
    X=             -0.0746    Y=              0.1969    Z=             -0.2694  Tot=              0.3419
 Quadrupole moment (field-independent basis, Debye-Ang):
   XX=            -28.9620   YY=            -29.6858   ZZ=            -27.6052
   XY=             -0.5013   XZ=              0.4435   YZ=             -0.4158

 Normal termination of Gaussian 09 at Wed Aug 26 21:35:12 2020.
