 Gaussian 09, Revision D.01,
 Gaussian 09:  ES64L-G09RevD.01 24-Apr-2013

 --------------------
 #p B2PLYPD3/Def2QZVP
 --------------------

 ----------
 butane_opt
 ----------
 Symbolic Z-matrix:
 Charge =  0 Multiplicity = 1

                         Standard orientation:
 ---------------------------------------------------------------------
 Center     Atomic      Atomic             Coordinates (Angstroms)
 Number     Number       Type             X           Y           Z
 ---------------------------------------------------------------------
      1          6           0       -1.898853   -0.079360    0.073650
      2          6           0       -0.607953    0.413944   -0.130685
      3          1           0       -2.645912    0.707819   -0.145736
      4          1           0       -2.022391   -0.796840    1.168120
      5          1           0       -1.967792   -0.585173   -0.641426
      6          6           0        0.547311   -0.536139   -0.036435
      7          1           0       -0.520649    1.131324    0.671149
      8          1           0       -0.420075    1.200330   -1.144187
      9          6           0        1.950580    0.158245    0.045636
     10          1           0        0.393059   -1.128254   -0.836870
     11          1           0        0.360696   -1.180488    0.899400
     12          1           0        2.002242    0.268697   -0.453175
     13          1           0        2.713585   -0.613961   -0.397809
     14          1           0        2.160726    1.256406    1.167536
 ---------------------------------------------------------------------

 SCF Done:  E(RB2PLYPD3) =  -157.051099843     A.U. after   12 cycles
 E2(B2PLYPD3) =    -0.2534378970D+00 E(B2PLYPD3) =    -0.15730453773985D+03

 The electronic state is 1-A.
 Alpha  occ. eigenvalues --  -10.64519 -10.60876 -10.60830 -10.58989  -0.95701
 Alpha  occ. eigenvalues --   -0.91083  -0.78109  -0.66442  -0.54707  -0.50928
 Alpha  occ. eigenvalues --   -0.49834  -0.46452  -0.41001  -0.40056  -0.39576
 Alpha  occ. eigenvalues --   -0.36366  -0.35412
 Alpha virt. eigenvalues --    0.02949   0.05934   0.06265   0.07232   0.10372
 Alpha virt. eigenvalues --    0.10546   0.12275   0.12733   0.13898   0.15321
 Alpha virt. eigenvalues --    0.16006   0.16609   0.18680   0.19247   0.21280

 Mulliken charges:
               1
     1  C   -0.212007
     2  C   -0.007232
     3  H    0.052642
     4  H    0.033434
     5  H    0.117117
     6  C    0.007418
     7  H    0.022120
     8  H   -0.014069
     9  C   -1.001793
    10  H    0.049880
    11  H    0.026707
    12  H    0.803292
    13  H    0.053675
    14  H    0.068815
 Sum of Mulliken charges =   0.00000

 Dipole moment (field-independent basis, Debye):
    X=             -0.1739    Y=             -0.0048    Z=             -0.5639  Tot=              0.5901
 Quadrupole moment (field-independent basis, Debye-Ang):
   XX=            -30.3154   YY=            -29.0317   ZZ=            -27.7085
   XY=              0.1123   XZ=             -0.7861   YZ=              0.9451

 Normal termination of Gaussian 09 at Wed Aug 26 22:14:47 2020.
