 Gaussian 09, Revision D.01,
 Gaussian 09:  ES64L-G09RevD.01 24-Apr-2013

 --------------------
 #p B2PLYPD3/Def2QZVP
 --------------------

 ----------
 butane_opt
 ----------
 Symbolic Z-matrix:
 Charge =  0 Multiplicity = 1

                         Standard orientation:
 ---------------------------------------------------------------------
 Center     Atomic      Atomic             Coordinates (Angstroms)
 Number     Number       Type             X           Y           Z
 ---------------------------------------------------------------------
      1          6           0        1.959662    0.071034   -0.145553
      2          6           0        0.589385   -0.361741    0.138349
      3          1           0        2.789692   -0.729934    0.406834
      4          1           0        2.097364    0.350077    0.517656
      5          1           0        2.083050    0.616346   -1.265129
      6          6           0       -0.521768    0.530416   -0.055323
      7          1           0        0.612541   -1.222866    1.333620
      8          1           0        0.303958   -0.985233   -0.511081
      9          6           0       -2.007088   -0.156748   -0.057009
     10          1           0       -0.411856    0.993072   -0.740040
     11          1           0       -0.559790    1.656944    0.978650
     12          1           0       -2.526963   -1.458426   -1.055519
     13          1           0       -2.706043    0.616113    0.455601
     14          1           0       -1.803100   -0.333857    0.596627
 ---------------------------------------------------------------------

 SCF Done:  E(RB2PLYPD3) =  -157.311244993     A.U. after   12 cycles
 E2(B2PLYPD3) =    -0.2583887340D+00 E(B2PLYPD3) =    -0.15756963372726D+03

 The electronic state is 1-A.
 Alpha  occ. eigenvalues --  -10.63660 -10.62544 -10.62279 -10.60334  -0.96866
 Alpha  occ. eigenvalues --   -0.89920  -0.81044  -0.70231  -0.55327  -0.51109
 Alpha  occ. eigenvalues --   -0.49617  -0.44099  -0.43093  -0.40617  -0.37769
 Alpha  occ. eigenvalues --   -0.35722  -0.33112
 Alpha virt. eigenvalues --   -0.00237   0.03171   0.05807   0.06248   0.09555
 Alpha virt. eigenvalues --    0.10496   0.11703   0.12217   0.13566   0.14774
 Alpha virt. eigenvalues --    0.15847   0.16344   0.16793   0.18479   0.19917

 Mulliken charges:
               1
     1  C   -0.565568
     2  C   -0.024940
     3  H    0.030640
     4  H    0.428094
     5  H    0.086328
     6  C   -0.152605
     7  H   -0.027971
     8  H    0.111130
     9  C   -0.675926
    10  H    0.179596
    11  H   -0.051658
    12  H    0.046038
    13  H    0.078656
    14  H    0.538186
 Sum of Mulliken charges =   0.00000

 Dipole moment (field-independent basis, Debye):
    X=              0.4776    Y=              0.0259    Z=             -0.1792  Tot=              0.5108
 Quadrupole moment (field-independent basis, Debye-Ang):
   XX=            -30.6578   YY=            -30.4838   ZZ=            -28.3812
   XY=              0.9063   XZ=             -0.1427   YZ=             -0.0952

 Normal termination of Gaussian 09 at Wed Aug 26 23:11:43 2020.
