 Gaussian 09, Revision D.01,
 Gaussian 09:  ES64L-G09RevD.01 24-Apr-2013

 --------------------
 #p B2PLYPD3/Def2QZVP
 --------------------

 ----------
 butane_opt
 ----------
 Symbolic Z-matrix:
 Charge =  0 Multiplicity = 1

                         Standard orientation:
 ---------------------------------------------------------------------
 Center     Atomic      Atomic             Coordinates (Angstroms)
 Number     Number       Type             X           Y           Z
 ---------------------------------------------------------------------
      1          6           0       -1.897978   -0.211792   -0.109759
      2          6           0       -0.507496    0.527409    0.275406
      3          1           0       -2.735943    0.627431   -0.586844
      4          1           0       -2.651468   -0.913885    0.730051
      5          1           0       -1.612587   -0.504468   -0.790206
      6          6           0        0.548456   -0.381514   -0.010414
      7          1           0       -0.251544    1.059577    1.329643
      8          1           0       -0.552536    1.347027   -0.582706
      9          6           0        1.908083    0.110573   -0.093975
     10          1           0        0.327525   -1.071736   -0.972802
     11          1           0        0.528810   -1.238330    0.842626
     12          1           0        1.767786    1.010896   -1.138825
     13          1           0        2.926270   -0.989191    0.094615
     14          1           0        1.947291    0.404617    0.706904
 ---------------------------------------------------------------------

 SCF Done:  E(RB2PLYPD3) =  -157.753671177     A.U. after   11 cycles
 E2(B2PLYPD3) =    -0.2557864460D+00 E(B2PLYPD3) =    -0.15800945762289D+03

 The electronic state is 1-A.
 Alpha  occ. eigenvalues --  -10.64163 -10.63680 -10.62300 -10.62297  -0.94832
 Alpha  occ. eigenvalues --   -0.86067  -0.74411  -0.64802  -0.54845  -0.51198
 Alpha  occ. eigenvalues --   -0.47630  -0.45587  -0.43644  -0.38249  -0.37977
 Alpha  occ. eigenvalues --   -0.36523  -0.34605
 Alpha virt. eigenvalues --    0.02682   0.05450   0.06465   0.07281   0.08988
 Alpha virt. eigenvalues --    0.09863   0.11978   0.12604   0.13954   0.14697
 Alpha virt. eigenvalues --    0.15644   0.15966   0.17701   0.19153   0.20121

 Mulliken charges:
               1
     1  C   -0.401924
     2  C   -0.044792
     3  H    0.022555
     4  H    0.062944
     5  H    0.306287
     6  C   -0.004853
     7  H    0.037643
     8  H    0.025941
     9  C   -0.263106
    10  H    0.010643
    11  H    0.012457
    12  H    0.038637
    13  H    0.016755
    14  H    0.180813
 Sum of Mulliken charges =   0.00000

 Dipole moment (field-independent basis, Debye):
    X=             -0.2974    Y=              0.0756    Z=              0.2093  Tot=              0.3715
 Quadrupole moment (field-independent basis, Debye-Ang):
   XX=            -32.1884   YY=            -30.2760   ZZ=            -28.6660
   XY=             -0.0942   XZ=              1.3668   YZ=             -0.6416

 Normal termination of Gaussian 09 at Wed Aug 26 14:17:06 2020.
