 Gaussian 09, Revision D.01,
 Gaussian 09:  ES64L-G09RevD.01 24-Apr-2013

 --------------------
 #p B2PLYPD3/Def2QZVP
 --------------------

 ----------
 butane_opt
 ----------
 Symbolic Z-matrix:
 Charge =  0 Multiplicity = 1

                         Standard orientation:
 ---------------------------------------------------------------------
 Center     Atomic      Atomic             Coordinates (Angstroms)
 Number     Number       Type             X           Y           Z
 ---------------------------------------------------------------------
      1          6           0        1.861798    0.050155   -0.137715
      2          6           0        0.567560   -0.371086    0.314687
      3          1           0        2.752169   -1.161327   -0.750398
      4          1           0        2.386964    0.937268    0.629139
      5          1           0        1.344793    0.689105   -1.207352
      6          6           0       -0.499364    0.578139    0.047476
      7          1           0        0.828112   -0.833992    1.360736
      8          1           0        0.487517   -1.004714   -0.293166
      9          6           0       -2.017674   -0.202508   -0.080094
     10          1           0       -0.201809    0.785273   -0.916262
     11          1           0       -0.372806    1.408393    0.770544
     12          1           0       -1.832503   -1.080161   -0.859058
     13          1           0       -2.710944    0.442442   -0.418022
     14          1           0       -2.155420   -0.510486    0.817715
 ---------------------------------------------------------------------

 SCF Done:  E(RB2PLYPD3) =  -157.868318522     A.U. after   11 cycles
 E2(B2PLYPD3) =    -0.2553593644D+00 E(B2PLYPD3) =    -0.15812367788625D+03

 The electronic state is 1-A.
 Alpha  occ. eigenvalues --  -10.67915 -10.61228 -10.60422 -10.58214  -0.95486
 Alpha  occ. eigenvalues --   -0.82979  -0.73221  -0.65331  -0.57545  -0.51300
 Alpha  occ. eigenvalues --   -0.47861  -0.45994  -0.42777  -0.42385  -0.36715
 Alpha  occ. eigenvalues --   -0.36372  -0.34013
 Alpha virt. eigenvalues --    0.02015   0.06087   0.07413   0.07777   0.09422
 Alpha virt. eigenvalues --    0.10996   0.11812   0.13208   0.14444   0.14585
 Alpha virt. eigenvalues --    0.14681   0.16864   0.18449   0.19129   0.20799

 Mulliken charges:
               1
     1  C   -0.171949
     2  C   -0.132425
     3  H    0.016686
     4  H    0.047355
     5  H    0.004023
     6  C   -0.092406
     7  H    0.030144
     8  H    0.160191
     9  C   -0.162690
    10  H    0.073483
    11  H    0.047662
    12  H    0.032960
    13  H    0.062177
    14  H    0.084787
 Sum of Mulliken charges =   0.00000

 Dipole moment (field-independent basis, Debye):
    X=             -0.8473    Y=              0.0151    Z=              0.2281  Tot=              0.8776
 Quadrupole moment (field-independent basis, Debye-Ang):
   XX=            -32.0239   YY=            -29.5264   ZZ=            -28.8557
   XY=             -0.4577   XZ=              1.0746   YZ=              1.1205

 Normal termination of Gaussian 09 at Wed Aug 26 11:16:36 2020.
