 Gaussian 09, Revision D.01,
 Gaussian 09:  ES64L-G09RevD.01 24-Apr-2013

 --------------------
 #p B2PLYPD3/Def2QZVP
 --------------------

 ----------
 butane_opt
 ----------
 Symbolic Z-matrix:
 Charge =  0 Multiplicity = 1

                         Standard orientation:
 ---------------------------------------------------------------------
 Center     Atomic      Atomic             Coordinates (Angstroms)
 Number     Number       Type             X           Y           Z
 ---------------------------------------------------------------------
      1          6           0       -2.029048   -0.122632   -0.045206
      2          6           0       -0.523833    0.622661    0.080089
      3          1           0       -2.747964    0.454659   -0.927990
      4          1           0       -2.609050   -1.178737    1.095207
      5          1           0       -1.962653   -0.578139   -0.828661
      6          6           0        0.573273   -0.469400    0.058578
      7          1           0       -0.387900    1.587553    1.110270
      8          1           0       -0.283439    0.823476   -0.504375
      9          6           0        1.895568    0.042352   -0.079650
     10          1           0        0.784783   -1.035016   -0.537011
     11          1           0        0.639348   -1.080012    0.953857
     12          1           0        2.052141    0.579384   -0.899801
     13          1           0        2.623489   -0.764201   -0.258215
     14          1           0        2.395483    0.753146    0.713854
 ---------------------------------------------------------------------

 SCF Done:  E(RB2PLYPD3) =  -157.474277889     A.U. after   12 cycles
 E2(B2PLYPD3) =    -0.2550679284D+00 E(B2PLYPD3) =    -0.15772934581738D+03

 The electronic state is 1-A.
 Alpha  occ. eigenvalues --  -10.65357 -10.62521 -10.59230 -10.57521  -0.96857
 Alpha  occ. eigenvalues --   -0.86830  -0.77628  -0.71443  -0.56293  -0.50540
 Alpha  occ. eigenvalues --   -0.48871  -0.45429  -0.40297  -0.39899  -0.38038
 Alpha  occ. eigenvalues --   -0.37052  -0.34937
 Alpha virt. eigenvalues --    0.00703   0.05533   0.07355   0.07888   0.09235
 Alpha virt. eigenvalues --    0.11033   0.12277   0.12578   0.14187   0.15597
 Alpha virt. eigenvalues --    0.15771   0.17283   0.17434   0.18558   0.20761

 Mulliken charges:
               1
     1  C   -0.256393
     2  C   -0.699234
     3  H    0.019358
     4  H    0.050313
     5  H    0.172472
     6  C   -0.165931
     7  H    0.044988
     8  H    0.672090
     9  C   -0.118395
    10  H    0.175661
    11  H    0.036215
    12  H    0.027835
    13  H    0.024179
    14  H    0.016842
 Sum of Mulliken charges =   0.00000

 Dipole moment (field-independent basis, Debye):
    X=              0.5932    Y=             -0.5012    Z=             -1.0607  Tot=              1.3146
 Quadrupole moment (field-independent basis, Debye-Ang):
   XX=            -31.3053   YY=            -29.0696   ZZ=            -27.5633
   XY=              0.8416   XZ=              0.6455   YZ=             -0.2630

 Normal termination of Gaussian 09 at Wed Aug 26 22:18:16 2020.
