 Gaussian 09, Revision D.01,
 Gaussian 09:  ES64L-G09RevD.01 24-Apr-2013

 --------------------
 #p B2PLYPD3/Def2QZVP
 --------------------

 ----------
 butane_opt
 ----------
 Symbolic Z-matrix:
 Charge =  0 Multiplicity = 1

                         Standard orientation:
 ---------------------------------------------------------------------
 Center     Atomic      Atomic             Coordinates (Angstroms)
 Number     Number       Type             X           Y           Z
 ---------------------------------------------------------------------
      1          6           0        2.016667   -0.162461   -0.016984
      2          6           0        0.527012    0.564267   -0.013882
      3          1           0        2.713030    0.415824   -0.043315
      4          1           0        2.393243   -0.712100   -0.830892
      5          1           0        2.319379   -1.002444    0.988754
      6          6           0       -0.657392   -0.398780    0.023466
      7          1           0        0.696820    1.242924   -0.953703
      8          1           0        0.438485    1.224576    0.700162
      9          6           0       -1.954606    0.124232   -0.030542
     10          1           0       -0.702501   -1.360732    1.142584
     11          1           0       -0.472861   -0.947200   -0.710383
     12          1           0       -2.042930    1.119682    1.186595
     13          1           0       -2.945528   -1.010727   -0.580870
     14          1           0       -1.987219    0.266647   -0.671280
 ---------------------------------------------------------------------

 SCF Done:  E(RB2PLYPD3) =  -157.472906625     A.U. after   12 cycles
 E2(B2PLYPD3) =    -0.2562532165D+00 E(B2PLYPD3) =    -0.15772915984187D+03

 The electronic state is 1-A.
 Alpha  occ. eigenvalues --  -10.64341 -10.63235 -10.62549 -10.61116  -0.96368
 Alpha  occ. eigenvalues --   -0.86441  -0.77813  -0.69527  -0.57630  -0.49587
 Alpha  occ. eigenvalues --   -0.48203  -0.46523  -0.43389  -0.40925  -0.38170
 Alpha  occ. eigenvalues --   -0.35306  -0.32667
 Alpha virt. eigenvalues --   -0.00380   0.04921   0.05580   0.06347   0.09082
 Alpha virt. eigenvalues --    0.10457   0.11640   0.12185   0.13209   0.14664
 Alpha virt. eigenvalues --    0.14972   0.16139   0.18132   0.19051   0.21330

 Mulliken charges:
               1
     1  C   -0.167696
     2  C   -0.029695
     3  H    0.084438
     4  H    0.031491
     5  H    0.016695
     6  C   -0.005770
     7  H    0.007459
     8  H    0.061199
     9  C   -0.694134
    10  H   -0.000223
    11  H    0.089688
    12  H    0.053164
    13  H   -0.024783
    14  H    0.578165
 Sum of Mulliken charges =   0.00000

 Dipole moment (field-independent basis, Debye):
    X=              0.9465    Y=              0.8890    Z=             -0.9008  Tot=              1.5804
 Quadrupole moment (field-independent basis, Debye-Ang):
   XX=            -32.0742   YY=            -29.7625   ZZ=            -28.6728
   XY=             -0.0353   XZ=             -0.3502   YZ=              1.0907

 Normal termination of Gaussian 09 at Wed Aug 26 10:16:08 2020.
