 Gaussian 09, Revision D.01,
 Gaussian 09:  ES64L-G09RevD.01 24-Apr-2013

 --------------------
 #p B2PLYPD3/Def2QZVP
 --------------------

 ----------
 butane_opt
 ----------
 Symbolic Z-matrix:
 Charge =  0 Multiplicity = 1

                         Standard orientation:
 ---------------------------------------------------------------------
 Center     Atomic      Atomic             Coordinates (Angstroms)
 Number     Number       Type             X           Y           Z
 ---------------------------------------------------------------------
      1          6           0       -1.900941    0.165611   -0.144641
      2          6           0       -0.551744   -0.511333    0.115448
      3          1           0       -2.710890   -0.503303    0.110901
      4          1           0       -2.178470    1.312071   -1.183577
      5          1           0       -2.183049    0.416936    0.567898
      6          6           0        0.598498    0.332908    0.254282
      7          1           0       -0.176729   -1.220215   -1.057972
      8          1           0       -0.566961   -1.219561    0.844026
      9          6           0        1.872078   -0.116800   -0.194497
     10          1           0        0.604540    1.155639    1.507670
     11          1           0        0.431409    1.011769   -0.308231
     12          1           0        1.966554   -0.755817    0.603234
     13          1           0        2.906959    1.008433   -0.385114
     14          1           0        1.799293   -0.428270   -0.882387
 ---------------------------------------------------------------------

 SCF Done:  E(RB2PLYPD3) =  -157.562252931     A.U. after   12 cycles
 E2(B2PLYPD3) =    -0.2550118865D+00 E(B2PLYPD3) =    -0.15781726481797D+03

 The electronic state is 1-A.
 Alpha  occ. eigenvalues --  -10.64543 -10.61923 -10.60717 -10.59515  -0.96846
 Alpha  occ. eigenvalues --   -0.89601  -0.78812  -0.69042  -0.59957  -0.51494
 Alpha  occ. eigenvalues --   -0.50147  -0.47762  -0.40455  -0.39961  -0.37738
 Alpha  occ. eigenvalues --   -0.36586  -0.33092
 Alpha virt. eigenvalues --    0.02693   0.03715   0.05095   0.06632   0.09241
 Alpha virt. eigenvalues --    0.10613   0.11808   0.12808   0.14055   0.14537
 Alpha virt. eigenvalues --    0.15525   0.16816   0.17885   0.19256   0.19661

 Mulliken charges:
               1
     1  C   -0.349253
     2  C   -0.004296
     3  H    0.043655
     4  H    0.046425
     5  H    0.244176
     6  C   -0.071547
     7  H   -0.030092
     8  H    0.067560
     9  C   -0.401338
    10  H   -0.045484
    11  H    0.117065
    12  H    0.082396
    13  H    0.004603
    14  H    0.296129
 Sum of Mulliken charges =   0.00000

 Dipole moment (field-independent basis, Debye):
    X=             -0.9150    Y=             -0.3003    Z=              0.2892  Tot=              1.0055
 Quadrupole moment (field-independent basis, Debye-Ang):
   XX=            -30.4023   YY=            -29.7942   ZZ=            -29.4032
   XY=             -0.4474   XZ=             -2.3649   YZ=             -2.0265

 Normal termination of Gaussian 09 at Wed Aug 26 22:42:40 2020.
