 Gaussian 09, Revision D.01,
 Gaussian 09:  ES64L-G09RevD.01 24-Apr-2013

 --------------------
 #p B2PLYPD3/Def2QZVP
 --------------------

 ----------
 butane_opt
 ----------
 Symbolic Z-matrix:
 Charge =  0 Multiplicity = 1

                         Standard orientation:
 ---------------------------------------------------------------------
 Center     Atomic      Atomic             Coordinates (Angstroms)
 Number     Number       Type             X           Y           Z
 ---------------------------------------------------------------------
      1          6           0       -1.910395    0.083541   -0.074333
      2          6           0       -0.577545   -0.493556    0.152099
      3          1           0       -2.713597   -0.661015   -0.710790
      4          1           0       -1.612881    0.590365   -1.011033
      5          1           0       -2.568551    0.850393    0.790247
      6          6           0        0.524607    0.665925    0.034534
      7          1           0       -0.524754   -1.024476   -0.454125
      8          1           0       -0.719610   -1.395946    1.205584
      9          6           0        2.023232   -0.170008   -0.121337
     10          1           0        0.514314    1.434190    0.943671
     11          1           0        0.434887    0.819544   -0.512548
     12          1           0        2.271625   -0.870577    0.830022
     13          1           0        2.660877    0.509735   -0.078541
     14          1           0        1.898295   -0.767621   -0.948273
 ---------------------------------------------------------------------

 SCF Done:  E(RB2PLYPD3) =  -157.332790529     A.U. after   11 cycles
 E2(B2PLYPD3) =    -0.2516338610D+00 E(B2PLYPD3) =    -0.15758442439014D+03

 The electronic state is 1-A.
 Alpha  occ. eigenvalues --  -10.63762 -10.61325 -10.60852 -10.59984  -0.95218
 Alpha  occ. eigenvalues --   -0.85324  -0.76928  -0.69098  -0.56483  -0.52286
 Alpha  occ. eigenvalues --   -0.48194  -0.47291  -0.43420  -0.41799  -0.38648
 Alpha  occ. eigenvalues --   -0.35497  -0.34312
 Alpha virt. eigenvalues --    0.04824   0.06447   0.07780   0.08526   0.10140
 Alpha virt. eigenvalues --    0.11050   0.11998   0.13149   0.13967   0.15678
 Alpha virt. eigenvalues --    0.15966   0.16779   0.18258   0.19164   0.20967

 Mulliken charges:
               1
     1  C   -0.158516
     2  C   -0.218234
     3  H    0.025376
     4  H    0.036415
     5  H    0.050327
     6  C   -0.852527
     7  H    0.263433
     8  H   -0.005409
     9  C   -0.167660
    10  H    0.082495
    11  H    0.749887
    12  H    0.043418
    13  H    0.090146
    14  H    0.060848
 Sum of Mulliken charges =   0.00000

 Dipole moment (field-independent basis, Debye):
    X=              0.3621    Y=              0.3210    Z=             -0.6812  Tot=              0.8356
 Quadrupole moment (field-independent basis, Debye-Ang):
   XX=            -30.1329   YY=            -28.9342   ZZ=            -28.1157
   XY=              0.4192   XZ=              0.2409   YZ=              1.3785

 Normal termination of Gaussian 09 at Wed Aug 26 16:26:22 2020.
