 Gaussian 09, Revision D.01,
 Gaussian 09:  ES64L-G09RevD.01 24-Apr-2013

 --------------------
 #p B2PLYPD3/Def2QZVP
 --------------------

 ----------
 butane_opt
 ----------
 Symbolic Z-matrix:
 Charge =  0 Multiplicity = 1

                         Standard orientation:
 ---------------------------------------------------------------------
 Center     Atomic      Atomic             Coordinates (Angstroms)
 Number     Number       Type             X           Y           Z
 ---------------------------------------------------------------------
      1          6           0        1.824955    0.104881   -0.060117
      2          6           0        0.634812   -0.419360    0.033701
      3          1           0        2.706393   -0.940465   -0.204370
      4          1           0        1.897591    0.453444    0.739403
      5          1           0        2.012141    0.788340   -0.988931
      6          6           0       -0.480838    0.540880    0.222753
      7          1           0        0.711033   -0.942686    0.852770
      8          1           0        0.334974   -1.024439   -0.714397
      9          6           0       -1.978614   -0.156527   -0.085728
     10          1           0       -0.150652    1.267708   -0.589486
     11          1           0       -0.488099    1.087893    0.984716
     12          1           0       -1.712556   -0.766682   -0.907766
     13          1           0       -2.789563    0.719683   -0.674593
     14          1           0       -2.523153   -1.062040    0.838999
 ---------------------------------------------------------------------

 SCF Done:  E(RB2PLYPD3) =  -157.874326754     A.U. after   11 cycles
 E2(B2PLYPD3) =    -0.2509926770D+00 E(B2PLYPD3) =    -0.15812531943088D+03

 The electronic state is 1-A.
 Alpha  occ. eigenvalues --  -10.65886 -10.60450 -10.59557 -10.56302  -0.97636
 Alpha  occ. eigenvalues --   -0.83369  -0.71723  -0.69436  -0.59458  -0.52078
 Alpha  occ. eigenvalues --   -0.48715  -0.45055  -0.41504  -0.40696  -0.39552
 Alpha  occ. eigenvalues --   -0.38208  -0.34288
 Alpha virt. eigenvalues --    0.04545   0.05251   0.07963   0.08685   0.09977
 Alpha virt. eigenvalues --    0.10702   0.11964   0.12741   0.14790   0.15172
 Alpha virt. eigenvalues --    0.15896   0.15994   0.18942   0.19680   0.20635

 Mulliken charges:
               1
     1  C   -0.218605
     2  C    0.010308
     3  H    0.002040
     4  H    0.126500
     5  H    0.036524
     6  C   -0.048955
     7  H    0.043455
     8  H    0.038518
     9  C   -0.214090
    10  H    0.004361
    11  H    0.063088
    12  H    0.072931
    13  H    0.042835
    14  H    0.041089
 Sum of Mulliken charges =   0.00000

 Dipole moment (field-independent basis, Debye):
    X=              0.1203    Y=             -0.0144    Z=              0.0880  Tot=              0.1497
 Quadrupole moment (field-independent basis, Debye-Ang):
   XX=            -32.5644   YY=            -28.9282   ZZ=            -28.0327
   XY=              0.3856   XZ=              0.6226   YZ=             -0.1353

 Normal termination of Gaussian 09 at Wed Aug 26 11:16:14 2020.
