 Gaussian 09, Revision D.01,
 Gaussian 09:  ES64L-G09RevD.01 24-Apr-2013

 --------------------
 #p B2PLYPD3/Def2QZVP
 --------------------

 ----------
 butane_opt
 ----------
 Symbolic Z-matrix:
 Charge =  0 Multiplicity = 1

                         Standard orientation:
 ---------------------------------------------------------------------
 Center     Atomic      Atomic             Coordinates (Angstroms)
 Number     Number       Type             X           Y           Z
 ---------------------------------------------------------------------
      1          6           0        2.003470    0.166375    0.144437
      2          6           0        0.555369   -0.681711   -0.077411
      3          1           0        2.548699   -0.522627   -0.484683
      4          1           0        2.855241    1.464756    1.289056
      5          1           0        1.979796    0.351530   -0.580488
      6          6           0       -0.655078    0.469888   -0.227047
      7          1           0        0.175313   -1.061927    0.768285
      8          1           0        0.578786   -1.488615   -0.995478
      9          6           0       -1.957891   -0.046198    0.172796
     10          1           0       -0.505292    1.242719   -1.380927
     11          1           0       -0.597894    1.070146    0.416988
     12          1           0       -1.934123   -0.422668   -0.452864
     13          1           0       -2.819299    0.736570   -0.125994
     14          1           0       -1.956449   -0.820006    1.469455
 ---------------------------------------------------------------------

 SCF Done:  E(RB2PLYPD3) =  -157.332933166     A.U. after   13 cycles
 E2(B2PLYPD3) =    -0.2628883262D+00 E(B2PLYPD3) =    -0.15759582149222D+03

 The electronic state is 1-A.
 Alpha  occ. eigenvalues --  -10.64706 -10.62438 -10.61258 -10.60201  -0.94812
 Alpha  occ. eigenvalues --   -0.90534  -0.76849  -0.69692  -0.52433  -0.49238
 Alpha  occ. eigenvalues --   -0.46138  -0.43713  -0.40816  -0.38066  -0.37645
 Alpha  occ. eigenvalues --   -0.36368  -0.33396
 Alpha virt. eigenvalues --   -0.04621   0.03587   0.05179   0.07303   0.09282
 Alpha virt. eigenvalues --    0.10890   0.11854   0.12713   0.13909   0.15386
 Alpha virt. eigenvalues --    0.15743   0.16783   0.17336   0.18021   0.18919

 Mulliken charges:
               1
     1  C   -0.593132
     2  C   -0.093286
     3  H    0.041302
     4  H    0.073322
     5  H    0.455920
     6  C   -0.142735
     7  H    0.086886
     8  H    0.038805
     9  C   -0.598872
    10  H   -0.007075
    11  H    0.168570
    12  H    0.463684
    13  H    0.066030
    14  H    0.040581
 Sum of Mulliken charges =   0.00000

 Dipole moment (field-independent basis, Debye):
    X=              0.0346    Y=              0.0070    Z=             -0.6311  Tot=              0.6321
 Quadrupole moment (field-independent basis, Debye-Ang):
   XX=            -31.1370   YY=            -29.0163   ZZ=            -28.0210
   XY=              0.9142   XZ=             -0.8299   YZ=              1.3356

 Normal termination of Gaussian 09 at Wed Aug 26 16:19:41 2020.
