 Gaussian 09, Revision D.01,
 Gaussian 09:  ES64L-G09RevD.01 24-Apr-2013

 --------------------
 #p B2PLYPD3/Def2QZVP
 --------------------

 ----------
 butane_opt
 ----------
 Symbolic Z-matrix:
 Charge =  0 Multiplicity = 1

                         Standard orientation:
 ---------------------------------------------------------------------
 Center     Atomic      Atomic             Coordinates (Angstroms)
 Number     Number       Type             X           Y           Z
 ---------------------------------------------------------------------
      1          6           0        1.976785    0.206238    0.046765
      2          6           0        0.499369   -0.665539   -0.037723
      3          1           0        2.769152   -0.573855   -0.492216
      4          1           0        2.482320    1.276074    1.156329
      5          1           0        2.068947    0.346546   -0.479998
      6          6           0       -0.606362    0.462463   -0.051769
      7          1           0        0.644905   -1.137338    0.669949
      8          1           0        0.255967   -1.186953   -0.871055
      9          6           0       -1.895247   -0.061778    0.112515
     10          1           0       -0.657421    1.455165   -1.231609
     11          1           0       -0.638346    0.818921    0.427272
     12          1           0       -2.185003   -0.662307   -0.708270
     13          1           0       -2.668108    0.892967    0.034583
     14          1           0       -1.919686   -0.877520    1.076283
 ---------------------------------------------------------------------

 SCF Done:  E(RB2PLYPD3) =  -156.687483316     A.U. after   12 cycles
 E2(B2PLYPD3) =    -0.2561089752D+00 E(B2PLYPD3) =    -0.15694359229084D+03

 The electronic state is 1-A.
 Alpha  occ. eigenvalues --  -10.63969 -10.62171 -10.60604 -10.60422  -0.96777
 Alpha  occ. eigenvalues --   -0.90634  -0.79682  -0.72683  -0.57792  -0.49558
 Alpha  occ. eigenvalues --   -0.48648  -0.46229  -0.42291  -0.40999  -0.38457
 Alpha  occ. eigenvalues --   -0.34965  -0.34679
 Alpha virt. eigenvalues --    0.01609   0.04053   0.05964   0.07093   0.10329
 Alpha virt. eigenvalues --    0.10343   0.11787   0.12519   0.13926   0.15134
 Alpha virt. eigenvalues --    0.15574   0.16194   0.17934   0.18706   0.20899

 Mulliken charges:
               1
     1  C   -0.928594
     2  C   -0.071888
     3  H    0.021668
     4  H    0.073421
     5  H    0.740954
     6  C   -0.736993
     7  H    0.141901
     8  H    0.084266
     9  C   -0.108241
    10  H   -0.021195
    11  H    0.678686
    12  H    0.049836
    13  H    0.041141
    14  H    0.035037
 Sum of Mulliken charges =   0.00000

 Dipole moment (field-independent basis, Debye):
    X=             -0.1951    Y=             -0.3027    Z=             -0.0840  Tot=              0.3698
 Quadrupole moment (field-independent basis, Debye-Ang):
   XX=            -31.0230   YY=            -28.2818   ZZ=            -28.0818
   XY=              0.6942   XZ=             -0.1616   YZ=              1.1195

 Normal termination of Gaussian 09 at Wed Aug 26 14:00:40 2020.
