 Gaussian 09, Revision D.01,
 Gaussian 09:  ES64L-G09RevD.01 24-Apr-2013

 --------------------
 #p B2PLYPD3/Def2QZVP
 --------------------

 ----------
 butane_opt
 ----------
 Symbolic Z-matrix:
 Charge =  0 Multiplicity = 1

                         Standard orientation:
 ---------------------------------------------------------------------
 Center     Atomic      Atomic             Coordinates (Angstroms)
 Number     Number       Type             X           Y           Z
 ---------------------------------------------------------------------
      1          6           0        1.988511    0.126695   -0.083187
      2          6           0        0.542171   -0.512219    0.132064
      3          1           0        2.626714   -0.539980   -0.361271
      4          1           0        2.315807    0.747036    0.754388
      5          1           0        1.807741    0.675963   -0.918783
      6          6           0       -0.558989    0.475196    0.036146
      7          1           0        0.410116   -1.348408    1.147337
      8          1           0        0.396733   -0.967952   -0.630800
      9          6           0       -1.954648   -0.127832   -0.102584
     10          1           0       -0.504200    1.078710   -0.722847
     11          1           0       -0.404585    1.304606    0.969808
     12          1           0       -1.967147   -0.906840   -1.011427
     13          1           0       -2.843469    0.773689    0.147134
     14          1           0       -1.939980   -0.587869    0.731826
 ---------------------------------------------------------------------

 SCF Done:  E(RB2PLYPD3) =  -157.964778484     A.U. after   11 cycles
 E2(B2PLYPD3) =    -0.2484272066D+00 E(B2PLYPD3) =    -0.15821320569082D+03

 The electronic state is 1-A.
 Alpha  occ. eigenvalues --  -10.61349 -10.60690 -10.60307 -10.58351  -0.92907
 Alpha  occ. eigenvalues --   -0.84258  -0.74546  -0.67551  -0.54869  -0.50197
 Alpha  occ. eigenvalues --   -0.48671  -0.47561  -0.43745  -0.40887  -0.39037
 Alpha  occ. eigenvalues --   -0.37345  -0.35959
 Alpha virt. eigenvalues --    0.05372   0.06722   0.07878   0.08169   0.10683
 Alpha virt. eigenvalues --    0.11909   0.12615   0.14184   0.14720   0.15023
 Alpha virt. eigenvalues --    0.15527   0.16203   0.18901   0.19887   0.21675

 Mulliken charges:
               1
     1  C   -0.144269
     2  C   -0.138085
     3  H    0.056995
     4  H    0.052487
     5  H    0.054387
     6  C   -0.038005
     7  H    0.002741
     8  H    0.121552
     9  C   -0.188879
    10  H    0.059797
    11  H   -0.014011
    12  H    0.044484
    13  H    0.036185
    14  H    0.094621
 Sum of Mulliken charges =   0.00000

 Dipole moment (field-independent basis, Debye):
    X=              0.3093    Y=             -0.0906    Z=             -0.4471  Tot=              0.5511
 Quadrupole moment (field-independent basis, Debye-Ang):
   XX=            -29.9825   YY=            -29.1358   ZZ=            -28.2230
   XY=             -0.2722   XZ=             -0.5582   YZ=              0.5317

 Normal termination of Gaussian 09 at Wed Aug 26 10:54:12 2020.
