 Gaussian 09, Revision D.01,
 Gaussian 09:  ES64L-G09RevD.01 24-Apr-2013

 --------------------
 #p B2PLYPD3/Def2QZVP
 --------------------

 ----------
 butane_opt
 ----------
 Symbolic Z-matrix:
 Charge =  0 Multiplicity = 1

                         Standard orientation:
 ---------------------------------------------------------------------
 Center     Atomic      Atomic             Coordinates (Angstroms)
 Number     Number       Type             X           Y           Z
 ---------------------------------------------------------------------
      1          6           0        1.949402   -0.083727   -0.099303
      2          6           0        0.597108    0.428385    0.132728
      3          1           0        2.911477    0.908136    0.069090
      4          1           0        1.906657   -0.869800   -1.167098
      5          1           0        2.176074   -0.296076    0.424399
      6          6           0       -0.512538   -0.620353   -0.072173
      7          1           0        0.495734    0.951006   -0.489804
      8          1           0        0.493242    1.265034    1.375305
      9          6           0       -2.019083    0.173671   -0.014283
     10          1           0       -0.360074   -1.550120    1.031123
     11          1           0       -0.579707   -0.981875   -0.835493
     12          1           0       -1.713695    0.342480    0.563873
     13          1           0       -2.687100   -0.722770    0.551843
     14          1           0       -2.731938    1.566132   -1.205050
 ---------------------------------------------------------------------

 SCF Done:  E(RB2PLYPD3) =  -156.884193603     A.U. after   13 cycles
 E2(B2PLYPD3) =    -0.2629019047D+00 E(B2PLYPD3) =    -0.15714709550755D+03

 The electronic state is 1-A.
 Alpha  occ. eigenvalues --  -10.64409 -10.63788 -10.62154 -10.62012  -0.95948
 Alpha  occ. eigenvalues --   -0.89977  -0.80416  -0.72813  -0.55410  -0.52129
 Alpha  occ. eigenvalues --   -0.47873  -0.43587  -0.42870  -0.38815  -0.36706
 Alpha  occ. eigenvalues --   -0.35193  -0.34428
 Alpha virt. eigenvalues --   -0.04671   0.03348   0.04759   0.05926   0.09071
 Alpha virt. eigenvalues --    0.09802   0.11232   0.11741   0.13310   0.14288
 Alpha virt. eigenvalues --    0.15872   0.16010   0.17451   0.18199   0.20056

 Mulliken charges:
               1
     1  C   -0.739070
     2  C   -0.160762
     3  H    0.023967
     4  H    0.073529
     5  H    0.566866
     6  C   -0.165694
     7  H    0.263894
     8  H   -0.006986
     9  C   -0.754177
    10  H    0.013534
    11  H    0.177447
    12  H    0.589133
    13  H    0.075003
    14  H    0.043314
 Sum of Mulliken charges =   0.00000

 Dipole moment (field-independent basis, Debye):
    X=              0.4462    Y=             -0.3826    Z=             -0.0002  Tot=              0.5878
 Quadrupole moment (field-independent basis, Debye-Ang):
   XX=            -32.5730   YY=            -29.3735   ZZ=            -28.4323
   XY=             -0.6043   XZ=              0.5007   YZ=             -0.6493

 Normal termination of Gaussian 09 at Wed Aug 26 19:38:58 2020.
