 Gaussian 09, Revision D.01,
 Gaussian 09:  ES64L-G09RevD.01 24-Apr-2013

 --------------------
 #p B2PLYPD3/Def2QZVP
 --------------------

 ----------
 butane_opt
 ----------
 Symbolic Z-matrix:
 Charge =  0 Multiplicity = 1

                         Standard orientation:
 ---------------------------------------------------------------------
 Center     Atomic      Atomic             Coordinates (Angstroms)
 Number     Number       Type             X           Y           Z
 ---------------------------------------------------------------------
      1          6           0       -1.953906    0.085990   -0.151147
      2          6           0       -0.590969   -0.462109    0.162125
      3          1           0       -2.932507   -0.912368    0.066767
      4          1           0       -1.641385    0.669728   -1.061156
      5          1           0       -2.067315    0.925960    0.889862
      6          6           0        0.614855    0.568429   -0.111501
      7          1           0       -0.423353   -0.984863   -0.509136
      8          1           0       -0.566139   -1.056892    1.147978
      9          6           0        1.957738   -0.180338   -0.016793
     10          1           0        0.350801    1.366938    0.806912
     11          1           0        0.314367    0.872220   -0.912287
     12          1           0        1.678994   -0.371439    0.712298
     13          1           0        2.601693    0.565849    0.586619
     14          1           0        2.518529   -1.146966   -1.023963
 ---------------------------------------------------------------------

 SCF Done:  E(RB2PLYPD3) =  -157.715852366     A.U. after   11 cycles
 E2(B2PLYPD3) =    -0.2560850496D+00 E(B2PLYPD3) =    -0.15797193741525D+03

 The electronic state is 1-A.
 Alpha  occ. eigenvalues --  -10.65795 -10.61693 -10.61411 -10.58283  -0.94395
 Alpha  occ. eigenvalues --   -0.86437  -0.73337  -0.67510  -0.55249  -0.49449
 Alpha  occ. eigenvalues --   -0.46550  -0.45035  -0.42202  -0.39775  -0.39085
 Alpha  occ. eigenvalues --   -0.37709  -0.33030
 Alpha virt. eigenvalues --    0.03608   0.03955   0.06648   0.08234   0.09297
 Alpha virt. eigenvalues --    0.10800   0.12117   0.12459   0.14280   0.14579
 Alpha virt. eigenvalues --    0.15529   0.15926   0.17760   0.19017   0.19577

 Mulliken charges:
               1
     1  C   -0.183449
     2  C   -0.159933
     3  H    0.055913
     4  H    0.069719
     5  H    0.007462
     6  C   -0.104918
     7  H    0.175617
     8  H    0.018567
     9  C   -0.450895
    10  H    0.019317
    11  H    0.100293
    12  H    0.323256
    13  H    0.046209
    14  H    0.082844
 Sum of Mulliken charges =   0.00000

 Dipole moment (field-independent basis, Debye):
    X=              0.2819    Y=             -0.4631    Z=             -0.0265  Tot=              0.5428
 Quadrupole moment (field-independent basis, Debye-Ang):
   XX=            -32.3146   YY=            -29.9393   ZZ=            -27.8225
   XY=              0.4435   XZ=             -0.2141   YZ=              0.7350

 Normal termination of Gaussian 09 at Wed Aug 26 14:29:19 2020.
