 Gaussian 09, Revision D.01,
 Gaussian 09:  ES64L-G09RevD.01 24-Apr-2013

 --------------------
 #p B2PLYPD3/Def2QZVP
 --------------------

 ----------
 butane_opt
 ----------
 Symbolic Z-matrix:
 Charge =  0 Multiplicity = 1

                         Standard orientation:
 ---------------------------------------------------------------------
 Center     Atomic      Atomic             Coordinates (Angstroms)
 Number     Number       Type             X           Y           Z
 ---------------------------------------------------------------------
      1          6           0        1.956413   -0.115638    0.132595
      2          6           0        0.612851    0.602818   -0.188818
      3          1           0        2.505038    0.337372    0.870293
      4          1           0        2.617355   -0.710935   -0.711824
      5          1           0        1.931377   -0.764606    0.873856
      6          6           0       -0.546287   -0.515064   -0.147982
      7          1           0        0.528763    1.622758   -1.199631
      8          1           0        0.242779    0.729379    0.251114
      9          6           0       -2.015330    0.065939    0.141189
     10          1           0       -0.394210   -0.989926    0.654799
     11          1           0       -0.559669   -1.305227   -1.075692
     12          1           0       -2.088682    0.953517    1.317426
     13          1           0       -2.778431   -0.510299   -0.139668
     14          1           0       -2.050198    0.409637   -0.462574
 ---------------------------------------------------------------------

 SCF Done:  E(RB2PLYPD3) =  -157.139264307     A.U. after   11 cycles
 E2(B2PLYPD3) =    -0.2529599918D+00 E(B2PLYPD3) =    -0.15739222429915D+03

 The electronic state is 1-A.
 Alpha  occ. eigenvalues --  -10.61993 -10.61950 -10.60345 -10.58856  -0.96685
 Alpha  occ. eigenvalues --   -0.88499  -0.80903  -0.71280  -0.55131  -0.51001
 Alpha  occ. eigenvalues --   -0.47211  -0.45815  -0.45347  -0.40943  -0.38142
 Alpha  occ. eigenvalues --   -0.37134  -0.34169
 Alpha virt. eigenvalues --    0.04843   0.05907   0.06647   0.07875   0.10667
 Alpha virt. eigenvalues --    0.11221   0.12239   0.13774   0.14540   0.15321
 Alpha virt. eigenvalues --    0.15679   0.16658   0.18370   0.18548   0.21556

 Mulliken charges:
               1
     1  C   -0.108430
     2  C   -0.844152
     3  H    0.041601
     4  H    0.052728
     5  H    0.053170
     6  C   -0.036341
     7  H    0.036705
     8  H    0.744934
     9  C   -0.639911
    10  H    0.103724
    11  H    0.012160
    12  H    0.036722
    13  H    0.063626
    14  H    0.483465
 Sum of Mulliken charges =   0.00000

 Dipole moment (field-independent basis, Debye):
    X=             -0.0738    Y=             -0.4014    Z=              0.3323  Tot=              0.5264
 Quadrupole moment (field-independent basis, Debye-Ang):
   XX=            -28.5430   YY=            -29.4428   ZZ=            -27.4095
   XY=             -1.0211   XZ=              2.1687   YZ=              0.2147

 Normal termination of Gaussian 09 at Wed Aug 26 14:22:42 2020.
