 Gaussian 09, Revision D.01,
 Gaussian 09:  ES64L-G09RevD.01 24-Apr-2013

 --------------------
 #p B2PLYPD3/Def2QZVP
 --------------------

 ----------
 butane_opt
 ----------
 Symbolic Z-matrix:
 Charge =  0 Multiplicity = 1

                         Standard orientation:
 ---------------------------------------------------------------------
 Center     Atomic      Atomic             Coordinates (Angstroms)
 Number     Number       Type             X           Y           Z
 ---------------------------------------------------------------------
      1          6           0        1.914162    0.071192   -0.117513
      2          6           0        0.516637   -0.442665    0.269038
      3          1           0        2.720576   -0.622074   -0.375143
      4          1           0        2.463580    0.419158    0.375651
      5          1           0        1.617592    0.740944   -1.180664
      6          6           0       -0.526722    0.578750    0.199766
      7          1           0        0.303544   -1.047744    1.224329
      8          1           0        0.306298   -1.117007   -0.513728
      9          6           0       -1.838880   -0.159722   -0.212415
     10          1           0       -0.134049    0.841729   -0.621564
     11          1           0       -0.690445    1.455975    1.122442
     12          1           0       -1.675792   -0.800213   -0.932332
     13          1           0       -2.570627    0.579373   -0.568022
     14          1           0       -2.731856   -0.735468    0.635776
 ---------------------------------------------------------------------

 SCF Done:  E(RB2PLYPD3) =  -157.887431620     A.U. after   11 cycles
 E2(B2PLYPD3) =    -0.2505394699D+00 E(B2PLYPD3) =    -0.15813797109030D+03

 The electronic state is 1-A.
 Alpha  occ. eigenvalues --  -10.61411 -10.61042 -10.60973 -10.59515  -0.94411
 Alpha  occ. eigenvalues --   -0.84607  -0.76181  -0.67342  -0.56742  -0.51854
 Alpha  occ. eigenvalues --   -0.49174  -0.44545  -0.42685  -0.40138  -0.38841
 Alpha  occ. eigenvalues --   -0.38282  -0.34999
 Alpha virt. eigenvalues --    0.05500   0.06213   0.07726   0.08590   0.09954
 Alpha virt. eigenvalues --    0.11441   0.12526   0.13997   0.14877   0.15208
 Alpha virt. eigenvalues --    0.16283   0.16910   0.18501   0.19768   0.21360

 Mulliken charges:
               1
     1  C   -0.257234
     2  C   -0.044970
     3  H    0.027203
     4  H    0.156639
     5  H    0.014408
     6  C   -0.118227
     7  H    0.027443
     8  H    0.070377
     9  C   -0.150341
    10  H    0.120587
    11  H    0.037344
    12  H    0.072147
    13  H    0.035382
    14  H    0.009241
 Sum of Mulliken charges =   0.00000

 Dipole moment (field-independent basis, Debye):
    X=              0.4097    Y=              0.0179    Z=             -0.2567  Tot=              0.4838
 Quadrupole moment (field-independent basis, Debye-Ang):
   XX=            -28.3764   YY=            -29.8933   ZZ=            -28.8371
   XY=             -0.3566   XZ=              0.6559   YZ=              0.7212

 Normal termination of Gaussian 09 at Wed Aug 26 13:20:58 2020.
