 Gaussian 09, Revision D.01,
 Gaussian 09:  ES64L-G09RevD.01 24-Apr-2013

 --------------------
 #p B2PLYPD3/Def2QZVP
 --------------------

 ----------
 butane_opt
 ----------
 Symbolic Z-matrix:
 Charge =  0 Multiplicity = 1

                         Standard orientation:
 ---------------------------------------------------------------------
 Center     Atomic      Atomic             Coordinates (Angstroms)
 Number     Number       Type             X           Y           Z
 ---------------------------------------------------------------------
      1          6           0       -1.977839   -0.229088   -0.109473
      2          6           0       -0.491828    0.555040    0.060478
      3          1           0       -2.790065    0.717163   -0.247544
      4          1           0       -2.349495   -0.417954    0.561466
      5          1           0       -2.062521   -1.112938   -0.921061
      6          6           0        0.607438   -0.353055    0.246616
      7          1           0       -0.325967    1.451452    0.792932
      8          1           0       -0.266124    0.908423   -0.672183
      9          6           0        1.880624    0.000268   -0.153986
     10          1           0        0.568866   -0.557931   -0.299057
     11          1           0        0.349734   -1.247011    1.459525
     12          1           0        1.806050    0.362380   -1.144559
     13          1           0        2.701338   -0.877565   -0.491280
     14          1           0        2.257814    0.934994    0.699949
 ---------------------------------------------------------------------

 SCF Done:  E(RB2PLYPD3) =  -157.223560180     A.U. after   12 cycles
 E2(B2PLYPD3) =    -0.2528556016D+00 E(B2PLYPD3) =    -0.15747641578164D+03

 The electronic state is 1-A.
 Alpha  occ. eigenvalues --  -10.64011 -10.61224 -10.60097 -10.59284  -1.02758
 Alpha  occ. eigenvalues --   -0.85775  -0.78231  -0.70017  -0.57188  -0.51052
 Alpha  occ. eigenvalues --   -0.49764  -0.47944  -0.42804  -0.42347  -0.38269
 Alpha  occ. eigenvalues --   -0.36297  -0.33554
 Alpha virt. eigenvalues --    0.04513   0.05685   0.06132   0.08486   0.10131
 Alpha virt. eigenvalues --    0.11279   0.11584   0.13357   0.14093   0.15291
 Alpha virt. eigenvalues --    0.15584   0.16154   0.18261   0.19268   0.20695

 Mulliken charges:
               1
     1  C   -0.350489
     2  C   -0.111871
     3  H    0.016338
     4  H    0.242324
     5  H    0.061878
     6  C   -0.917656
     7  H    0.022961
     8  H    0.194497
     9  C   -0.108701
    10  H    0.834226
    11  H   -0.006060
    12  H    0.044950
    13  H    0.060934
    14  H    0.016669
 Sum of Mulliken charges =   0.00000

 Dipole moment (field-independent basis, Debye):
    X=             -0.1890    Y=             -0.1355    Z=             -0.8792  Tot=              0.9094
 Quadrupole moment (field-independent basis, Debye-Ang):
   XX=            -29.7430   YY=            -29.4404   ZZ=            -28.3645
   XY=             -0.0225   XZ=             -2.2040   YZ=              1.0278

 Normal termination of Gaussian 09 at Wed Aug 26 10:22:17 2020.
