 Gaussian 09, Revision D.01,
 Gaussian 09:  ES64L-G09RevD.01 24-Apr-2013

 --------------------
 #p B2PLYPD3/Def2QZVP
 --------------------

 ----------
 butane_opt
 ----------
 Symbolic Z-matrix:
 Charge =  0 Multiplicity = 1

                         Standard orientation:
 ---------------------------------------------------------------------
 Center     Atomic      Atomic             Coordinates (Angstroms)
 Number     Number       Type             X           Y           Z
 ---------------------------------------------------------------------
      1          6           0       -1.936040   -0.106921    0.100575
      2          6           0       -0.632808    0.493437   -0.113962
      3          1           0       -2.785378    0.726679   -0.108738
      4          1           0       -2.005745   -0.736777    0.980767
      5          1           0       -2.107380   -0.688812   -0.632291
      6          6           0        0.549300   -0.557262    0.035854
      7          1           0       -0.470053    1.011623    0.552437
      8          1           0       -0.522570    1.162836   -1.180979
      9          6           0        2.001316    0.160869    0.044086
     10          1           0        0.536752   -1.346366   -0.825464
     11          1           0        0.286999   -0.989230    0.794555
     12          1           0        1.886861    0.432468   -0.684766
     13          1           0        2.841892   -0.728450   -0.397968
     14          1           0        2.448009    1.215290    1.103134
 ---------------------------------------------------------------------

 SCF Done:  E(RB2PLYPD3) =  -157.771749116     A.U. after   11 cycles
 E2(B2PLYPD3) =    -0.2505356335D+00 E(B2PLYPD3) =    -0.15802228474924D+03

 The electronic state is 1-A.
 Alpha  occ. eigenvalues --  -10.63063 -10.60822 -10.59356 -10.59131  -0.93210
 Alpha  occ. eigenvalues --   -0.85624  -0.75500  -0.70096  -0.54545  -0.49103
 Alpha  occ. eigenvalues --   -0.47430  -0.46982  -0.43278  -0.41053  -0.39499
 Alpha  occ. eigenvalues --   -0.37599  -0.35344
 Alpha virt. eigenvalues --    0.03373   0.05584   0.07388   0.08004   0.10735
 Alpha virt. eigenvalues --    0.11023   0.12320   0.12802   0.14798   0.15388
 Alpha virt. eigenvalues --    0.15625   0.15994   0.18768   0.19051   0.20450

 Mulliken charges:
               1
     1  C   -0.150172
     2  C   -0.155163
     3  H    0.033065
     4  H    0.043812
     5  H    0.066784
     6  C   -0.068356
     7  H    0.165644
     8  H    0.000201
     9  C   -0.465949
    10  H    0.015763
    11  H    0.092601
    12  H    0.345315
    13  H    0.030000
    14  H    0.046455
 Sum of Mulliken charges =   0.00000

 Dipole moment (field-independent basis, Debye):
    X=             -0.4415    Y=             -0.1637    Z=             -0.2050  Tot=              0.5136
 Quadrupole moment (field-independent basis, Debye-Ang):
   XX=            -31.2859   YY=            -28.7276   ZZ=            -28.1076
   XY=              0.5111   XZ=             -0.5444   YZ=              0.5761

 Normal termination of Gaussian 09 at Wed Aug 26 12:56:43 2020.
