 Gaussian 09, Revision D.01,
 Gaussian 09:  ES64L-G09RevD.01 24-Apr-2013

 --------------------
 #p B2PLYPD3/Def2QZVP
 --------------------

 ----------
 butane_opt
 ----------
 Symbolic Z-matrix:
 Charge =  0 Multiplicity = 1

                         Standard orientation:
 ---------------------------------------------------------------------
 Center     Atomic      Atomic             Coordinates (Angstroms)
 Number     Number       Type             X           Y           Z
 ---------------------------------------------------------------------
      1          6           0        1.974858   -0.172400   -0.048559
      2          6           0        0.504655    0.517990    0.153825
      3          1           0        2.836901    0.925847   -0.575534
      4          1           0        1.582917   -0.756569   -0.828759
      5          1           0        2.432256   -0.928854    0.895213
      6          6           0       -0.597941   -0.454909    0.008773
      7          1           0        0.223807    1.350289   -0.709664
      8          1           0        0.408359    1.111256    0.995239
      9          6           0       -1.865421    0.098901   -0.003911
     10          1           0       -0.362490   -1.209409    0.796499
     11          1           0       -0.335866   -1.089577   -0.983809
     12          1           0       -2.113059    0.629895    0.833676
     13          1           0       -2.765547   -0.800622   -0.216769
     14          1           0       -2.004188    0.830253   -0.866859
 ---------------------------------------------------------------------

 SCF Done:  E(RB2PLYPD3) =  -157.973784452     A.U. after   11 cycles
 E2(B2PLYPD3) =    -0.2533065677D+00 E(B2PLYPD3) =    -0.15822709101941D+03

 The electronic state is 1-A.
 Alpha  occ. eigenvalues --  -10.66102 -10.62087 -10.61351 -10.61213  -0.93568
 Alpha  occ. eigenvalues --   -0.82469  -0.71061  -0.66430  -0.54566  -0.50651
 Alpha  occ. eigenvalues --   -0.48376  -0.45837  -0.41318  -0.39429  -0.38885
 Alpha  occ. eigenvalues --   -0.37036  -0.34558
 Alpha virt. eigenvalues --    0.03991   0.05509   0.07107   0.08155   0.09555
 Alpha virt. eigenvalues --    0.10497   0.12137   0.13215   0.15015   0.15130
 Alpha virt. eigenvalues --    0.15320   0.15580   0.18576   0.19879   0.20182

 Mulliken charges:
               1
     1  C   -0.212794
     2  C   -0.017229
     3  H    0.032675
     4  H    0.087864
     5  H    0.055008
     6  C   -0.008780
     7  H   -0.003567
     8  H    0.048919
     9  C   -0.156244
    10  H    0.035974
    11  H    0.008242
    12  H    0.064806
    13  H    0.026057
    14  H    0.039069
 Sum of Mulliken charges =   0.00000

 Dipole moment (field-independent basis, Debye):
    X=             -0.4241    Y=             -0.0225    Z=              0.2856  Tot=              0.5118
 Quadrupole moment (field-independent basis, Debye-Ang):
   XX=            -32.0446   YY=            -29.2630   ZZ=            -29.1346
   XY=             -0.7633   XZ=              0.4351   YZ=             -0.2803

 Normal termination of Gaussian 09 at Wed Aug 26 10:55:30 2020.
