 Gaussian 09, Revision D.01,
 Gaussian 09:  ES64L-G09RevD.01 24-Apr-2013

 --------------------
 #p B2PLYPD3/Def2QZVP
 --------------------

 ----------
 butane_opt
 ----------
 Symbolic Z-matrix:
 Charge =  0 Multiplicity = 1

                         Standard orientation:
 ---------------------------------------------------------------------
 Center     Atomic      Atomic             Coordinates (Angstroms)
 Number     Number       Type             X           Y           Z
 ---------------------------------------------------------------------
      1          6           0       -1.981338    0.130971    0.051585
      2          6           0       -0.558302   -0.512768   -0.011857
      3          1           0       -2.848277   -0.697561   -0.204559
      4          1           0       -1.955566    0.497946   -0.719395
      5          1           0       -2.177184    1.158262    1.127422
      6          6           0        0.602339    0.487997   -0.096688
      7          1           0       -0.708693   -1.285152   -0.949879
      8          1           0       -0.382652   -1.030608    0.843236
      9          6           0        1.953020   -0.130905    0.092861
     10          1           0        0.427013    1.060105    0.630927
     11          1           0        0.567120    1.251512   -1.127943
     12          1           0        2.155048   -0.764674    1.014191
     13          1           0        2.698401    0.681897   -0.174158
     14          1           0        2.130483   -0.723498   -0.655247
 ---------------------------------------------------------------------

 SCF Done:  E(RB2PLYPD3) =  -157.923298786     A.U. after   11 cycles
 E2(B2PLYPD3) =    -0.2496803298D+00 E(B2PLYPD3) =    -0.15817297911578D+03

 The electronic state is 1-A.
 Alpha  occ. eigenvalues --  -10.62259 -10.61799 -10.61004 -10.59472  -0.92219
 Alpha  occ. eigenvalues --   -0.84802  -0.74417  -0.67449  -0.53478  -0.49742
 Alpha  occ. eigenvalues --   -0.47827  -0.46776  -0.43516  -0.40657  -0.38600
 Alpha  occ. eigenvalues --   -0.37469  -0.36159
 Alpha virt. eigenvalues --    0.04592   0.06021   0.07369   0.07644   0.10665
 Alpha virt. eigenvalues --    0.11608   0.12325   0.12863   0.14451   0.14875
 Alpha virt. eigenvalues --    0.15598   0.15965   0.18964   0.19387   0.21102

 Mulliken charges:
               1
     1  C   -0.294587
     2  C   -0.030546
     3  H    0.041748
     4  H    0.197038
     5  H    0.011850
     6  C   -0.068358
     7  H    0.007529
     8  H    0.059262
     9  C   -0.143871
    10  H    0.090373
    11  H   -0.007088
    12  H    0.039846
    13  H    0.035619
    14  H    0.061185
 Sum of Mulliken charges =   0.00000

 Dipole moment (field-independent basis, Debye):
    X=              0.3598    Y=             -0.2122    Z=             -0.2911  Tot=              0.5092
 Quadrupole moment (field-independent basis, Debye-Ang):
   XX=            -30.6783   YY=            -29.1657   ZZ=            -28.4608
   XY=              0.4192   XZ=              0.9562   YZ=              0.0922

 Normal termination of Gaussian 09 at Wed Aug 26 18:45:37 2020.
