 Gaussian 09, Revision D.01,
 Gaussian 09:  ES64L-G09RevD.01 24-Apr-2013

 --------------------
 #p B2PLYPD3/Def2QZVP
 --------------------

 ----------
 butane_opt
 ----------
 Symbolic Z-matrix:
 Charge =  0 Multiplicity = 1

                         Standard orientation:
 ---------------------------------------------------------------------
 Center     Atomic      Atomic             Coordinates (Angstroms)
 Number     Number       Type             X           Y           Z
 ---------------------------------------------------------------------
      1          6           0       -1.984457   -0.161083    0.016983
      2          6           0       -0.506977    0.555751   -0.059482
      3          1           0       -2.739406    0.545221   -0.087405
      4          1           0       -1.977122   -0.796150    1.032433
      5          1           0       -2.075585   -0.766917   -0.780106
      6          6           0        0.568223   -0.445762    0.056080
      7          1           0       -0.464291    1.252953    0.756480
      8          1           0       -0.352834    1.164851   -1.001219
      9          6           0        1.922033    0.091093    0.007258
     10          1           0        0.378832   -1.173807   -0.797352
     11          1           0        0.538469   -0.979623    0.873037
     12          1           0        1.818912    0.421167   -0.733486
     13          1           0        2.735598   -0.726822   -0.373234
     14          1           0        2.144504    0.819133    0.985823
 ---------------------------------------------------------------------

 SCF Done:  E(RB2PLYPD3) =  -157.969618685     A.U. after   11 cycles
 E2(B2PLYPD3) =    -0.2474185941D+00 E(B2PLYPD3) =    -0.15821703727944D+03

 The electronic state is 1-A.
 Alpha  occ. eigenvalues --  -10.60967 -10.60229 -10.58598 -10.58426  -0.93676
 Alpha  occ. eigenvalues --   -0.83941  -0.74337  -0.67573  -0.55873  -0.49448
 Alpha  occ. eigenvalues --   -0.48888  -0.47675  -0.42922  -0.41792  -0.38678
 Alpha  occ. eigenvalues --   -0.37284  -0.36990
 Alpha virt. eigenvalues --    0.05599   0.06777   0.08087   0.08511   0.10813
 Alpha virt. eigenvalues --    0.12009   0.12812   0.13390   0.14966   0.15240
 Alpha virt. eigenvalues --    0.15979   0.16440   0.19283   0.19995   0.21678

 Mulliken charges:
               1
     1  C   -0.160383
     2  C   -0.049064
     3  H    0.053173
     4  H    0.044521
     5  H    0.057849
     6  C   -0.021725
     7  H    0.030965
     8  H    0.021282
     9  C   -0.352472
    10  H    0.008459
    11  H    0.051831
    12  H    0.226150
    13  H    0.034221
    14  H    0.055193
 Sum of Mulliken charges =   0.00000

 Dipole moment (field-independent basis, Debye):
    X=             -0.2282    Y=              0.0611    Z=             -0.2090  Tot=              0.3154
 Quadrupole moment (field-independent basis, Debye-Ang):
   XX=            -30.3597   YY=            -29.1174   ZZ=            -27.5608
   XY=             -0.4110   XZ=              0.1208   YZ=              0.3670

 Normal termination of Gaussian 09 at Wed Aug 26 18:41:31 2020.
