 Gaussian 09, Revision D.01,
 Gaussian 09:  ES64L-G09RevD.01 24-Apr-2013

 --------------------
 #p B2PLYPD3/Def2QZVP
 --------------------

 ----------
 butane_opt
 ----------
 Symbolic Z-matrix:
 Charge =  0 Multiplicity = 1

                         Standard orientation:
 ---------------------------------------------------------------------
 Center     Atomic      Atomic             Coordinates (Angstroms)
 Number     Number       Type             X           Y           Z
 ---------------------------------------------------------------------
      1          6           0       -1.984081   -0.158439   -0.153281
      2          6           0       -0.525540    0.624780    0.183448
      3          1           0       -2.652837    0.416483   -0.238711
      4          1           0       -2.638625   -0.400740    0.455280
      5          1           0       -1.889265   -1.081994   -1.152666
      6          6           0        0.628356   -0.556250    0.278368
      7          1           0       -0.787510    1.157445    0.876198
      8          1           0       -0.314248    1.219428   -0.685386
      9          6           0        1.976959    0.096817   -0.196583
     10          1           0        0.387522   -0.921466   -0.234121
     11          1           0        0.567468   -1.338938    1.458687
     12          1           0        1.434594    0.650483   -1.157958
     13          1           0        2.762538   -0.701431   -0.933379
     14          1           0        2.556204    0.959275    0.940346
 ---------------------------------------------------------------------

 SCF Done:  E(RB2PLYPD3) =  -157.501916041     A.U. after   11 cycles
 E2(B2PLYPD3) =    -0.2557673990D+00 E(B2PLYPD3) =    -0.15775768343971D+03

 The electronic state is 1-A.
 Alpha  occ. eigenvalues --  -10.68474 -10.61780 -10.61480 -10.59099  -0.92638
 Alpha  occ. eigenvalues --   -0.86926  -0.76209  -0.70256  -0.53468  -0.49499
 Alpha  occ. eigenvalues --   -0.47880  -0.44305  -0.40151  -0.39625  -0.38138
 Alpha  occ. eigenvalues --   -0.37031  -0.34730
 Alpha virt. eigenvalues --    0.02462   0.05696   0.06584   0.08457   0.09365
 Alpha virt. eigenvalues --    0.09925   0.11005   0.13633   0.13758   0.15097
 Alpha virt. eigenvalues --    0.15430   0.17393   0.18431   0.18505   0.20618

 Mulliken charges:
               1
     1  C   -0.243518
     2  C   -0.060210
     3  H    0.100947
     4  H    0.063014
     5  H    0.012989
     6  C   -0.634247
     7  H    0.088524
     8  H    0.054480
     9  C   -0.158663
    10  H    0.604632
    11  H    0.026763
    12  H    0.047091
    13  H    0.045562
    14  H    0.052636
 Sum of Mulliken charges =   0.00000

 Dipole moment (field-independent basis, Debye):
    X=             -0.7780    Y=              0.4423    Z=             -0.0853  Tot=              0.8990
 Quadrupole moment (field-independent basis, Debye-Ang):
   XX=            -29.4828   YY=            -29.7179   ZZ=            -28.7041
   XY=             -1.3381   XZ=             -1.4020   YZ=              1.3175

 Normal termination of Gaussian 09 at Wed Aug 26 10:42:24 2020.
