 Gaussian 09, Revision D.01,
 Gaussian 09:  ES64L-G09RevD.01 24-Apr-2013

 --------------------
 #p B2PLYPD3/Def2QZVP
 --------------------

 ----------
 butane_opt
 ----------
 Symbolic Z-matrix:
 Charge =  0 Multiplicity = 1

                         Standard orientation:
 ---------------------------------------------------------------------
 Center     Atomic      Atomic             Coordinates (Angstroms)
 Number     Number       Type             X           Y           Z
 ---------------------------------------------------------------------
      1          6           0        1.998005   -0.101245    0.026330
      2          6           0        0.519711    0.639540   -0.010402
      3          1           0        2.620879    0.420424   -0.323023
      4          1           0        2.405119   -0.626474   -0.777115
      5          1           0        2.286987   -1.176833    1.151513
      6          6           0       -0.539132   -0.505329   -0.019137
      7          1           0        0.139023    1.384637   -0.855621
      8          1           0        0.653185    1.085447    0.648812
      9          6           0       -2.009948    0.033777    0.040122
     10          1           0       -0.573633   -1.004408    0.763085
     11          1           0       -0.566924   -1.214169   -0.903855
     12          1           0       -2.256818    0.938893    1.097139
     13          1           0       -2.795088   -0.637715   -0.517699
     14          1           0       -1.724545    0.429736   -0.504719
 ---------------------------------------------------------------------

 SCF Done:  E(RB2PLYPD3) =  -157.556225725     A.U. after   11 cycles
 E2(B2PLYPD3) =    -0.2536088903D+00 E(B2PLYPD3) =    -0.15780983461500D+03

 The electronic state is 1-A.
 Alpha  occ. eigenvalues --  -10.62213 -10.61267 -10.60049 -10.58889  -0.93954
 Alpha  occ. eigenvalues --   -0.87293  -0.78660  -0.71152  -0.56011  -0.49880
 Alpha  occ. eigenvalues --   -0.48762  -0.46570  -0.41818  -0.38883  -0.38556
 Alpha  occ. eigenvalues --   -0.36288  -0.34459
 Alpha virt. eigenvalues --    0.02849   0.05154   0.07423   0.08150   0.09960
 Alpha virt. eigenvalues --    0.10764   0.12324   0.12659   0.14159   0.15549
 Alpha virt. eigenvalues --    0.15722   0.17461   0.17510   0.20257   0.21146

 Mulliken charges:
               1
     1  C   -0.239305
     2  C   -0.263758
     3  H    0.126156
     4  H    0.038809
     5  H    0.036252
     6  C   -0.033585
     7  H    0.035222
     8  H    0.241588
     9  C   -0.627737
    10  H    0.094297
    11  H    0.043115
    12  H    0.031239
    13  H    0.066102
    14  H    0.451605
 Sum of Mulliken charges =   0.00000

 Dipole moment (field-independent basis, Debye):
    X=              0.5520    Y=              0.1156    Z=             -0.7277  Tot=              0.9207
 Quadrupole moment (field-independent basis, Debye-Ang):
   XX=            -30.3410   YY=            -28.5078   ZZ=            -28.3405
   XY=              0.4311   XZ=             -0.3881   YZ=              0.2003

 Normal termination of Gaussian 09 at Wed Aug 26 10:38:22 2020.
