 Gaussian 09, Revision D.01,
 Gaussian 09:  ES64L-G09RevD.01 24-Apr-2013

 --------------------
 #p B2PLYPD3/Def2QZVP
 --------------------

 ----------
 butane_opt
 ----------
 Symbolic Z-matrix:
 Charge =  0 Multiplicity = 1

                         Standard orientation:
 ---------------------------------------------------------------------
 Center     Atomic      Atomic             Coordinates (Angstroms)
 Number     Number       Type             X           Y           Z
 ---------------------------------------------------------------------
      1          6           0        1.891352   -0.163751   -0.028110
      2          6           0        0.482959    0.597991   -0.008380
      3          1           0        2.748723    0.595208   -0.123941
      4          1           0        2.051346   -1.088257   -0.890146
      5          1           0        2.322815   -0.499832    0.684091
      6          6           0       -0.501066   -0.444920    0.217186
      7          1           0        0.241582    1.212807   -1.198222
      8          1           0        0.210177    1.238272    0.746720
      9          6           0       -1.855635    0.016456   -0.130708
     10          1           0       -0.527150   -1.169628    1.374989
     11          1           0       -0.590412   -1.037080   -0.512967
     12          1           0       -2.288440    1.289611    0.969248
     13          1           0       -2.649840   -0.938349   -0.681332
     14          1           0       -1.624466    0.362589   -0.668368
 ---------------------------------------------------------------------

 SCF Done:  E(RB2PLYPD3) =  -157.540754242     A.U. after   12 cycles
 E2(B2PLYPD3) =    -0.2565603210D+00 E(B2PLYPD3) =    -0.15779731456282D+03

 The electronic state is 1-A.
 Alpha  occ. eigenvalues --  -10.64495 -10.63641 -10.61859 -10.61674  -0.98043
 Alpha  occ. eigenvalues --   -0.86144  -0.76698  -0.68946  -0.55421  -0.50854
 Alpha  occ. eigenvalues --   -0.48387  -0.45661  -0.43161  -0.40281  -0.38127
 Alpha  occ. eigenvalues --   -0.37399  -0.32787
 Alpha virt. eigenvalues --    0.00978   0.04869   0.05880   0.07039   0.09471
 Alpha virt. eigenvalues --    0.09949   0.11888   0.12954   0.13678   0.15001
 Alpha virt. eigenvalues --    0.15417   0.16479   0.18060   0.19264   0.19751

 Mulliken charges:
               1
     1  C   -0.160215
     2  C   -0.060542
     3  H    0.017468
     4  H    0.030329
     5  H    0.087992
     6  C   -0.052683
     7  H    0.013899
     8  H    0.087952
     9  C   -0.681676
    10  H    0.024639
    11  H    0.119035
    12  H   -0.057609
    13  H    0.061405
    14  H    0.570005
 Sum of Mulliken charges =   0.00000

 Dipole moment (field-independent basis, Debye):
    X=              0.9168    Y=             -0.6215    Z=             -0.5410  Tot=              1.2327
 Quadrupole moment (field-independent basis, Debye-Ang):
   XX=            -32.2958   YY=            -29.7303   ZZ=            -28.9769
   XY=              1.5038   XZ=              2.6989   YZ=              0.6919

 Normal termination of Gaussian 09 at Wed Aug 26 11:28:03 2020.
