 Gaussian 09, Revision D.01,
 Gaussian 09:  ES64L-G09RevD.01 24-Apr-2013

 --------------------
 #p B2PLYPD3/Def2QZVP
 --------------------

 ----------
 butane_opt
 ----------
 Symbolic Z-matrix:
 Charge =  0 Multiplicity = 1

                         Standard orientation:
 ---------------------------------------------------------------------
 Center     Atomic      Atomic             Coordinates (Angstroms)
 Number     Number       Type             X           Y           Z
 ---------------------------------------------------------------------
      1          6           0        2.069382   -0.243306   -0.111604
      2          6           0        0.504197    0.598007    0.023669
      3          1           0        2.780937    0.537589   -0.030503
      4          1           0        2.214525   -0.992002   -0.926913
      5          1           0        2.006872   -0.517536    0.710836
      6          6           0       -0.615576   -0.405091    0.260099
      7          1           0        0.342416    0.947312   -0.584641
      8          1           0        0.467914    1.657759    0.900777
      9          6           0       -1.956799   -0.010746   -0.199067
     10          1           0       -0.729633   -1.003502    1.318288
     11          1           0       -0.425624   -0.916221   -0.372406
     12          1           0       -2.311905    0.881303    0.533926
     13          1           0       -2.666773   -0.775927   -0.127379
     14          1           0       -1.685955    0.548043   -1.260565
 ---------------------------------------------------------------------

 SCF Done:  E(RB2PLYPD3) =  -157.711537856     A.U. after   11 cycles
 E2(B2PLYPD3) =    -0.2491690077D+00 E(B2PLYPD3) =    -0.15796070686368D+03

 The electronic state is 1-A.
 Alpha  occ. eigenvalues --  -10.61886 -10.60882 -10.59157 -10.58450  -0.94298
 Alpha  occ. eigenvalues --   -0.84096  -0.77505  -0.69644  -0.54499  -0.50996
 Alpha  occ. eigenvalues --   -0.50325  -0.48278  -0.44611  -0.40386  -0.38472
 Alpha  occ. eigenvalues --   -0.36837  -0.35374
 Alpha virt. eigenvalues --    0.05147   0.06768   0.08019   0.08291   0.10957
 Alpha virt. eigenvalues --    0.11728   0.12294   0.14115   0.14250   0.14875
 Alpha virt. eigenvalues --    0.15184   0.16319   0.18837   0.18933   0.20560

 Mulliken charges:
               1
     1  C   -0.269074
     2  C   -0.489245
     3  H    0.059094
     4  H    0.064722
     5  H    0.170800
     6  C   -0.205832
     7  H    0.423065
     8  H    0.001862
     9  C   -0.149470
    10  H    0.018430
    11  H    0.250031
    12  H    0.028359
    13  H    0.070354
    14  H    0.026904
 Sum of Mulliken charges =   0.00000

 Dipole moment (field-independent basis, Debye):
    X=              0.0859    Y=             -0.5396    Z=             -0.3302  Tot=              0.6384
 Quadrupole moment (field-independent basis, Debye-Ang):
   XX=            -29.3669   YY=            -28.7705   ZZ=            -28.4349
   XY=              0.7529   XZ=             -0.6993   YZ=              0.1278

 Normal termination of Gaussian 09 at Wed Aug 26 20:50:52 2020.
