 Gaussian 09, Revision D.01,
 Gaussian 09:  ES64L-G09RevD.01 24-Apr-2013

 --------------------
 #p B2PLYPD3/Def2QZVP
 --------------------

 ----------
 butane_opt
 ----------
 Symbolic Z-matrix:
 Charge =  0 Multiplicity = 1

                         Standard orientation:
 ---------------------------------------------------------------------
 Center     Atomic      Atomic             Coordinates (Angstroms)
 Number     Number       Type             X           Y           Z
 ---------------------------------------------------------------------
      1          6           0       -1.816301    0.047235   -0.132281
      2          6           0       -0.555138   -0.453041    0.314748
      3          1           0       -2.657634   -0.917028   -0.583223
      4          1           0       -1.724613    0.464616   -1.321650
      5          1           0       -2.343770    0.799789    0.651479
      6          6           0        0.435609    0.622901    0.005248
      7          1           0       -0.614990   -0.817152   -0.320961
      8          1           0       -0.404726   -1.100240    1.464125
      9          6           0        1.966884   -0.210510   -0.139595
     10          1           0        0.368570    1.575333    0.910391
     11          1           0        0.303876    0.926446   -0.752938
     12          1           0        1.994200   -0.432481    0.540372
     13          1           0        2.728768    0.565049    0.080105
     14          1           0        2.163998   -1.103852   -0.956417
 ---------------------------------------------------------------------

 SCF Done:  E(RB2PLYPD3) =  -157.488914197     A.U. after   12 cycles
 E2(B2PLYPD3) =    -0.2537135411D+00 E(B2PLYPD3) =    -0.15774262773784D+03

 The electronic state is 1-A.
 Alpha  occ. eigenvalues --  -10.65678 -10.61268 -10.58588 -10.58307  -0.97967
 Alpha  occ. eigenvalues --   -0.86436  -0.76292  -0.67532  -0.57422  -0.48744
 Alpha  occ. eigenvalues --   -0.47964  -0.46471  -0.43921  -0.41413  -0.39663
 Alpha  occ. eigenvalues --   -0.35813  -0.33236
 Alpha virt. eigenvalues --    0.04663   0.05951   0.06747   0.07929   0.10016
 Alpha virt. eigenvalues --    0.10994   0.11739   0.13162   0.14138   0.14945
 Alpha virt. eigenvalues --    0.15946   0.16360   0.18602   0.19237   0.20786

 Mulliken charges:
               1
     1  C   -0.171088
     2  C   -0.530801
     3  H    0.008667
     4  H    0.037985
     5  H    0.057269
     6  C   -0.168856
     7  H    0.512708
     8  H    0.056982
     9  C   -0.595724
    10  H    0.018150
    11  H    0.214659
    12  H    0.431782
    13  H    0.054073
    14  H    0.074193
 Sum of Mulliken charges =   0.00000

 Dipole moment (field-independent basis, Debye):
    X=              0.1083    Y=             -0.2366    Z=             -0.0863  Tot=              0.2742
 Quadrupole moment (field-independent basis, Debye-Ang):
   XX=            -31.6177   YY=            -29.2647   ZZ=            -27.3806
   XY=             -0.5616   XZ=              0.9937   YZ=              0.7136

 Normal termination of Gaussian 09 at Wed Aug 26 10:37:52 2020.
