 Gaussian 09, Revision D.01,
 Gaussian 09:  ES64L-G09RevD.01 24-Apr-2013

 --------------------
 #p B2PLYPD3/Def2QZVP
 --------------------

 ----------
 butane_opt
 ----------
 Symbolic Z-matrix:
 Charge =  0 Multiplicity = 1

                         Standard orientation:
 ---------------------------------------------------------------------
 Center     Atomic      Atomic             Coordinates (Angstroms)
 Number     Number       Type             X           Y           Z
 ---------------------------------------------------------------------
      1          6           0       -2.001128   -0.228760   -0.060874
      2          6           0       -0.601122    0.597985    0.040974
      3          1           0       -2.697934    0.333943   -0.536166
      4          1           0       -2.540917   -0.110674    0.566442
      5          1           0       -2.117845   -1.340390   -0.877085
      6          6           0        0.651841   -0.402110    0.412596
      7          1           0       -0.560295    1.351442    0.718200
      8          1           0       -0.134646    0.995130   -0.961826
      9          6           0        1.964460    0.070390   -0.214717
     10          1           0        0.507423   -0.919009   -0.283949
     11          1           0        0.611005   -0.830109    1.450755
     12          1           0        1.407943    0.337974   -1.091194
     13          1           0        2.991171   -1.054436   -0.616778
     14          1           0        2.449791    1.011100    0.563729
 ---------------------------------------------------------------------

 SCF Done:  E(RB2PLYPD3) =  -157.781810016     A.U. after   11 cycles
 E2(B2PLYPD3) =    -0.2552428125D+00 E(B2PLYPD3) =    -0.15803705282856D+03

 The electronic state is 1-A.
 Alpha  occ. eigenvalues --  -10.66154 -10.63339 -10.60641 -10.59039  -0.92399
 Alpha  occ. eigenvalues --   -0.86432  -0.74375  -0.66343  -0.56278  -0.49937
 Alpha  occ. eigenvalues --   -0.46635  -0.44469  -0.41978  -0.41242  -0.38657
 Alpha  occ. eigenvalues --   -0.37328  -0.33092
 Alpha virt. eigenvalues --    0.03238   0.05294   0.07571   0.08628   0.08946
 Alpha virt. eigenvalues --    0.10794   0.11228   0.13373   0.13644   0.15463
 Alpha virt. eigenvalues --    0.16172   0.16858   0.17548   0.18564   0.20823

 Mulliken charges:
               1
     1  C   -0.246501
     2  C   -0.070902
     3  H    0.046179
     4  H    0.140402
     5  H    0.045761
     6  C   -0.210054
     7  H    0.064439
     8  H    0.029286
     9  C   -0.174445
    10  H    0.206360
    11  H    0.044318
    12  H    0.073791
    13  H    0.012500
    14  H    0.038865
 Sum of Mulliken charges =   0.00000

 Dipole moment (field-independent basis, Debye):
    X=             -1.1912    Y=              0.3823    Z=              0.0739  Tot=              1.2532
 Quadrupole moment (field-independent basis, Debye-Ang):
   XX=            -30.2839   YY=            -29.9054   ZZ=            -28.6981
   XY=             -0.6344   XZ=              0.3191   YZ=              1.4356

 Normal termination of Gaussian 09 at Wed Aug 26 10:29:15 2020.
