 Gaussian 09, Revision D.01,
 Gaussian 09:  ES64L-G09RevD.01 24-Apr-2013

 --------------------
 #p B2PLYPD3/Def2QZVP
 --------------------

 ----------
 butane_opt
 ----------
 Symbolic Z-matrix:
 Charge =  0 Multiplicity = 1

                         Standard orientation:
 ---------------------------------------------------------------------
 Center     Atomic      Atomic             Coordinates (Angstroms)
 Number     Number       Type             X           Y           Z
 ---------------------------------------------------------------------
      1          6           0       -1.986846   -0.124413   -0.068663
      2          6           0       -0.459826    0.552677    0.130820
      3          1           0       -2.561924    0.619797   -0.668818
      4          1           0       -2.653729   -1.083180    0.971546
      5          1           0       -1.535912   -0.428814   -0.725772
      6          6           0        0.518181   -0.533309    0.046973
      7          1           0       -0.379450    1.286641    1.055699
      8          1           0       -0.156547    1.285608   -0.667556
      9          6           0        1.860837    0.093896   -0.032650
     10          1           0        0.261727   -1.196535   -0.847916
     11          1           0        0.846528   -0.925043    0.722494
     12          1           0        1.921104    0.584948   -0.912584
     13          1           0        2.660243   -0.728961   -0.091355
     14          1           0        2.003882    0.652433    0.705384
 ---------------------------------------------------------------------

 SCF Done:  E(RB2PLYPD3) =  -157.815050658     A.U. after   11 cycles
 E2(B2PLYPD3) =    -0.2523219348D+00 E(B2PLYPD3) =    -0.15806737259256D+03

 The electronic state is 1-A.
 Alpha  occ. eigenvalues --  -10.63071 -10.61832 -10.57724 -10.57399  -0.95380
 Alpha  occ. eigenvalues --   -0.85914  -0.73825  -0.69294  -0.57809  -0.51529
 Alpha  occ. eigenvalues --   -0.48171  -0.46211  -0.43285  -0.40119  -0.39161
 Alpha  occ. eigenvalues --   -0.36627  -0.34590
 Alpha virt. eigenvalues --    0.03493   0.05987   0.07780   0.08184   0.10395
 Alpha virt. eigenvalues --    0.11329   0.12461   0.13036   0.14502   0.15908
 Alpha virt. eigenvalues --    0.16819   0.16996   0.18049   0.19753   0.20630

 Mulliken charges:
               1
     1  C   -0.353379
     2  C   -0.044951
     3  H    0.051571
     4  H    0.062742
     5  H    0.218930
     6  C   -0.162777
     7  H    0.017072
     8  H    0.040706
     9  C   -0.156812
    10  H    0.035904
    11  H    0.155515
    12  H    0.036960
    13  H    0.020068
    14  H    0.078451
 Sum of Mulliken charges =   0.00000

 Dipole moment (field-independent basis, Debye):
    X=              0.6268    Y=              0.0462    Z=             -0.2110  Tot=              0.6630
 Quadrupole moment (field-independent basis, Debye-Ang):
   XX=            -30.6946   YY=            -28.8390   ZZ=            -28.0130
   XY=              0.0127   XZ=              0.5746   YZ=             -0.6507

 Normal termination of Gaussian 09 at Wed Aug 26 19:52:05 2020.
