 Gaussian 09, Revision D.01,
 Gaussian 09:  ES64L-G09RevD.01 24-Apr-2013

 --------------------
 #p B2PLYPD3/Def2QZVP
 --------------------

 ----------
 butane_opt
 ----------
 Symbolic Z-matrix:
 Charge =  0 Multiplicity = 1

                         Standard orientation:
 ---------------------------------------------------------------------
 Center     Atomic      Atomic             Coordinates (Angstroms)
 Number     Number       Type             X           Y           Z
 ---------------------------------------------------------------------
      1          6           0       -1.879180    0.110815    0.086182
      2          6           0       -0.573059   -0.499185   -0.040213
      3          1           0       -2.687267   -0.709728   -0.246832
      4          1           0       -1.904722    0.425124   -0.722541
      5          1           0       -2.160412    1.128143    1.238827
      6          6           0        0.517119    0.518921   -0.131675
      7          1           0       -0.639208   -1.200913   -0.992795
      8          1           0       -0.382497   -1.150166    0.872955
      9          6           0        1.917025   -0.141203    0.047440
     10          1           0        0.454232    1.098227    0.660064
     11          1           0        0.392269    1.270392   -1.121543
     12          1           0        2.117408   -0.883417    1.073780
     13          1           0        2.728318    0.676341    0.120809
     14          1           0        2.190445   -0.590091   -0.653130
 ---------------------------------------------------------------------

 SCF Done:  E(RB2PLYPD3) =  -157.882545133     A.U. after   11 cycles
 E2(B2PLYPD3) =    -0.2511775244D+00 E(B2PLYPD3) =    -0.15813372265777D+03

 The electronic state is 1-A.
 Alpha  occ. eigenvalues --  -10.61816 -10.61664 -10.61318 -10.60169  -0.93624
 Alpha  occ. eigenvalues --   -0.85307  -0.74495  -0.66327  -0.54290  -0.49849
 Alpha  occ. eigenvalues --   -0.48009  -0.46817  -0.41706  -0.39968  -0.38738
 Alpha  occ. eigenvalues --   -0.36901  -0.36377
 Alpha virt. eigenvalues --    0.03926   0.05832   0.06493   0.07461   0.10532
 Alpha virt. eigenvalues --    0.11207   0.11994   0.12974   0.14141   0.14915
 Alpha virt. eigenvalues --    0.15855   0.16348   0.19217   0.19225   0.21424

 Mulliken charges:
               1
     1  C   -0.273993
     2  C   -0.019051
     3  H    0.034131
     4  H    0.169294
     5  H    0.027652
     6  C   -0.048839
     7  H    0.021490
     8  H    0.038284
     9  C   -0.193076
    10  H    0.077224
    11  H    0.006614
    12  H    0.022783
    13  H    0.025820
    14  H    0.111665
 Sum of Mulliken charges =   0.00000

 Dipole moment (field-independent basis, Debye):
    X=              0.2451    Y=             -0.0617    Z=             -0.5325  Tot=              0.5894
 Quadrupole moment (field-independent basis, Debye-Ang):
   XX=            -30.9589   YY=            -29.3948   ZZ=            -28.2380
   XY=              0.3192   XZ=              0.9565   YZ=              0.6016

 Normal termination of Gaussian 09 at Wed Aug 26 22:56:44 2020.
