 Gaussian 09, Revision D.01,
 Gaussian 09:  ES64L-G09RevD.01 24-Apr-2013

 --------------------
 #p B2PLYPD3/Def2QZVP
 --------------------

 ----------
 butane_opt
 ----------
 Symbolic Z-matrix:
 Charge =  0 Multiplicity = 1

                         Standard orientation:
 ---------------------------------------------------------------------
 Center     Atomic      Atomic             Coordinates (Angstroms)
 Number     Number       Type             X           Y           Z
 ---------------------------------------------------------------------
      1          6           0       -1.883667    0.047958   -0.135067
      2          6           0       -0.564108   -0.467096    0.288817
      3          1           0       -2.600729   -0.761109   -0.351492
      4          1           0       -1.914265    0.677418   -1.181258
      5          1           0       -2.208882    0.706821    0.625349
      6          6           0        0.515233    0.604194    0.089276
      7          1           0       -0.382566   -1.380320   -0.614210
      8          1           0       -0.448762   -0.911418    1.346290
      9          6           0        1.934813   -0.206747   -0.135483
     10          1           0        0.501676    1.480442    0.948952
     11          1           0       -0.016846    1.115066   -0.840319
     12          1           0        2.280634   -0.526246    0.517502
     13          1           0        2.782781    0.570484   -0.206043
     14          1           0        1.993329   -0.840996   -0.890029
 ---------------------------------------------------------------------

 SCF Done:  E(RB2PLYPD3) =  -157.944222060     A.U. after   11 cycles
 E2(B2PLYPD3) =    -0.2503360078D+00 E(B2PLYPD3) =    -0.15819455806771D+03

 The electronic state is 1-A.
 Alpha  occ. eigenvalues --  -10.63853 -10.63027 -10.60793 -10.57193  -0.90824
 Alpha  occ. eigenvalues --   -0.84829  -0.74414  -0.64012  -0.54106  -0.50583
 Alpha  occ. eigenvalues --   -0.49942  -0.46475  -0.43213  -0.41124  -0.38229
 Alpha  occ. eigenvalues --   -0.36771  -0.34480
 Alpha virt. eigenvalues --    0.05561   0.06676   0.07251   0.08248   0.10370
 Alpha virt. eigenvalues --    0.11736   0.12801   0.14259   0.15049   0.15288
 Alpha virt. eigenvalues --    0.15872   0.16238   0.18791   0.20015   0.20800

 Mulliken charges:
               1
     1  C   -0.141327
     2  C   -0.035603
     3  H    0.054055
     4  H    0.024331
     5  H    0.055888
     6  C   -0.048798
     7  H   -0.000890
     8  H    0.046700
     9  C   -0.270738
    10  H    0.022654
    11  H    0.035622
    12  H    0.185903
    13  H    0.012241
    14  H    0.059961
 Sum of Mulliken charges =   0.00000

 Dipole moment (field-independent basis, Debye):
    X=             -0.0482    Y=             -0.1323    Z=              0.2906  Tot=              0.3230
 Quadrupole moment (field-independent basis, Debye-Ang):
   XX=            -29.2220   YY=            -29.4733   ZZ=            -28.3586
   XY=             -0.7303   XZ=              0.8967   YZ=              0.6586

 Normal termination of Gaussian 09 at Wed Aug 26 11:04:53 2020.
