 Gaussian 09, Revision D.01,
 Gaussian 09:  ES64L-G09RevD.01 24-Apr-2013

 --------------------
 #p B2PLYPD3/Def2QZVP
 --------------------

 ----------
 butane_opt
 ----------
 Symbolic Z-matrix:
 Charge =  0 Multiplicity = 1

                         Standard orientation:
 ---------------------------------------------------------------------
 Center     Atomic      Atomic             Coordinates (Angstroms)
 Number     Number       Type             X           Y           Z
 ---------------------------------------------------------------------
      1          6           0       -1.945951    0.108266   -0.087642
      2          6           0       -0.636099   -0.494198    0.069087
      3          1           0       -2.767976   -0.701764   -0.068874
      4          1           0       -1.931832    0.742690   -0.963184
      5          1           0       -2.176067    0.824658    0.756620
      6          6           0        0.555125    0.543954    0.086006
      7          1           0       -0.442324   -1.096363   -0.801042
      8          1           0       -0.599166   -1.277507    0.985174
      9          6           0        2.036262   -0.148541   -0.056039
     10          1           0        0.353717    1.332621    1.100481
     11          1           0        0.515350    1.052829   -0.719763
     12          1           0        2.373055   -0.811344    0.850487
     13          1           0        2.821392    0.536733   -0.385395
     14          1           0        1.797829   -0.659432   -0.822974
 ---------------------------------------------------------------------

 SCF Done:  E(RB2PLYPD3) =  -158.045898152     A.U. after   11 cycles
 E2(B2PLYPD3) =    -0.2480752468D+00 E(B2PLYPD3) =    -0.15829397339924D+03

 The electronic state is 1-A.
 Alpha  occ. eigenvalues --  -10.62197 -10.61496 -10.60552 -10.60129  -0.91062
 Alpha  occ. eigenvalues --   -0.83805  -0.72680  -0.66261  -0.53331  -0.49849
 Alpha  occ. eigenvalues --   -0.49165  -0.47366  -0.43224  -0.41207  -0.38261
 Alpha  occ. eigenvalues --   -0.37675  -0.36154
 Alpha virt. eigenvalues --    0.05652   0.06755   0.08014   0.08541   0.10608
 Alpha virt. eigenvalues --    0.11793   0.12838   0.13310   0.15019   0.15272
 Alpha virt. eigenvalues --    0.15860   0.16137   0.18786   0.19549   0.21298

 Mulliken charges:
               1
     1  C   -0.144725
     2  C   -0.029486
     3  H    0.048159
     4  H    0.047814
     5  H    0.038713
     6  C   -0.106268
     7  H    0.034745
     8  H    0.017287
     9  C   -0.184848
    10  H    0.001183
    11  H    0.091424
    12  H    0.046242
    13  H    0.046760
    14  H    0.093000
 Sum of Mulliken charges =   0.00000

 Dipole moment (field-independent basis, Debye):
    X=             -0.0135    Y=             -0.1095    Z=             -0.5412  Tot=              0.5523
 Quadrupole moment (field-independent basis, Debye-Ang):
   XX=            -29.5911   YY=            -29.3084   ZZ=            -28.4442
   XY=              0.3350   XZ=             -0.6340   YZ=             -0.6166

 Normal termination of Gaussian 09 at Wed Aug 26 15:51:42 2020.
