 Gaussian 09, Revision D.01,
 Gaussian 09:  ES64L-G09RevD.01 24-Apr-2013

 --------------------
 #p B2PLYPD3/Def2QZVP
 --------------------

 ----------
 butane_opt
 ----------
 Symbolic Z-matrix:
 Charge =  0 Multiplicity = 1

                         Standard orientation:
 ---------------------------------------------------------------------
 Center     Atomic      Atomic             Coordinates (Angstroms)
 Number     Number       Type             X           Y           Z
 ---------------------------------------------------------------------
      1          6           0        1.908004   -0.161600   -0.047402
      2          6           0        0.555523    0.521309    0.137130
      3          1           0        2.770655    0.653374   -0.440200
      4          1           0        1.878922   -0.585733   -0.786751
      5          1           0        2.385933   -1.042092    0.918236
      6          6           0       -0.602151   -0.433108   -0.015286
      7          1           0        0.296714    1.309827   -0.760856
      8          1           0        0.553248    1.173682    0.959712
      9          6           0       -1.926123    0.089297   -0.035766
     10          1           0       -0.525769   -1.177276    0.847338
     11          1           0       -0.320336   -1.044941   -0.949815
     12          1           0       -2.032802    0.757995    0.854712
     13          1           0       -2.722997   -0.772640   -0.048833
     14          1           0       -1.895088    0.632418   -0.825598
 ---------------------------------------------------------------------

 SCF Done:  E(RB2PLYPD3) =  -157.971660425     A.U. after   11 cycles
 E2(B2PLYPD3) =    -0.2490930506D+00 E(B2PLYPD3) =    -0.15822075347534D+03

 The electronic state is 1-A.
 Alpha  occ. eigenvalues --  -10.61873 -10.61794 -10.60778 -10.59132  -0.93153
 Alpha  occ. eigenvalues --   -0.85391  -0.73617  -0.66290  -0.55241  -0.50497
 Alpha  occ. eigenvalues --   -0.48395  -0.47348  -0.42937  -0.40174  -0.39946
 Alpha  occ. eigenvalues --   -0.37766  -0.34994
 Alpha virt. eigenvalues --    0.05355   0.06017   0.07416   0.08274   0.10657
 Alpha virt. eigenvalues --    0.10845   0.12830   0.12926   0.14470   0.15571
 Alpha virt. eigenvalues --    0.15803   0.16409   0.19168   0.19888   0.20975

 Mulliken charges:
               1
     1  C   -0.275056
     2  C   -0.003970
     3  H    0.029244
     4  H    0.170795
     5  H    0.031948
     6  C   -0.018683
     7  H   -0.012553
     8  H    0.047081
     9  C   -0.168202
    10  H    0.011915
    11  H    0.021360
    12  H    0.046159
    13  H    0.051951
    14  H    0.068013
 Sum of Mulliken charges =   0.00000

 Dipole moment (field-independent basis, Debye):
    X=             -0.2392    Y=              0.0163    Z=             -0.2692  Tot=              0.3605
 Quadrupole moment (field-independent basis, Debye-Ang):
   XX=            -30.6203   YY=            -29.2280   ZZ=            -28.4633
   XY=              0.0443   XZ=             -0.6321   YZ=              0.0835

 Normal termination of Gaussian 09 at Wed Aug 26 23:42:40 2020.
