 Gaussian 09, Revision D.01,
 Gaussian 09:  ES64L-G09RevD.01 24-Apr-2013

 --------------------
 #p B2PLYPD3/Def2QZVP
 --------------------

 ----------
 butane_opt
 ----------
 Symbolic Z-matrix:
 Charge =  0 Multiplicity = 1

                         Standard orientation:
 ---------------------------------------------------------------------
 Center     Atomic      Atomic             Coordinates (Angstroms)
 Number     Number       Type             X           Y           Z
 ---------------------------------------------------------------------
      1          6           0       -1.936465   -0.085216   -0.099476
      2          6           0       -0.541431    0.542438    0.069077
      3          1           0       -2.662397    0.564887   -0.236070
      4          1           0       -2.341245   -0.607058    0.813522
      5          1           0       -1.705149   -1.058811   -1.049858
      6          6           0        0.525425   -0.460466    0.233317
      7          1           0       -0.520452    1.148885    0.830937
      8          1           0        0.047936    1.177365   -0.969293
      9          6           0        1.836694    0.048618   -0.119527
     10          1           0        0.322466   -1.235978   -0.634608
     11          1           0        0.663077   -1.129899    1.360342
     12          1           0        1.837837    0.374036   -1.011936
     13          1           0        2.692889   -0.598605   -0.475115
     14          1           0        2.359696    1.092938    0.871727
 ---------------------------------------------------------------------

 SCF Done:  E(RB2PLYPD3) =  -157.907771392     A.U. after   11 cycles
 E2(B2PLYPD3) =    -0.2540410127D+00 E(B2PLYPD3) =    -0.15816181240427D+03

 The electronic state is 1-A.
 Alpha  occ. eigenvalues --  -10.63679 -10.62798 -10.62440 -10.62344  -0.93309
 Alpha  occ. eigenvalues --   -0.84360  -0.74161  -0.65679  -0.55369  -0.51363
 Alpha  occ. eigenvalues --   -0.47997  -0.45441  -0.42342  -0.39486  -0.38040
 Alpha  occ. eigenvalues --   -0.35782  -0.34659
 Alpha virt. eigenvalues --    0.04510   0.05205   0.06372   0.07319   0.09878
 Alpha virt. eigenvalues --    0.10775   0.11920   0.12693   0.13529   0.14177
 Alpha virt. eigenvalues --    0.16496   0.16712   0.18295   0.19509   0.20008

 Mulliken charges:
               1
     1  C   -0.137910
     2  C   -0.057806
     3  H    0.070883
     4  H    0.044291
     5  H    0.014699
     6  C   -0.019816
     7  H    0.076868
     8  H    0.009752
     9  C   -0.169471
    10  H    0.030276
    11  H    0.023492
    12  H    0.079235
    13  H    0.047079
    14  H   -0.011573
 Sum of Mulliken charges =   0.00000

 Dipole moment (field-independent basis, Debye):
    X=             -0.3970    Y=             -0.0286    Z=             -0.2023  Tot=              0.4465
 Quadrupole moment (field-independent basis, Debye-Ang):
   XX=            -30.0032   YY=            -30.7382   ZZ=            -28.9356
   XY=             -1.3346   XZ=             -2.7294   YZ=              0.7518

 Normal termination of Gaussian 09 at Wed Aug 26 12:07:48 2020.
