 Gaussian 09, Revision D.01,
 Gaussian 09:  ES64L-G09RevD.01 24-Apr-2013

 --------------------
 #p B2PLYPD3/Def2QZVP
 --------------------

 ----------
 butane_opt
 ----------
 Symbolic Z-matrix:
 Charge =  0 Multiplicity = 1

                         Standard orientation:
 ---------------------------------------------------------------------
 Center     Atomic      Atomic             Coordinates (Angstroms)
 Number     Number       Type             X           Y           Z
 ---------------------------------------------------------------------
      1          6           0        1.889889    0.087090    0.219196
      2          6           0        0.532062   -0.462109   -0.231715
      3          1           0        2.719983   -0.705129   -0.085070
      4          1           0        2.047963    0.941196    1.255707
      5          1           0        1.951375    0.366186   -0.502626
      6          6           0       -0.456084    0.528656   -0.248612
      7          1           0        0.172219   -1.067669    0.705632
      8          1           0        0.560532   -0.942250   -1.031406
      9          6           0       -1.914637   -0.079263    0.181267
     10          1           0       -0.639604    1.283241   -1.206899
     11          1           0       -0.382740    0.922483    0.452433
     12          1           0       -2.218894   -0.834201   -0.775769
     13          1           0       -2.680724    0.496990    0.596869
     14          1           0       -1.837491   -0.907100    1.070310
 ---------------------------------------------------------------------

 SCF Done:  E(RB2PLYPD3) =  -157.742572334     A.U. after   11 cycles
 E2(B2PLYPD3) =    -0.2516201333D+00 E(B2PLYPD3) =    -0.15799419246752D+03

 The electronic state is 1-A.
 Alpha  occ. eigenvalues --  -10.62602 -10.59495 -10.59241 -10.58835  -0.96149
 Alpha  occ. eigenvalues --   -0.85521  -0.74389  -0.69483  -0.56680  -0.50188
 Alpha  occ. eigenvalues --   -0.49017  -0.46574  -0.42814  -0.40828  -0.39095
 Alpha  occ. eigenvalues --   -0.37640  -0.33022
 Alpha virt. eigenvalues --    0.05246   0.06237   0.07624   0.08215   0.10720
 Alpha virt. eigenvalues --    0.11300   0.12278   0.13555   0.13942   0.14919
 Alpha virt. eigenvalues --    0.15444   0.16742   0.18648   0.19677   0.21693

 Mulliken charges:
               1
     1  C   -0.488849
     2  C   -0.039467
     3  H    0.035611
     4  H    0.067628
     5  H    0.351605
     6  C   -0.284946
     7  H    0.032162
     8  H    0.071960
     9  C   -0.155119
    10  H    0.029430
    11  H    0.281599
    12  H    0.018190
    13  H    0.067326
    14  H    0.012871
 Sum of Mulliken charges =   0.00000

 Dipole moment (field-independent basis, Debye):
    X=              0.1451    Y=              0.3529    Z=             -0.1610  Tot=              0.4141
 Quadrupole moment (field-independent basis, Debye-Ang):
   XX=            -30.6459   YY=            -29.5267   ZZ=            -27.4509
   XY=             -0.4095   XZ=             -1.5924   YZ=              1.2030

 Normal termination of Gaussian 09 at Wed Aug 26 10:22:53 2020.
