 Gaussian 09, Revision D.01,
 Gaussian 09:  ES64L-G09RevD.01 24-Apr-2013

 --------------------
 #p B2PLYPD3/Def2QZVP
 --------------------

 ----------
 butane_opt
 ----------
 Symbolic Z-matrix:
 Charge =  0 Multiplicity = 1

                         Standard orientation:
 ---------------------------------------------------------------------
 Center     Atomic      Atomic             Coordinates (Angstroms)
 Number     Number       Type             X           Y           Z
 ---------------------------------------------------------------------
      1          6           0       -1.913223    0.113007   -0.007732
      2          6           0       -0.490963   -0.594769    0.084642
      3          1           0       -2.630859   -0.680840   -0.788824
      4          1           0       -1.844968    0.273902   -0.556553
      5          1           0       -2.894145    1.553713    1.241872
      6          6           0        0.552243    0.426088   -0.171810
      7          1           0       -0.461758   -1.369576   -0.536864
      8          1           0       -0.005578   -1.111723    1.049204
      9          6           0        1.858808   -0.000828    0.045431
     10          1           0        0.393688    1.072748    0.595612
     11          1           0        0.555201    0.970652   -1.108652
     12          1           0        2.128889   -0.710990    1.171123
     13          1           0        2.753104    0.757471   -0.159332
     14          1           0        1.965233   -0.416344   -0.610772
 ---------------------------------------------------------------------

 SCF Done:  E(RB2PLYPD3) =  -157.130874908     A.U. after   14 cycles
 E2(B2PLYPD3) =    -0.2613802905D+00 E(B2PLYPD3) =    -0.15739225519815D+03

 The electronic state is 1-A.
 Alpha  occ. eigenvalues --  -10.66284 -10.62866 -10.59159 -10.58872  -0.97292
 Alpha  occ. eigenvalues --   -0.91657  -0.78814  -0.69749  -0.56338  -0.51412
 Alpha  occ. eigenvalues --   -0.50810  -0.45559  -0.41189  -0.39470  -0.38710
 Alpha  occ. eigenvalues --   -0.36517  -0.33332
 Alpha virt. eigenvalues --   -0.06428   0.04906   0.05819   0.07418   0.09658
 Alpha virt. eigenvalues --    0.10251   0.11814   0.12854   0.14252   0.15628
 Alpha virt. eigenvalues --    0.16162   0.16792   0.17022   0.19068   0.19697

 Mulliken charges:
               1
     1  C   -0.949884
     2  C    0.004635
     3  H    0.018521
     4  H    0.805803
     5  H    0.023156
     6  C   -0.030126
     7  H    0.064803
     8  H    0.033442
     9  C   -0.393397
    10  H    0.074216
    11  H    0.017992
    12  H    0.022424
    13  H    0.040926
    14  H    0.267490
 Sum of Mulliken charges =   0.00000

 Dipole moment (field-independent basis, Debye):
    X=              0.8346    Y=             -0.1289    Z=             -1.1368  Tot=              1.4161
 Quadrupole moment (field-independent basis, Debye-Ang):
   XX=            -32.4802   YY=            -29.2678   ZZ=            -28.0284
   XY=             -0.5247   XZ=              0.7124   YZ=              0.6967

 Normal termination of Gaussian 09 at Wed Aug 26 12:31:01 2020.
