 Gaussian 09, Revision D.01,
 Gaussian 09:  ES64L-G09RevD.01 24-Apr-2013

 --------------------
 #p B2PLYPD3/Def2QZVP
 --------------------

 ----------
 butane_opt
 ----------
 Symbolic Z-matrix:
 Charge =  0 Multiplicity = 1

                         Standard orientation:
 ---------------------------------------------------------------------
 Center     Atomic      Atomic             Coordinates (Angstroms)
 Number     Number       Type             X           Y           Z
 ---------------------------------------------------------------------
      1          6           0        1.909781   -0.083785   -0.087018
      2          6           0        0.651784    0.437664    0.108103
      3          1           0        2.683984    0.731998   -0.047472
      4          1           0        2.158087   -0.759589   -1.035641
      5          1           0        1.776913   -0.557914    0.609437
      6          6           0       -0.564787   -0.561574    0.020673
      7          1           0        0.494186    0.828568   -0.596229
      8          1           0        0.663854    1.324582    1.295483
      9          6           0       -2.044085    0.141169   -0.089438
     10          1           0       -0.429615   -1.167211    0.879425
     11          1           0       -0.118803   -0.996053   -0.668691
     12          1           0       -1.906057    0.267740    0.573057
     13          1           0       -2.624814   -0.471864    0.444063
     14          1           0       -2.413896    1.198897   -1.167352
 ---------------------------------------------------------------------

 SCF Done:  E(RB2PLYPD3) =  -157.441310719     A.U. after   12 cycles
 E2(B2PLYPD3) =    -0.2534888219D+00 E(B2PLYPD3) =    -0.15769479954109D+03

 The electronic state is 1-A.
 Alpha  occ. eigenvalues --  -10.60288 -10.60221 -10.59709 -10.57509  -0.97499
 Alpha  occ. eigenvalues --   -0.92684  -0.79278  -0.69984  -0.56220  -0.51736
 Alpha  occ. eigenvalues --   -0.48509  -0.47381  -0.42526  -0.40674  -0.40117
 Alpha  occ. eigenvalues --   -0.36202  -0.33372
 Alpha virt. eigenvalues --    0.03256   0.05350   0.06718   0.07608   0.10365
 Alpha virt. eigenvalues --    0.11095   0.12230   0.13143   0.14687   0.15311
 Alpha virt. eigenvalues --    0.16439   0.17086   0.18388   0.18947   0.20583

 Mulliken charges:
               1
     1  C   -0.261400
     2  C   -0.274078
     3  H    0.069390
     4  H    0.029637
     5  H    0.170910
     6  C   -0.105544
     7  H    0.248632
     8  H   -0.028935
     9  C   -0.693272
    10  H    0.023751
    11  H    0.107986
    12  H    0.569232
    13  H    0.056326
    14  H    0.087366
 Sum of Mulliken charges =   0.00000

 Dipole moment (field-independent basis, Debye):
    X=              0.0338    Y=             -0.0500    Z=              0.0160  Tot=              0.0624
 Quadrupole moment (field-independent basis, Debye-Ang):
   XX=            -29.4265   YY=            -29.4918   ZZ=            -27.4901
   XY=             -0.5387   XZ=             -1.6242   YZ=             -1.6552

 Normal termination of Gaussian 09 at Wed Aug 26 23:54:50 2020.
