 Gaussian 09, Revision D.01,
 Gaussian 09:  ES64L-G09RevD.01 24-Apr-2013

 --------------------
 #p B2PLYPD3/Def2QZVP
 --------------------

 ----------
 butane_opt
 ----------
 Symbolic Z-matrix:
 Charge =  0 Multiplicity = 1

                         Standard orientation:
 ---------------------------------------------------------------------
 Center     Atomic      Atomic             Coordinates (Angstroms)
 Number     Number       Type             X           Y           Z
 ---------------------------------------------------------------------
      1          6           0       -1.960305   -0.073033    0.184808
      2          6           0       -0.597277    0.460501   -0.210335
      3          1           0       -2.746635    0.559319   -0.062979
      4          1           0       -2.004186   -1.091741    1.279200
      5          1           0       -2.047550   -0.539870   -0.622731
      6          6           0        0.547951   -0.511009   -0.267719
      7          1           0       -0.424404    1.391046    0.826548
      8          1           0       -0.644800    1.198334   -1.045576
      9          6           0        2.022226    0.087375    0.230287
     10          1           0        0.533579   -1.227062   -1.131973
     11          1           0       -0.004763   -0.984260    0.503570
     12          1           0        2.627160    0.792178   -0.743907
     13          1           0        2.779793   -0.687675    0.330862
     14          1           0        1.856233    0.806723    1.044736
 ---------------------------------------------------------------------

 SCF Done:  E(RB2PLYPD3) =  -157.914951832     A.U. after   11 cycles
 E2(B2PLYPD3) =    -0.2546575131D+00 E(B2PLYPD3) =    -0.15816960934511D+03

 The electronic state is 1-A.
 Alpha  occ. eigenvalues --  -10.64585 -10.64093 -10.62125 -10.61720  -0.92468
 Alpha  occ. eigenvalues --   -0.82855  -0.74075  -0.64850  -0.54294  -0.50302
 Alpha  occ. eigenvalues --   -0.48742  -0.43689  -0.42688  -0.40938  -0.39422
 Alpha  occ. eigenvalues --   -0.35349  -0.32815
 Alpha virt. eigenvalues --    0.04127   0.05854   0.06807   0.07646   0.10058
 Alpha virt. eigenvalues --    0.11245   0.11656   0.13668   0.14151   0.14451
 Alpha virt. eigenvalues --    0.15339   0.15724   0.17812   0.19900   0.20630

 Mulliken charges:
               1
     1  C   -0.204553
     2  C   -0.018239
     3  H    0.067894
     4  H    0.036762
     5  H    0.100633
     6  C   -0.066074
     7  H   -0.039427
     8  H    0.037805
     9  C   -0.160866
    10  H    0.040176
    11  H    0.051412
    12  H    0.002489
    13  H    0.066593
    14  H    0.085395
 Sum of Mulliken charges =   0.00000

 Dipole moment (field-independent basis, Debye):
    X=             -0.3261    Y=             -0.4146    Z=             -0.5494  Tot=              0.7616
 Quadrupole moment (field-independent basis, Debye-Ang):
   XX=            -29.1210   YY=            -30.1270   ZZ=            -29.3323
   XY=             -0.7181   XZ=              1.2346   YZ=             -0.2171

 Normal termination of Gaussian 09 at Wed Aug 26 16:05:40 2020.
