 Gaussian 09, Revision D.01,
 Gaussian 09:  ES64L-G09RevD.01 24-Apr-2013

 --------------------
 #p B2PLYPD3/Def2QZVP
 --------------------

 ----------
 butane_opt
 ----------
 Symbolic Z-matrix:
 Charge =  0 Multiplicity = 1

                         Standard orientation:
 ---------------------------------------------------------------------
 Center     Atomic      Atomic             Coordinates (Angstroms)
 Number     Number       Type             X           Y           Z
 ---------------------------------------------------------------------
      1          6           0        1.887034   -0.036191   -0.222602
      2          6           0        0.583011   -0.270507    0.384610
      3          1           0        2.584503   -0.998706   -0.398854
      4          1           0        2.200564    1.256440    0.580067
      5          1           0        1.442158   -0.059291   -0.797183
      6          6           0       -0.479182    0.521323   -0.058350
      7          1           0        0.887114   -0.567002    1.532506
      8          1           0        0.393597   -0.928122   -0.261822
      9          6           0       -2.000342   -0.197571   -0.056105
     10          1           0       -0.111925    0.876090   -1.292621
     11          1           0       -0.334990    1.433044    0.499457
     12          1           0       -1.834755   -1.231696   -0.742030
     13          1           0       -2.755830    0.426106   -0.230955
     14          1           0       -2.413563   -0.309181    0.826117
 ---------------------------------------------------------------------

 SCF Done:  E(RB2PLYPD3) =  -157.637141855     A.U. after   12 cycles
 E2(B2PLYPD3) =    -0.2560704011D+00 E(B2PLYPD3) =    -0.15789321225579D+03

 The electronic state is 1-A.
 Alpha  occ. eigenvalues --  -10.64041 -10.61676 -10.60800 -10.59598  -1.00426
 Alpha  occ. eigenvalues --   -0.85704  -0.77782  -0.64882  -0.58677  -0.52000
 Alpha  occ. eigenvalues --   -0.47860  -0.47004  -0.42554  -0.40679  -0.39899
 Alpha  occ. eigenvalues --   -0.36059  -0.31484
 Alpha virt. eigenvalues --    0.03354   0.05555   0.07040   0.07608   0.09953
 Alpha virt. eigenvalues --    0.10345   0.11987   0.12787   0.13484   0.14751
 Alpha virt. eigenvalues --    0.15892   0.16535   0.18251   0.19568   0.20441

 Mulliken charges:
               1
     1  C   -0.502202
     2  C   -0.080582
     3  H    0.069223
     4  H   -0.010364
     5  H    0.390549
     6  C   -0.068162
     7  H    0.035761
     8  H    0.087611
     9  C   -0.119263
    10  H    0.009331
    11  H    0.036763
    12  H    0.048492
    13  H    0.052162
    14  H    0.050680
 Sum of Mulliken charges =   0.00000

 Dipole moment (field-independent basis, Debye):
    X=             -0.9323    Y=             -0.5907    Z=              0.1046  Tot=              1.1087
 Quadrupole moment (field-independent basis, Debye-Ang):
   XX=            -30.0347   YY=            -29.7882   ZZ=            -29.2467
   XY=             -2.1736   XZ=             -0.5696   YZ=              1.8021

 Normal termination of Gaussian 09 at Wed Aug 26 13:28:10 2020.
