 Gaussian 09, Revision D.01,
 Gaussian 09:  ES64L-G09RevD.01 24-Apr-2013

 --------------------
 #p B2PLYPD3/Def2QZVP
 --------------------

 ----------
 butane_opt
 ----------
 Symbolic Z-matrix:
 Charge =  0 Multiplicity = 1

                         Standard orientation:
 ---------------------------------------------------------------------
 Center     Atomic      Atomic             Coordinates (Angstroms)
 Number     Number       Type             X           Y           Z
 ---------------------------------------------------------------------
      1          6           0        1.989216   -0.144155   -0.131627
      2          6           0        0.543265    0.531560    0.200884
      3          1           0        2.801409    0.588267   -0.388564
      4          1           0        1.882006   -0.566203   -0.949117
      5          1           0        2.345323   -0.937797    0.841734
      6          6           0       -0.561028   -0.466823    0.095698
      7          1           0        0.358942    1.169391   -0.577140
      8          1           0        0.460923    1.277793    1.149821
      9          6           0       -1.933497    0.101163   -0.122469
     10          1           0       -0.692057   -1.154416    0.933921
     11          1           0       -0.345471   -1.156505   -0.833035
     12          1           0       -2.260463    0.500156    0.635604
     13          1           0       -2.710671   -0.681645    0.027792
     14          1           0       -2.067677    0.830494   -1.095930
 ---------------------------------------------------------------------

 SCF Done:  E(RB2PLYPD3) =  -158.007701460     A.U. after   11 cycles
 E2(B2PLYPD3) =    -0.2482487113D+00 E(B2PLYPD3) =    -0.15825595017157D+03

 The electronic state is 1-A.
 Alpha  occ. eigenvalues --  -10.61614 -10.61291 -10.61213 -10.59202  -0.91527
 Alpha  occ. eigenvalues --   -0.83669  -0.74656  -0.66726  -0.53810  -0.49239
 Alpha  occ. eigenvalues --   -0.47844  -0.47566  -0.42473  -0.40968  -0.38605
 Alpha  occ. eigenvalues --   -0.37482  -0.36796
 Alpha virt. eigenvalues --    0.05524   0.06522   0.08022   0.08400   0.10705
 Alpha virt. eigenvalues --    0.11604   0.12709   0.13468   0.14536   0.15250
 Alpha virt. eigenvalues --    0.15731   0.16864   0.19265   0.19532   0.20660

 Mulliken charges:
               1
     1  C   -0.187908
     2  C   -0.058861
     3  H    0.038312
     4  H    0.101762
     5  H    0.031803
     6  C   -0.000838
     7  H    0.050947
     8  H    0.018995
     9  C   -0.161712
    10  H    0.026091
    11  H    0.016330
    12  H    0.068411
    13  H    0.025871
    14  H    0.030800
 Sum of Mulliken charges =   0.00000

 Dipole moment (field-independent basis, Debye):
    X=             -0.2556    Y=              0.1225    Z=             -0.0583  Tot=              0.2894
 Quadrupole moment (field-independent basis, Debye-Ang):
   XX=            -29.5805   YY=            -29.3215   ZZ=            -28.1809
   XY=              0.3559   XZ=             -1.7916   YZ=             -0.6577

 Normal termination of Gaussian 09 at Wed Aug 26 16:11:22 2020.
