 Gaussian 09, Revision D.01,
 Gaussian 09:  ES64L-G09RevD.01 24-Apr-2013

 --------------------
 #p B2PLYPD3/Def2QZVP
 --------------------

 ----------
 butane_opt
 ----------
 Symbolic Z-matrix:
 Charge =  0 Multiplicity = 1

                         Standard orientation:
 ---------------------------------------------------------------------
 Center     Atomic      Atomic             Coordinates (Angstroms)
 Number     Number       Type             X           Y           Z
 ---------------------------------------------------------------------
      1          6           0        1.938478   -0.171106   -0.055798
      2          6           0        0.521405    0.552446    0.058798
      3          1           0        2.740437    0.623003    0.029497
      4          1           0        2.124087   -0.891655   -0.969232
      5          1           0        2.112713   -0.464732    0.620973
      6          6           0       -0.532481   -0.484248    0.086076
      7          1           0        0.349407    1.146956   -0.825103
      8          1           0        0.364725    1.165128    0.946346
      9          6           0       -1.899321    0.084638   -0.093362
     10          1           0       -0.469503   -1.308088    1.159933
     11          1           0       -0.575390   -0.900099   -0.563820
     12          1           0       -2.287293    0.804083    0.824656
     13          1           0       -2.747659   -0.634012   -0.268662
     14          1           0       -1.780011    0.569043   -0.928875
 ---------------------------------------------------------------------

 SCF Done:  E(RB2PLYPD3) =  -157.791523175     A.U. after   11 cycles
 E2(B2PLYPD3) =    -0.2471998420D+00 E(B2PLYPD3) =    -0.15803872301723D+03

 The electronic state is 1-A.
 Alpha  occ. eigenvalues --  -10.60824 -10.59968 -10.58661 -10.57986  -0.94607
 Alpha  occ. eigenvalues --   -0.86247  -0.75459  -0.69631  -0.55758  -0.50575
 Alpha  occ. eigenvalues --   -0.49429  -0.47796  -0.43387  -0.42000  -0.38775
 Alpha  occ. eigenvalues --   -0.37717  -0.36677
 Alpha virt. eigenvalues --    0.05635   0.06768   0.07717   0.08894   0.10734
 Alpha virt. eigenvalues --    0.11951   0.12774   0.14268   0.14305   0.15605
 Alpha virt. eigenvalues --    0.16291   0.16566   0.19106   0.19766   0.22233

 Mulliken charges:
               1
     1  C   -0.414593
     2  C    0.007257
     3  H    0.027452
     4  H    0.056577
     5  H    0.286845
     6  C   -0.351633
     7  H    0.040036
     8  H    0.049195
     9  C   -0.140616
    10  H   -0.003349
    11  H    0.319725
    12  H    0.018787
    13  H    0.035795
    14  H    0.068522
 Sum of Mulliken charges =   0.00000

 Dipole moment (field-independent basis, Debye):
    X=              0.0911    Y=              0.0072    Z=             -0.3385  Tot=              0.3506
 Quadrupole moment (field-independent basis, Debye-Ang):
   XX=            -29.4007   YY=            -29.2433   ZZ=            -27.6559
   XY=              0.1417   XZ=              0.9897   YZ=              0.7475

 Normal termination of Gaussian 09 at Wed Aug 26 23:20:38 2020.
