 Gaussian 09, Revision D.01,
 Gaussian 09:  ES64L-G09RevD.01 24-Apr-2013

 --------------------
 #p B2PLYPD3/Def2QZVP
 --------------------

 ----------
 butane_opt
 ----------
 Symbolic Z-matrix:
 Charge =  0 Multiplicity = 1

                         Standard orientation:
 ---------------------------------------------------------------------
 Center     Atomic      Atomic             Coordinates (Angstroms)
 Number     Number       Type             X           Y           Z
 ---------------------------------------------------------------------
      1          6           0        2.026078   -0.168501    0.044227
      2          6           0        0.586291    0.616950   -0.022878
      3          1           0        2.748819    0.494205    0.057960
      4          1           0        2.170206   -0.659363   -0.751754
      5          1           0        2.165633   -0.754068    0.848903
      6          6           0       -0.592141   -0.517644   -0.213563
      7          1           0        0.508939    1.284395   -0.796852
      8          1           0        0.093510    1.257816    1.063870
      9          6           0       -1.957408    0.037406    0.110703
     10          1           0       -0.573274   -1.367592    0.680856
     11          1           0       -0.563641   -1.045675   -0.960815
     12          1           0       -1.644399    0.454574    0.939402
     13          1           0       -2.750228   -0.550379    0.381135
     14          1           0       -2.532485    1.076824   -0.973642
 ---------------------------------------------------------------------

 SCF Done:  E(RB2PLYPD3) =  -157.913637719     A.U. after   11 cycles
 E2(B2PLYPD3) =    -0.2500371213D+00 E(B2PLYPD3) =    -0.15816367484061D+03

 The electronic state is 1-A.
 Alpha  occ. eigenvalues --  -10.64676 -10.62025 -10.61361 -10.57648  -0.90725
 Alpha  occ. eigenvalues --   -0.85139  -0.74316  -0.68996  -0.54647  -0.50873
 Alpha  occ. eigenvalues --   -0.49967  -0.47079  -0.43008  -0.41628  -0.39406
 Alpha  occ. eigenvalues --   -0.37593  -0.33202
 Alpha virt. eigenvalues --    0.04529   0.05815   0.07397   0.07954   0.10124
 Alpha virt. eigenvalues --    0.11297   0.12267   0.13791   0.14720   0.15036
 Alpha virt. eigenvalues --    0.15752   0.17062   0.18592   0.19088   0.21202

 Mulliken charges:
               1
     1  C   -0.113223
     2  C   -0.098082
     3  H    0.038359
     4  H    0.057467
     5  H    0.050314
     6  C   -0.054871
     7  H    0.079704
     8  H    0.006259
     9  C   -0.157089
    10  H   -0.002828
    11  H    0.080930
    12  H    0.090360
    13  H    0.065120
    14  H   -0.042419
 Sum of Mulliken charges =   0.00000

 Dipole moment (field-independent basis, Debye):
    X=              0.8415    Y=             -0.7302    Z=              0.1339  Tot=              1.1221
 Quadrupole moment (field-independent basis, Debye-Ang):
   XX=            -29.7889   YY=            -29.5336   ZZ=            -28.4642
   XY=              1.4103   XZ=             -1.6573   YZ=             -0.2300

 Normal termination of Gaussian 09 at Wed Aug 26 22:26:47 2020.
