 Gaussian 09, Revision D.01,
 Gaussian 09:  ES64L-G09RevD.01 24-Apr-2013

 --------------------
 #p B2PLYPD3/Def2QZVP
 --------------------

 ----------
 butane_opt
 ----------
 Symbolic Z-matrix:
 Charge =  0 Multiplicity = 1

                         Standard orientation:
 ---------------------------------------------------------------------
 Center     Atomic      Atomic             Coordinates (Angstroms)
 Number     Number       Type             X           Y           Z
 ---------------------------------------------------------------------
      1          6           0        1.972097    0.081180   -0.138021
      2          6           0        0.672976   -0.467431    0.139895
      3          1           0        2.706122   -0.581939   -0.098648
      4          1           0        2.171003    0.597985    0.505576
      5          1           0        2.084660    0.583502   -0.926493
      6          6           0       -0.591844    0.625335    0.192614
      7          1           0        0.769096   -1.082329    1.038052
      8          1           0        0.284346   -1.025824   -0.632106
      9          6           0       -2.036102   -0.203420   -0.150224
     10          1           0       -0.144521    1.078142   -0.570155
     11          1           0       -0.744032    1.258059    1.167229
     12          1           0       -1.576966   -0.692986   -0.868301
     13          1           0       -2.919584    0.573188   -0.759902
     14          1           0       -2.732892   -0.921779    0.879161
 ---------------------------------------------------------------------

 SCF Done:  E(RB2PLYPD3) =  -157.893598586     A.U. after   11 cycles
 E2(B2PLYPD3) =    -0.2504406826D+00 E(B2PLYPD3) =    -0.15814403926845D+03

 The electronic state is 1-A.
 Alpha  occ. eigenvalues --  -10.65239 -10.62408 -10.60029 -10.53770  -0.92869
 Alpha  occ. eigenvalues --   -0.83837  -0.73530  -0.67857  -0.56277  -0.51417
 Alpha  occ. eigenvalues --   -0.48768  -0.47781  -0.42721  -0.41352  -0.39545
 Alpha  occ. eigenvalues --   -0.36748  -0.33970
 Alpha virt. eigenvalues --    0.04683   0.06226   0.08720   0.09013   0.09846
 Alpha virt. eigenvalues --    0.10651   0.12884   0.13730   0.14488   0.15567
 Alpha virt. eigenvalues --    0.16377   0.16814   0.17972   0.18676   0.21412

 Mulliken charges:
               1
     1  C   -0.187222
     2  C   -0.021520
     3  H    0.026371
     4  H    0.114274
     5  H    0.018386
     6  C   -0.110061
     7  H    0.028658
     8  H    0.042146
     9  C   -0.221205
    10  H    0.085918
    11  H    0.037785
    12  H    0.105997
    13  H    0.029622
    14  H    0.050851
 Sum of Mulliken charges =   0.00000

 Dipole moment (field-independent basis, Debye):
    X=              0.7790    Y=              0.0030    Z=             -0.1586  Tot=              0.7950
 Quadrupole moment (field-independent basis, Debye-Ang):
   XX=            -28.8409   YY=            -29.5999   ZZ=            -28.0218
   XY=              0.2546   XZ=             -0.2609   YZ=             -0.3758

 Normal termination of Gaussian 09 at Wed Aug 26 10:32:53 2020.
