 Gaussian 09, Revision D.01,
 Gaussian 09:  ES64L-G09RevD.01 24-Apr-2013

 --------------------
 #p B2PLYPD3/Def2QZVP
 --------------------

 ----------
 butane_opt
 ----------
 Symbolic Z-matrix:
 Charge =  0 Multiplicity = 1

                         Standard orientation:
 ---------------------------------------------------------------------
 Center     Atomic      Atomic             Coordinates (Angstroms)
 Number     Number       Type             X           Y           Z
 ---------------------------------------------------------------------
      1          6           0        1.913958   -0.190797   -0.091783
      2          6           0        0.596943    0.549719    0.006565
      3          1           0        2.800062    0.727639   -0.110992
      4          1           0        2.426463   -1.275590   -0.930200
      5          1           0        2.005376   -0.400682    0.720088
      6          6           0       -0.606989   -0.349093    0.290223
      7          1           0        0.371749    0.818288   -0.785234
      8          1           0        0.251567    1.515909    0.882382
      9          6           0       -1.894777    0.055135   -0.188414
     10          1           0       -0.523018   -1.267846    1.567994
     11          1           0       -0.637830   -0.950429   -0.356202
     12          1           0       -2.532410    0.908019    0.665273
     13          1           0       -2.689401   -0.923449   -0.636741
     14          1           0       -1.527365    0.458355   -1.115911
 ---------------------------------------------------------------------

 SCF Done:  E(RB2PLYPD3) =  -157.684127370     A.U. after   11 cycles
 E2(B2PLYPD3) =    -0.2571142222D+00 E(B2PLYPD3) =    -0.15794124159196D+03

 The electronic state is 1-A.
 Alpha  occ. eigenvalues --  -10.65832 -10.63037 -10.62417 -10.61989  -0.96560
 Alpha  occ. eigenvalues --   -0.87118  -0.74737  -0.66102  -0.55589  -0.49597
 Alpha  occ. eigenvalues --   -0.48746  -0.45159  -0.43080  -0.41890  -0.37350
 Alpha  occ. eigenvalues --   -0.34253  -0.34022
 Alpha virt. eigenvalues --    0.02880   0.04171   0.05738   0.06581   0.09077
 Alpha virt. eigenvalues --    0.10535   0.11236   0.12635   0.13392   0.14519
 Alpha virt. eigenvalues --    0.15618   0.16135   0.17126   0.18519   0.20379

 Mulliken charges:
               1
     1  C   -0.307527
     2  C   -0.171268
     3  H    0.029115
     4  H    0.057630
     5  H    0.209838
     6  C   -0.151115
     7  H    0.172896
     8  H    0.041764
     9  C   -0.170742
    10  H   -0.041582
    11  H    0.191289
    12  H    0.023707
    13  H    0.044146
    14  H    0.071847
 Sum of Mulliken charges =   0.00000

 Dipole moment (field-independent basis, Debye):
    X=              0.2606    Y=             -0.0221    Z=             -0.9032  Tot=              0.9403
 Quadrupole moment (field-independent basis, Debye-Ang):
   XX=            -30.9266   YY=            -30.2312   ZZ=            -29.6843
   XY=             -0.2274   XZ=              0.8419   YZ=              1.4872

 Normal termination of Gaussian 09 at Wed Aug 26 16:30:33 2020.
