 Gaussian 09, Revision D.01,
 Gaussian 09:  ES64L-G09RevD.01 24-Apr-2013

 --------------------
 #p B2PLYPD3/Def2QZVP
 --------------------

 ----------
 butane_opt
 ----------
 Symbolic Z-matrix:
 Charge =  0 Multiplicity = 1

                         Standard orientation:
 ---------------------------------------------------------------------
 Center     Atomic      Atomic             Coordinates (Angstroms)
 Number     Number       Type             X           Y           Z
 ---------------------------------------------------------------------
      1          6           0       -1.925589    0.023565    0.031499
      2          6           0       -0.605863   -0.437851    0.082376
      3          1           0       -2.701208   -0.834582   -0.467329
      4          1           0       -1.826674    0.230056   -0.737755
      5          1           0       -2.400136    1.317722    1.053346
      6          6           0        0.537355    0.574878   -0.192139
      7          1           0       -0.618544   -1.051759   -0.655421
      8          1           0       -0.405736   -1.029398    1.177696
      9          6           0        2.052949   -0.159362    0.004189
     10          1           0        0.498447    1.323957    0.596429
     11          1           0        0.068957    0.968381   -0.962293
     12          1           0        2.117254   -0.751999    1.012230
     13          1           0        2.722789    0.583514    0.192930
     14          1           0        2.191731   -0.763270   -0.765386
 ---------------------------------------------------------------------

 SCF Done:  E(RB2PLYPD3) =  -157.785180976     A.U. after   12 cycles
 E2(B2PLYPD3) =    -0.2533216982D+00 E(B2PLYPD3) =    -0.15803850267454D+03

 The electronic state is 1-A.
 Alpha  occ. eigenvalues --  -10.62399 -10.60949 -10.60823 -10.60685  -0.96522
 Alpha  occ. eigenvalues --   -0.84806  -0.75902  -0.67438  -0.55689  -0.51435
 Alpha  occ. eigenvalues --   -0.49347  -0.47057  -0.43107  -0.41623  -0.37838
 Alpha  occ. eigenvalues --   -0.35402  -0.33798
 Alpha virt. eigenvalues --    0.01564   0.05801   0.06584   0.08621   0.09785
 Alpha virt. eigenvalues --    0.10598   0.12051   0.13749   0.14351   0.14640
 Alpha virt. eigenvalues --    0.15738   0.16424   0.17931   0.19694   0.20530

 Mulliken charges:
               1
     1  C   -0.419827
     2  C   -0.031062
     3  H    0.041319
     4  H    0.309547
     5  H    0.006621
     6  C   -0.116111
     7  H    0.076510
     8  H   -0.007511
     9  C   -0.141451
    10  H    0.035523
    11  H    0.063720
    12  H    0.045284
    13  H    0.064727
    14  H    0.072710
 Sum of Mulliken charges =   0.00000

 Dipole moment (field-independent basis, Debye):
    X=              0.6761    Y=             -0.1759    Z=             -0.9571  Tot=              1.1850
 Quadrupole moment (field-independent basis, Debye-Ang):
   XX=            -30.7269   YY=            -29.6119   ZZ=            -28.2957
   XY=              0.5559   XZ=              2.4707   YZ=              1.4486

 Normal termination of Gaussian 09 at Wed Aug 26 16:05:51 2020.
