 Gaussian 09, Revision D.01,
 Gaussian 09:  ES64L-G09RevD.01 24-Apr-2013

 --------------------
 #p B2PLYPD3/Def2QZVP
 --------------------

 ----------
 butane_opt
 ----------
 Symbolic Z-matrix:
 Charge =  0 Multiplicity = 1

                         Standard orientation:
 ---------------------------------------------------------------------
 Center     Atomic      Atomic             Coordinates (Angstroms)
 Number     Number       Type             X           Y           Z
 ---------------------------------------------------------------------
      1          6           0       -1.925136   -0.098235   -0.028606
      2          6           0       -0.663005    0.484076   -0.078621
      3          1           0       -2.767107    0.721074   -0.085737
      4          1           0       -2.243257   -0.919043    1.054861
      5          1           0       -2.111338   -0.360706   -0.639822
      6          6           0        0.589598   -0.584906    0.031341
      7          1           0       -0.878342    1.066437    0.872992
      8          1           0       -0.434439    1.046418   -0.947826
      9          6           0        2.037121    0.112731   -0.010498
     10          1           0        0.259180   -1.071345   -0.670914
     11          1           0        0.432163   -1.188985    0.969739
     12          1           0        1.966329    0.513072   -0.603353
     13          1           0        2.845243   -0.632171   -0.592399
     14          1           0        2.700108    1.343256    1.160762
 ---------------------------------------------------------------------

 SCF Done:  E(RB2PLYPD3) =  -157.428155370     A.U. after   12 cycles
 E2(B2PLYPD3) =    -0.2549322417D+00 E(B2PLYPD3) =    -0.15768308761126D+03

 The electronic state is 1-A.
 Alpha  occ. eigenvalues --  -10.63870 -10.61336 -10.60614 -10.59121  -0.94543
 Alpha  occ. eigenvalues --   -0.88339  -0.78086  -0.70241  -0.57121  -0.51799
 Alpha  occ. eigenvalues --   -0.47740  -0.46687  -0.41817  -0.41014  -0.38367
 Alpha  occ. eigenvalues --   -0.35818  -0.33531
 Alpha virt. eigenvalues --   -0.00926   0.05032   0.07063   0.08032   0.09494
 Alpha virt. eigenvalues --    0.10334   0.11064   0.12830   0.13918   0.15314
 Alpha virt. eigenvalues --    0.16052   0.16638   0.18495   0.19054   0.20738

 Mulliken charges:
               1
     1  C   -0.576716
     2  C   -0.000765
     3  H    0.054096
     4  H    0.037206
     5  H    0.402682
     6  C   -0.092753
     7  H    0.038134
     8  H    0.041076
     9  C   -0.572902
    10  H    0.121583
    11  H    0.038660
    12  H    0.441387
    13  H    0.054056
    14  H    0.014257
 Sum of Mulliken charges =   0.00000

 Dipole moment (field-independent basis, Debye):
    X=             -0.6209    Y=             -0.0902    Z=             -1.1964  Tot=              1.3510
 Quadrupole moment (field-independent basis, Debye-Ang):
   XX=            -30.9679   YY=            -29.5566   ZZ=            -27.9332
   XY=             -0.0295   XZ=             -1.1457   YZ=             -0.0090

 Normal termination of Gaussian 09 at Wed Aug 26 15:03:37 2020.
