 Gaussian 09, Revision D.01,
 Gaussian 09:  ES64L-G09RevD.01 24-Apr-2013

 --------------------
 #p B2PLYPD3/Def2QZVP
 --------------------

 ----------
 butane_opt
 ----------
 Symbolic Z-matrix:
 Charge =  0 Multiplicity = 1

                         Standard orientation:
 ---------------------------------------------------------------------
 Center     Atomic      Atomic             Coordinates (Angstroms)
 Number     Number       Type             X           Y           Z
 ---------------------------------------------------------------------
      1          6           0       -1.938939    0.156712   -0.073850
      2          6           0       -0.520896   -0.527547    0.082862
      3          1           0       -2.609075   -0.508289    0.490765
      4          1           0       -2.430689    1.009211   -1.114368
      5          1           0       -2.074226    0.491734    0.501505
      6          6           0        0.579446    0.373290   -0.005392
      7          1           0       -0.329028   -1.142180   -0.728285
      8          1           0       -0.397029   -1.140080    1.072743
      9          6           0        1.883854   -0.118564   -0.112167
     10          1           0        0.480769    1.481221    1.105580
     11          1           0        0.681810    0.864329   -0.834064
     12          1           0        1.740987   -0.375048    0.660030
     13          1           0        2.938167    0.890522    0.381707
     14          1           0        1.977525   -0.874766   -0.884330
 ---------------------------------------------------------------------

 SCF Done:  E(RB2PLYPD3) =  -157.473280468     A.U. after   12 cycles
 E2(B2PLYPD3) =    -0.2558818299D+00 E(B2PLYPD3) =    -0.15772916229787D+03

 The electronic state is 1-A.
 Alpha  occ. eigenvalues --  -10.62621 -10.61983 -10.60065 -10.59981  -0.98061
 Alpha  occ. eigenvalues --   -0.90724  -0.79310  -0.67514  -0.58036  -0.51344
 Alpha  occ. eigenvalues --   -0.49614  -0.48649  -0.41575  -0.41028  -0.38328
 Alpha  occ. eigenvalues --   -0.33716  -0.32999
 Alpha virt. eigenvalues --    0.02313   0.04607   0.06120   0.06899   0.09139
 Alpha virt. eigenvalues --    0.11098   0.11751   0.12399   0.14097   0.14965
 Alpha virt. eigenvalues --    0.16139   0.16656   0.17845   0.19134   0.21235

 Mulliken charges:
               1
     1  C   -0.623245
     2  C    0.007578
     3  H    0.031471
     4  H    0.068786
     5  H    0.486400
     6  C   -0.036668
     7  H    0.052515
     8  H    0.024051
     9  C   -0.377362
    10  H   -0.060717
    11  H    0.081557
    12  H    0.234986
    13  H    0.031978
    14  H    0.078670
 Sum of Mulliken charges =   0.00000

 Dipole moment (field-independent basis, Debye):
    X=             -0.4439    Y=             -0.6407    Z=             -0.0073  Tot=              0.7795
 Quadrupole moment (field-independent basis, Debye-Ang):
   XX=            -31.1283   YY=            -30.1740   ZZ=            -27.9939
   XY=             -1.2624   XZ=             -1.3938   YZ=             -0.4524

 Normal termination of Gaussian 09 at Wed Aug 26 18:37:39 2020.
