 Gaussian 09, Revision D.01,
 Gaussian 09:  ES64L-G09RevD.01 24-Apr-2013

 --------------------
 #p B2PLYPD3/Def2QZVP
 --------------------

 ----------
 butane_opt
 ----------
 Symbolic Z-matrix:
 Charge =  0 Multiplicity = 1

                         Standard orientation:
 ---------------------------------------------------------------------
 Center     Atomic      Atomic             Coordinates (Angstroms)
 Number     Number       Type             X           Y           Z
 ---------------------------------------------------------------------
      1          6           0       -1.984948   -0.188250   -0.032173
      2          6           0       -0.485514    0.640064    0.086123
      3          1           0       -2.646585    0.455780   -0.780578
      4          1           0       -2.721181   -1.272818    1.176807
      5          1           0       -2.025752   -0.267913   -0.594299
      6          6           0        0.571785   -0.500186    0.017677
      7          1           0       -0.515787    1.368706    0.873099
      8          1           0       -0.511979    1.302538   -0.734262
      9          6           0        1.975357    0.025960    0.071070
     10          1           0        0.398288   -1.297550   -0.958916
     11          1           0        0.554040   -0.689989    0.637534
     12          1           0        1.923790    0.668332   -0.991454
     13          1           0        2.839180   -0.817725   -0.422889
     14          1           0        2.245905    0.685107    0.938774
 ---------------------------------------------------------------------

 SCF Done:  E(RB2PLYPD3) =  -156.914201056     A.U. after   13 cycles
 E2(B2PLYPD3) =    -0.2591467482D+00 E(B2PLYPD3) =    -0.15717334780431D+03

 The electronic state is 1-A.
 Alpha  occ. eigenvalues --  -10.64120 -10.63857 -10.62886 -10.59255  -0.95944
 Alpha  occ. eigenvalues --   -0.92215  -0.76451  -0.70971  -0.55860  -0.48908
 Alpha  occ. eigenvalues --   -0.47915  -0.44988  -0.41107  -0.40469  -0.36231
 Alpha  occ. eigenvalues --   -0.35300  -0.33934
 Alpha virt. eigenvalues --   -0.00370   0.04619   0.05909   0.07415   0.10166
 Alpha virt. eigenvalues --    0.10600   0.10763   0.12154   0.13763   0.15308
 Alpha virt. eigenvalues --    0.16095   0.17449   0.17947   0.18586   0.19611

 Mulliken charges:
               1
     1  C   -0.926116
     2  C    0.044816
     3  H    0.016668
     4  H    0.054256
     5  H    0.768005
     6  C   -0.723404
     7  H    0.041603
     8  H    0.032656
     9  C   -0.164569
    10  H    0.067430
    11  H    0.645907
    12  H    0.016259
    13  H    0.046514
    14  H    0.079976
 Sum of Mulliken charges =   0.00000

 Dipole moment (field-independent basis, Debye):
    X=              0.2525    Y=              0.0885    Z=             -0.4313  Tot=              0.5076
 Quadrupole moment (field-independent basis, Debye-Ang):
   XX=            -32.5423   YY=            -29.1619   ZZ=            -26.9823
   XY=              0.4716   XZ=              1.6696   YZ=              0.1636

 Normal termination of Gaussian 09 at Wed Aug 26 10:44:55 2020.
