 Gaussian 09, Revision D.01,
 Gaussian 09:  ES64L-G09RevD.01 24-Apr-2013

 --------------------
 #p B2PLYPD3/Def2QZVP
 --------------------

 ----------
 butane_opt
 ----------
 Symbolic Z-matrix:
 Charge =  0 Multiplicity = 1

                         Standard orientation:
 ---------------------------------------------------------------------
 Center     Atomic      Atomic             Coordinates (Angstroms)
 Number     Number       Type             X           Y           Z
 ---------------------------------------------------------------------
      1          6           0        2.003636    0.088941    0.002535
      2          6           0        0.562445   -0.469042    0.021441
      3          1           0        2.718097   -0.666886   -0.424811
      4          1           0        2.271412    0.982769    1.039961
      5          1           0        1.811365    0.445631   -0.633961
      6          6           0       -0.568001    0.523540   -0.018907
      7          1           0        0.624288   -1.225599    0.879678
      8          1           0        0.387095   -1.121135   -0.827617
      9          6           0       -1.967193   -0.127674    0.012180
     10          1           0       -0.448590    1.386349   -1.048308
     11          1           0       -0.491717    1.099855    0.791184
     12          1           0       -2.102273   -0.744597   -0.793428
     13          1           0       -2.681520    0.514705   -0.041253
     14          1           0       -2.273485   -0.765682    0.955067
 ---------------------------------------------------------------------

 SCF Done:  E(RB2PLYPD3) =  -157.859187414     A.U. after   11 cycles
 E2(B2PLYPD3) =    -0.2490024064D+00 E(B2PLYPD3) =    -0.15810818982073D+03

 The electronic state is 1-A.
 Alpha  occ. eigenvalues --  -10.62533 -10.61127 -10.59116 -10.58952  -0.92831
 Alpha  occ. eigenvalues --   -0.85980  -0.75401  -0.66858  -0.54112  -0.50036
 Alpha  occ. eigenvalues --   -0.49105  -0.46913  -0.42718  -0.41659  -0.38962
 Alpha  occ. eigenvalues --   -0.37901  -0.35335
 Alpha virt. eigenvalues --    0.05364   0.06380   0.07035   0.08207   0.10548
 Alpha virt. eigenvalues --    0.11782   0.12673   0.13067   0.14314   0.15336
 Alpha virt. eigenvalues --    0.16013   0.16627   0.19012   0.19995   0.21250

 Mulliken charges:
               1
     1  C   -0.524310
     2  C   -0.008251
     3  H    0.063387
     4  H    0.040756
     5  H    0.387292
     6  C   -0.056261
     7  H    0.020175
     8  H    0.023502
     9  C   -0.119665
    10  H   -0.010997
    11  H    0.061600
    12  H    0.041764
    13  H    0.054164
    14  H    0.026844
 Sum of Mulliken charges =   0.00000

 Dipole moment (field-independent basis, Debye):
    X=             -0.3997    Y=             -0.0463    Z=             -0.2453  Tot=              0.4712
 Quadrupole moment (field-independent basis, Debye-Ang):
   XX=            -29.4256   YY=            -29.0338   ZZ=            -28.3003
   XY=             -0.5680   XZ=             -0.6074   YZ=              0.7952

 Normal termination of Gaussian 09 at Wed Aug 26 11:16:32 2020.
