 Gaussian 09, Revision D.01,
 Gaussian 09:  ES64L-G09RevD.01 24-Apr-2013

 --------------------
 #p B2PLYPD3/Def2QZVP
 --------------------

 ----------
 butane_opt
 ----------
 Symbolic Z-matrix:
 Charge =  0 Multiplicity = 1

                         Standard orientation:
 ---------------------------------------------------------------------
 Center     Atomic      Atomic             Coordinates (Angstroms)
 Number     Number       Type             X           Y           Z
 ---------------------------------------------------------------------
      1          6           0        1.933710   -0.174705   -0.142720
      2          6           0        0.505206    0.585145    0.036843
      3          1           0        2.669313    0.685087    0.117354
      4          1           0        2.454285   -1.150602   -1.112864
      5          1           0        2.085015   -0.443773    0.653743
      6          6           0       -0.616584   -0.456328    0.307064
      7          1           0       -0.009908    0.916612   -0.673198
      8          1           0        0.550113    1.446636    0.876660
      9          6           0       -1.847430    0.074966   -0.154862
     10          1           0       -0.656479   -1.296880    1.399254
     11          1           0       -0.415260   -0.813745   -0.329517
     12          1           0       -2.326758    0.773009    0.480731
     13          1           0       -2.541508   -0.743659   -0.710241
     14          1           0       -1.658227    0.452843   -0.979867
 ---------------------------------------------------------------------

 SCF Done:  E(RB2PLYPD3) =  -157.699356965     A.U. after   11 cycles
 E2(B2PLYPD3) =    -0.2518507415D+00 E(B2PLYPD3) =    -0.15795120770660D+03

 The electronic state is 1-A.
 Alpha  occ. eigenvalues --  -10.62270 -10.62012 -10.58472 -10.58362  -0.97464
 Alpha  occ. eigenvalues --   -0.85191  -0.76240  -0.70263  -0.56246  -0.49748
 Alpha  occ. eigenvalues --   -0.47848  -0.47131  -0.41881  -0.41377  -0.39521
 Alpha  occ. eigenvalues --   -0.38248  -0.34559
 Alpha virt. eigenvalues --    0.04470   0.05633   0.07448   0.07758   0.10540
 Alpha virt. eigenvalues --    0.11629   0.12413   0.13934   0.14342   0.15007
 Alpha virt. eigenvalues --    0.16144   0.16507   0.18596   0.19026   0.19964

 Mulliken charges:
               1
     1  C   -0.304840
     2  C   -0.057990
     3  H    0.026929
     4  H    0.056294
     5  H    0.193278
     6  C   -0.512270
     7  H    0.090337
     8  H    0.017124
     9  C   -0.170299
    10  H    0.018169
    11  H    0.480348
    12  H    0.054483
    13  H    0.024870
    14  H    0.083566
 Sum of Mulliken charges =   0.00000

 Dipole moment (field-independent basis, Debye):
    X=              0.0496    Y=              0.2024    Z=             -0.2236  Tot=              0.3056
 Quadrupole moment (field-independent basis, Debye-Ang):
   XX=            -30.0276   YY=            -29.0694   ZZ=            -28.1989
   XY=             -1.0569   XZ=              1.5284   YZ=              1.2319

 Normal termination of Gaussian 09 at Wed Aug 26 21:29:43 2020.
