 Gaussian 09, Revision D.01,
 Gaussian 09:  ES64L-G09RevD.01 24-Apr-2013

 --------------------
 #p B2PLYPD3/Def2QZVP
 --------------------

 ----------
 butane_opt
 ----------
 Symbolic Z-matrix:
 Charge =  0 Multiplicity = 1

                         Standard orientation:
 ---------------------------------------------------------------------
 Center     Atomic      Atomic             Coordinates (Angstroms)
 Number     Number       Type             X           Y           Z
 ---------------------------------------------------------------------
      1          6           0       -1.940463   -0.187257   -0.173191
      2          6           0       -0.490178    0.604413    0.043211
      3          1           0       -2.547874    0.242824   -0.174620
      4          1           0       -1.957161   -0.257592    0.694950
      5          1           0       -2.164029   -1.068566   -0.912289
      6          6           0        0.588482   -0.362579    0.418515
      7          1           0       -0.662113    1.341476    0.732931
      8          1           0        0.002522    1.010437   -0.923575
      9          6           0        1.890802    0.032084   -0.220464
     10          1           0        0.248720   -1.067795   -0.146484
     11          1           0        0.342445   -0.906295    1.490701
     12          1           0        1.374071    0.281970   -1.088242
     13          1           0        2.707335   -1.113610   -0.648985
     14          1           0        2.364227    1.017185    0.567186
 ---------------------------------------------------------------------

 SCF Done:  E(RB2PLYPD3) =  -157.721583564     A.U. after   11 cycles
 E2(B2PLYPD3) =    -0.2536121199D+00 E(B2PLYPD3) =    -0.15797519568364D+03

 The electronic state is 1-A.
 Alpha  occ. eigenvalues --  -10.65694 -10.61900 -10.60072 -10.55463  -0.94490
 Alpha  occ. eigenvalues --   -0.88197  -0.74699  -0.67096  -0.55589  -0.52039
 Alpha  occ. eigenvalues --   -0.48417  -0.46672  -0.42812  -0.41374  -0.38019
 Alpha  occ. eigenvalues --   -0.36216  -0.35326
 Alpha virt. eigenvalues --    0.03826   0.06359   0.07858   0.08130   0.09834
 Alpha virt. eigenvalues --    0.11013   0.12231   0.14225   0.14541   0.15225
 Alpha virt. eigenvalues --    0.15694   0.16656   0.18809   0.19056   0.20667

 Mulliken charges:
               1
     1  C   -0.479240
     2  C   -0.038604
     3  H    0.286232
     4  H    0.103547
     5  H    0.055844
     6  C   -0.069895
     7  H    0.049494
     8  H    0.020049
     9  C   -0.190674
    10  H    0.090774
    11  H    0.013092
    12  H    0.089044
    13  H    0.021764
    14  H    0.048570
 Sum of Mulliken charges =   0.00000

 Dipole moment (field-independent basis, Debye):
    X=             -0.8764    Y=              0.0791    Z=              0.0625  Tot=              0.8822
 Quadrupole moment (field-independent basis, Debye-Ang):
   XX=            -30.5348   YY=            -29.1743   ZZ=            -28.4369
   XY=              0.0239   XZ=             -0.4637   YZ=              1.6095

 Normal termination of Gaussian 09 at Wed Aug 26 23:56:48 2020.
