 Gaussian 09, Revision D.01,
 Gaussian 09:  ES64L-G09RevD.01 24-Apr-2013

 --------------------
 #p B2PLYPD3/Def2QZVP
 --------------------

 ----------
 butane_opt
 ----------
 Symbolic Z-matrix:
 Charge =  0 Multiplicity = 1

                         Standard orientation:
 ---------------------------------------------------------------------
 Center     Atomic      Atomic             Coordinates (Angstroms)
 Number     Number       Type             X           Y           Z
 ---------------------------------------------------------------------
      1          6           0       -1.939694   -0.179107    0.196790
      2          6           0       -0.554209    0.550968   -0.267906
      3          1           0       -2.631381    0.363117    0.712157
      4          1           0       -1.381471   -0.606397    0.780455
      5          1           0       -2.666317   -0.804153   -0.707895
      6          6           0        0.552898   -0.384781   -0.241090
      7          1           0       -0.385927    0.916951    0.667367
      8          1           0       -0.466504    1.292655   -1.109841
      9          6           0        1.867519    0.091509    0.209059
     10          1           0        0.909807   -0.891853   -1.025620
     11          1           0        0.293654   -1.123181    0.572584
     12          1           0        1.985534    0.569208   -0.467609
     13          1           0        2.785703   -0.868526   -0.047453
     14          1           0        1.997822    0.680640    1.244739
 ---------------------------------------------------------------------

 SCF Done:  E(RB2PLYPD3) =  -157.880363747     A.U. after   11 cycles
 E2(B2PLYPD3) =    -0.2504073293D+00 E(B2PLYPD3) =    -0.15813077107610D+03

 The electronic state is 1-A.
 Alpha  occ. eigenvalues --  -10.61151 -10.60302 -10.60102 -10.59173  -0.95544
 Alpha  occ. eigenvalues --   -0.86421  -0.74568  -0.67229  -0.57924  -0.51952
 Alpha  occ. eigenvalues --   -0.49031  -0.47934  -0.42242  -0.41343  -0.38836
 Alpha  occ. eigenvalues --   -0.37531  -0.34654
 Alpha virt. eigenvalues --    0.05171   0.06396   0.08251   0.08634   0.10540
 Alpha virt. eigenvalues --    0.11173   0.12674   0.12936   0.14819   0.15271
 Alpha virt. eigenvalues --    0.16058   0.17168   0.17465   0.19696   0.21607

 Mulliken charges:
               1
     1  C   -0.183691
     2  C   -0.135296
     3  H    0.053701
     4  H    0.121333
     5  H    0.024694
     6  C   -0.012532
     7  H    0.081595
     8  H    0.038114
     9  C   -0.308697
    10  H    0.041366
    11  H    0.015911
    12  H    0.206310
    13  H    0.016476
    14  H    0.040716
 Sum of Mulliken charges =   0.00000

 Dipole moment (field-independent basis, Debye):
    X=              0.0327    Y=              0.4063    Z=              0.0220  Tot=              0.4082
 Quadrupole moment (field-independent basis, Debye-Ang):
   XX=            -30.2623   YY=            -29.9784   ZZ=            -27.7401
   XY=             -0.4531   XZ=             -1.1288   YZ=              0.3437

 Normal termination of Gaussian 09 at Wed Aug 26 13:14:11 2020.
