 Gaussian 09, Revision D.01,
 Gaussian 09:  ES64L-G09RevD.01 24-Apr-2013

 --------------------
 #p B2PLYPD3/Def2QZVP
 --------------------

 ----------
 butane_opt
 ----------
 Symbolic Z-matrix:
 Charge =  0 Multiplicity = 1

                         Standard orientation:
 ---------------------------------------------------------------------
 Center     Atomic      Atomic             Coordinates (Angstroms)
 Number     Number       Type             X           Y           Z
 ---------------------------------------------------------------------
      1          6           0        1.846274    0.075761   -0.166425
      2          6           0        0.640589   -0.470384    0.270834
      3          1           0        2.475427   -0.714065   -0.672324
      4          1           0        2.116965    0.888592    0.724542
      5          1           0        1.739296    0.379699   -0.858235
      6          6           0       -0.498706    0.594431    0.106186
      7          1           0        0.573867   -0.963737    1.331592
      8          1           0        0.338048   -1.080943   -0.456935
      9          6           0       -1.902419   -0.187950   -0.106495
     10          1           0       -0.085428    1.178258   -0.806930
     11          1           0       -0.614565    1.171003    0.806820
     12          1           0       -1.936363   -1.019629   -0.936108
     13          1           0       -2.709015    0.645004   -0.400728
     14          1           0       -2.412660   -0.555332    0.643702
 ---------------------------------------------------------------------

 SCF Done:  E(RB2PLYPD3) =  -157.865530170     A.U. after   11 cycles
 E2(B2PLYPD3) =    -0.2482927077D+00 E(B2PLYPD3) =    -0.15811382287772D+03

 The electronic state is 1-A.
 Alpha  occ. eigenvalues --  -10.61023 -10.60196 -10.58939 -10.57201  -0.94722
 Alpha  occ. eigenvalues --   -0.84636  -0.74659  -0.69274  -0.57025  -0.51998
 Alpha  occ. eigenvalues --   -0.48011  -0.47009  -0.42390  -0.41506  -0.40337
 Alpha  occ. eigenvalues --   -0.37837  -0.34326
 Alpha virt. eigenvalues --    0.05347   0.06728   0.08356   0.08424   0.11288
 Alpha virt. eigenvalues --    0.11610   0.12436   0.13183   0.14457   0.15058
 Alpha virt. eigenvalues --    0.16999   0.17432   0.18727   0.19581   0.21303

 Mulliken charges:
               1
     1  C   -0.429650
     2  C   -0.039214
     3  H    0.033290
     4  H    0.053893
     5  H    0.297603
     6  C   -0.059848
     7  H    0.025957
     8  H    0.060277
     9  C   -0.146301
    10  H    0.023633
    11  H    0.079798
    12  H    0.028770
    13  H    0.014664
    14  H    0.057130
 Sum of Mulliken charges =   0.00000

 Dipole moment (field-independent basis, Debye):
    X=             -0.1815    Y=              0.0558    Z=             -0.1014  Tot=              0.2152
 Quadrupole moment (field-independent basis, Debye-Ang):
   XX=            -30.8261   YY=            -28.8898   ZZ=            -27.5104
   XY=              0.3190   XZ=             -1.6918   YZ=              0.9373

 Normal termination of Gaussian 09 at Wed Aug 26 19:16:56 2020.
