 Gaussian 09, Revision D.01,
 Gaussian 09:  ES64L-G09RevD.01 24-Apr-2013

 --------------------
 #p B2PLYPD3/Def2QZVP
 --------------------

 ----------
 butane_opt
 ----------
 Symbolic Z-matrix:
 Charge =  0 Multiplicity = 1

                         Standard orientation:
 ---------------------------------------------------------------------
 Center     Atomic      Atomic             Coordinates (Angstroms)
 Number     Number       Type             X           Y           Z
 ---------------------------------------------------------------------
      1          6           0       -1.939486    0.121817   -0.153689
      2          6           0       -0.493827   -0.574978    0.289485
      3          1           0       -2.724006   -0.746648   -0.678662
      4          1           0       -1.521147    0.438230   -0.886583
      5          1           0       -2.789628    0.965923    0.796924
      6          6           0        0.572205    0.537607    0.062750
      7          1           0       -0.111787   -1.105750   -0.649260
      8          1           0       -0.698582   -1.065485    1.145009
      9          6           0        1.879593   -0.096566   -0.100509
     10          1           0        0.651016    1.271506    0.916691
     11          1           0        0.114527    1.240183   -0.943421
     12          1           0        2.056161   -0.561885    0.816178
     13          1           0        2.769288    0.608394   -0.092623
     14          1           0        2.143249   -0.971748   -1.012470
 ---------------------------------------------------------------------

 SCF Done:  E(RB2PLYPD3) =  -157.906167418     A.U. after   11 cycles
 E2(B2PLYPD3) =    -0.2549988739D+00 E(B2PLYPD3) =    -0.15816116629151D+03

 The electronic state is 1-A.
 Alpha  occ. eigenvalues --  -10.64082 -10.63632 -10.62212 -10.62091  -0.92120
 Alpha  occ. eigenvalues --   -0.83188  -0.71593  -0.66183  -0.56032  -0.49024
 Alpha  occ. eigenvalues --   -0.48279  -0.44055  -0.42423  -0.39818  -0.37581
 Alpha  occ. eigenvalues --   -0.36109  -0.35047
 Alpha virt. eigenvalues --    0.04262   0.05445   0.07706   0.07900   0.08545
 Alpha virt. eigenvalues --    0.10449   0.11891   0.13074   0.14226   0.14388
 Alpha virt. eigenvalues --    0.15859   0.16615   0.18224   0.18784   0.20725

 Mulliken charges:
               1
     1  C   -0.262786
     2  C   -0.075939
     3  H    0.021055
     4  H    0.152229
     5  H    0.039154
     6  C   -0.029459
     7  H    0.055598
     8  H    0.068174
     9  C   -0.143879
    10  H    0.041145
    11  H    0.009776
    12  H    0.064816
    13  H    0.038894
    14  H    0.021223
 Sum of Mulliken charges =   0.00000

 Dipole moment (field-independent basis, Debye):
    X=              0.6778    Y=             -0.1418    Z=              0.2928  Tot=              0.7518
 Quadrupole moment (field-independent basis, Debye-Ang):
   XX=            -30.9362   YY=            -30.2846   ZZ=            -28.5766
   XY=              0.1133   XZ=              0.0627   YZ=              0.4981

 Normal termination of Gaussian 09 at Wed Aug 26 14:50:28 2020.
