 Gaussian 09, Revision D.01,
 Gaussian 09:  ES64L-G09RevD.01 24-Apr-2013

 --------------------
 #p B2PLYPD3/Def2QZVP
 --------------------

 ----------
 butane_opt
 ----------
 Symbolic Z-matrix:
 Charge =  0 Multiplicity = 1

                         Standard orientation:
 ---------------------------------------------------------------------
 Center     Atomic      Atomic             Coordinates (Angstroms)
 Number     Number       Type             X           Y           Z
 ---------------------------------------------------------------------
      1          6           0        1.886934    0.071541   -0.180628
      2          6           0        0.628613   -0.358361    0.189036
      3          1           0        2.820489   -0.855050    0.037009
      4          1           0        2.107466    0.306244    0.407408
      5          1           0        1.494740    0.698312   -1.312796
      6          6           0       -0.546605    0.632528    0.204285
      7          1           0        0.418075   -0.987557    1.090212
      8          1           0        0.424880   -1.094985   -0.536929
      9          6           0       -1.964582   -0.195402   -0.157628
     10          1           0       -0.277220    0.909970   -0.472494
     11          1           0       -0.363588    1.591502    1.178534
     12          1           0       -1.522080   -0.737860   -0.914136
     13          1           0       -2.747450    0.336045   -0.767502
     14          1           0       -2.381468   -1.068455    0.960307
 ---------------------------------------------------------------------

 SCF Done:  E(RB2PLYPD3) =  -157.476996276     A.U. after   11 cycles
 E2(B2PLYPD3) =    -0.2556174080D+00 E(B2PLYPD3) =    -0.15773261368414D+03

 The electronic state is 1-A.
 Alpha  occ. eigenvalues --  -10.65075 -10.61381 -10.60572 -10.59367  -0.97031
 Alpha  occ. eigenvalues --   -0.87152  -0.75412  -0.69753  -0.57952  -0.49578
 Alpha  occ. eigenvalues --   -0.47028  -0.46874  -0.41597  -0.40107  -0.38343
 Alpha  occ. eigenvalues --   -0.36162  -0.34652
 Alpha virt. eigenvalues --    0.03728   0.04715   0.06525   0.07517   0.09741
 Alpha virt. eigenvalues --    0.10676   0.11738   0.12694   0.13872   0.14703
 Alpha virt. eigenvalues --    0.15733   0.16265   0.17489   0.18813   0.20698

 Mulliken charges:
               1
     1  C   -0.660771
     2  C    0.009473
     3  H    0.031693
     4  H    0.503577
     5  H    0.069460
     6  C   -0.402087
     7  H    0.011883
     8  H    0.044462
     9  C   -0.177867
    10  H    0.361503
    11  H    0.022204
    12  H    0.087788
    13  H    0.064597
    14  H    0.034086
 Sum of Mulliken charges =   0.00000

 Dipole moment (field-independent basis, Debye):
    X=              0.0930    Y=             -0.0279    Z=             -0.4402  Tot=              0.4508
 Quadrupole moment (field-independent basis, Debye-Ang):
   XX=            -30.8389   YY=            -30.2623   ZZ=            -28.1001
   XY=             -0.0175   XZ=              2.2121   YZ=             -0.6068

 Normal termination of Gaussian 09 at Wed Aug 26 10:57:15 2020.
