 Gaussian 09, Revision D.01,
 Gaussian 09:  ES64L-G09RevD.01 24-Apr-2013

 --------------------
 #p B2PLYPD3/Def2QZVP
 --------------------

 ----------
 butane_opt
 ----------
 Symbolic Z-matrix:
 Charge =  0 Multiplicity = 1

                         Standard orientation:
 ---------------------------------------------------------------------
 Center     Atomic      Atomic             Coordinates (Angstroms)
 Number     Number       Type             X           Y           Z
 ---------------------------------------------------------------------
      1          6           0       -1.834810   -0.057076   -0.207282
      2          6           0       -0.565499    0.353222    0.259952
      3          1           0       -2.714121    1.024628   -0.693646
      4          1           0       -2.527571   -0.942517    0.525121
      5          1           0       -1.389437   -0.073329   -0.865118
      6          6           0        0.438955   -0.582811    0.073822
      7          1           0       -0.562635    1.410014    1.757722
      8          1           0       -0.457077    0.679735   -0.199308
      9          6           0        1.918297    0.132893   -0.098306
     10          1           0        0.244062   -1.095268   -0.894396
     11          1           0        0.499105   -1.512828    0.930729
     12          1           0        2.135638    1.323351   -1.082982
     13          1           0        2.657748   -0.300659   -0.325344
     14          1           0        2.372634    0.409505    0.678105
 ---------------------------------------------------------------------

 SCF Done:  E(RB2PLYPD3) =  -157.042249056     A.U. after   12 cycles
 E2(B2PLYPD3) =    -0.2588519435D+00 E(B2PLYPD3) =    -0.15730110099967D+03

 The electronic state is 1-A.
 Alpha  occ. eigenvalues --  -10.66037 -10.63881 -10.63447 -10.61757  -1.06536
 Alpha  occ. eigenvalues --   -0.87404  -0.79400  -0.71974  -0.57578  -0.51268
 Alpha  occ. eigenvalues --   -0.50444  -0.47570  -0.43664  -0.42416  -0.37590
 Alpha  occ. eigenvalues --   -0.36241  -0.30874
 Alpha virt. eigenvalues --    0.00613   0.03730   0.04370   0.06648   0.08163
 Alpha virt. eigenvalues --    0.10412   0.11135   0.12333   0.13501   0.14810
 Alpha virt. eigenvalues --    0.15794   0.16754   0.17330   0.19514   0.20745

 Mulliken charges:
               1
     1  C   -0.365325
     2  C   -0.880293
     3  H    0.020760
     4  H    0.086966
     5  H    0.313891
     6  C    0.044138
     7  H   -0.074933
     8  H    0.809908
     9  C   -0.182689
    10  H    0.050230
    11  H    0.031608
    12  H   -0.020539
    13  H    0.094831
    14  H    0.071448
 Sum of Mulliken charges =   0.00000

 Dipole moment (field-independent basis, Debye):
    X=              0.4856    Y=             -1.3776    Z=             -0.7659  Tot=              1.6493
 Quadrupole moment (field-independent basis, Debye-Ang):
   XX=            -28.3815   YY=            -30.8317   ZZ=            -30.5422
   XY=             -0.0544   XZ=              0.9025   YZ=             -1.9132

 Normal termination of Gaussian 09 at Wed Aug 26 13:48:07 2020.
