 Gaussian 09, Revision D.01,
 Gaussian 09:  ES64L-G09RevD.01 24-Apr-2013

 --------------------
 #p B2PLYPD3/Def2QZVP
 --------------------

 ----------
 butane_opt
 ----------
 Symbolic Z-matrix:
 Charge =  0 Multiplicity = 1

                         Standard orientation:
 ---------------------------------------------------------------------
 Center     Atomic      Atomic             Coordinates (Angstroms)
 Number     Number       Type             X           Y           Z
 ---------------------------------------------------------------------
      1          6           0       -1.966614   -0.099838    0.057698
      2          6           0       -0.576096    0.486310   -0.047458
      3          1           0       -2.774254    0.693404   -0.110186
      4          1           0       -2.111536   -0.834148    0.994674
      5          1           0       -2.096664   -0.664186   -0.782480
      6          6           0        0.560275   -0.541597   -0.022008
      7          1           0       -0.477927    1.088679    0.782269
      8          1           0       -0.424061    1.215764   -1.023982
      9          6           0        1.985523    0.122480    0.033772
     10          1           0        0.452749   -1.201581   -0.940708
     11          1           0        0.471367   -1.085560    0.773667
     12          1           0        2.093314    0.630047   -0.752639
     13          1           0        2.715033   -0.596941   -0.102594
     14          1           0        2.133455    0.950396    1.029951
 ---------------------------------------------------------------------

 SCF Done:  E(RB2PLYPD3) =  -158.044556167     A.U. after   11 cycles
 E2(B2PLYPD3) =    -0.2469645132D+00 E(B2PLYPD3) =    -0.15829152068038D+03

 The electronic state is 1-A.
 Alpha  occ. eigenvalues --  -10.60907 -10.60613 -10.59892 -10.59741  -0.91120
 Alpha  occ. eigenvalues --   -0.83563  -0.73823  -0.66923  -0.54216  -0.49207
 Alpha  occ. eigenvalues --   -0.48519  -0.46602  -0.43457  -0.40633  -0.38564
 Alpha  occ. eigenvalues --   -0.37860  -0.37747
 Alpha virt. eigenvalues --    0.05719   0.06522   0.08205   0.08418   0.10741
 Alpha virt. eigenvalues --    0.12117   0.12626   0.13508   0.14661   0.15063
 Alpha virt. eigenvalues --    0.15821   0.16152   0.19615   0.19906   0.21992

 Mulliken charges:
               1
     1  C   -0.146480
     2  C   -0.042183
     3  H    0.043086
     4  H    0.036077
     5  H    0.049684
     6  C   -0.053435
     7  H    0.052485
     8  H    0.002038
     9  C   -0.159876
    10  H    0.015517
    11  H    0.064188
    12  H    0.068795
    13  H    0.047355
    14  H    0.022747
 Sum of Mulliken charges =   0.00000

 Dipole moment (field-independent basis, Debye):
    X=              0.0272    Y=             -0.1750    Z=             -0.2142  Tot=              0.2779
 Quadrupole moment (field-independent basis, Debye-Ang):
   XX=            -29.7767   YY=            -28.9652   ZZ=            -28.1883
   XY=             -0.3715   XZ=             -0.3837   YZ=             -0.0475

 Normal termination of Gaussian 09 at Wed Aug 26 14:01:00 2020.
