 Gaussian 09, Revision D.01,
 Gaussian 09:  ES64L-G09RevD.01 24-Apr-2013

 --------------------
 #p B2PLYPD3/Def2QZVP
 --------------------

 ----------
 butane_opt
 ----------
 Symbolic Z-matrix:
 Charge =  0 Multiplicity = 1

                         Standard orientation:
 ---------------------------------------------------------------------
 Center     Atomic      Atomic             Coordinates (Angstroms)
 Number     Number       Type             X           Y           Z
 ---------------------------------------------------------------------
      1          6           0       -1.876868   -0.076462   -0.145590
      2          6           0       -0.581239    0.436825    0.102666
      3          1           0       -2.645894    0.748237    0.047475
      4          1           0       -1.928955   -0.575093    0.582688
      5          1           0       -2.069746   -0.869528   -1.200024
      6          6           0        0.521653   -0.543887    0.239648
      7          1           0       -0.441295    1.345920    0.990518
      8          1           0       -0.518187    0.932755   -0.619394
      9          6           0        1.995414    0.077804   -0.188979
     10          1           0        0.204880   -0.784743   -0.259654
     11          1           0        0.220480   -1.215843    1.295989
     12          1           0        1.470157    0.670382   -1.032585
     13          1           0        2.676742   -0.609612   -0.594445
     14          1           0        2.678059    0.991850    0.742959
 ---------------------------------------------------------------------

 SCF Done:  E(RB2PLYPD3) =  -157.490252049     A.U. after   11 cycles
 E2(B2PLYPD3) =    -0.2530178799D+00 E(B2PLYPD3) =    -0.15774326992917D+03

 The electronic state is 1-A.
 Alpha  occ. eigenvalues --  -10.65488 -10.60068 -10.59676 -10.59149  -0.99211
 Alpha  occ. eigenvalues --   -0.85910  -0.75194  -0.70766  -0.55707  -0.50905
 Alpha  occ. eigenvalues --   -0.49149  -0.45816  -0.42554  -0.41053  -0.38902
 Alpha  occ. eigenvalues --   -0.36990  -0.34580
 Alpha virt. eigenvalues --    0.04509   0.05731   0.06958   0.08102   0.10218
 Alpha virt. eigenvalues --    0.10982   0.12755   0.13229   0.14771   0.15303
 Alpha virt. eigenvalues --    0.15583   0.15779   0.17955   0.19947   0.20646

 Mulliken charges:
               1
     1  C   -0.245838
     2  C   -0.085364
     3  H    0.060897
     4  H    0.139951
     5  H    0.031430
     6  C   -0.761521
     7  H   -0.001948
     8  H    0.126032
     9  C   -0.167886
    10  H    0.689402
    11  H    0.042263
    12  H    0.057956
    13  H    0.080823
    14  H    0.033804
 Sum of Mulliken charges =   0.00000

 Dipole moment (field-independent basis, Debye):
    X=             -0.2891    Y=             -0.0668    Z=             -0.4961  Tot=              0.5780
 Quadrupole moment (field-independent basis, Debye-Ang):
   XX=            -29.3203   YY=            -29.6128   ZZ=            -28.6611
   XY=             -0.4814   XZ=             -0.5480   YZ=              0.4392

 Normal termination of Gaussian 09 at Wed Aug 26 12:24:22 2020.
