 Gaussian 09, Revision D.01,
 Gaussian 09:  ES64L-G09RevD.01 24-Apr-2013

 --------------------
 #p B2PLYPD3/Def2QZVP
 --------------------

 ----------
 butane_opt
 ----------
 Symbolic Z-matrix:
 Charge =  0 Multiplicity = 1

                         Standard orientation:
 ---------------------------------------------------------------------
 Center     Atomic      Atomic             Coordinates (Angstroms)
 Number     Number       Type             X           Y           Z
 ---------------------------------------------------------------------
      1          6           0       -1.949886   -0.159032   -0.183733
      2          6           0       -0.574459    0.547132    0.150511
      3          1           0       -2.754387    0.563061   -0.612610
      4          1           0       -2.790000   -0.869787    0.754448
      5          1           0       -1.691148   -0.581981   -0.835385
      6          6           0        0.633284   -0.520587    0.163097
      7          1           0       -0.685176    1.750588    1.324888
      8          1           0       -0.364790    0.733443   -0.464389
      9          6           0        2.015027    0.149855   -0.125269
     10          1           0        0.373958   -1.174132   -0.746979
     11          1           0        0.411141   -1.259926    1.280427
     12          1           0        1.797906    0.999199   -1.142885
     13          1           0        2.791395   -0.748610   -0.134919
     14          1           0        2.167298    0.483936    0.549769
 ---------------------------------------------------------------------

 SCF Done:  E(RB2PLYPD3) =  -157.409192177     A.U. after   12 cycles
 E2(B2PLYPD3) =    -0.2560111111D+00 E(B2PLYPD3) =    -0.15766520328796D+03

 The electronic state is 1-A.
 Alpha  occ. eigenvalues --  -10.65558 -10.63004 -10.62052 -10.61520  -0.95196
 Alpha  occ. eigenvalues --   -0.86887  -0.77418  -0.67949  -0.53634  -0.50909
 Alpha  occ. eigenvalues --   -0.48339  -0.46287  -0.42797  -0.40091  -0.38807
 Alpha  occ. eigenvalues --   -0.35278  -0.34491
 Alpha virt. eigenvalues --    0.02685   0.05074   0.05650   0.07039   0.09377
 Alpha virt. eigenvalues --    0.10595   0.11097   0.12638   0.13707   0.15038
 Alpha virt. eigenvalues --    0.15525   0.15603   0.17258   0.19180   0.20575

 Mulliken charges:
               1
     1  C   -0.293267
     2  C   -0.718736
     3  H    0.043573
     4  H    0.031476
     5  H    0.239071
     6  C   -0.051295
     7  H   -0.008289
     8  H    0.665604
     9  C   -0.404957
    10  H    0.044168
    11  H    0.030692
    12  H    0.047771
    13  H    0.059754
    14  H    0.314437
 Sum of Mulliken charges =   0.00000

 Dipole moment (field-independent basis, Debye):
    X=              0.3302    Y=             -0.2008    Z=             -0.7969  Tot=              0.8856
 Quadrupole moment (field-independent basis, Debye-Ang):
   XX=            -29.3695   YY=            -30.5370   ZZ=            -28.8917
   XY=             -0.1614   XZ=              1.0790   YZ=             -0.3982

 Normal termination of Gaussian 09 at Wed Aug 26 21:55:40 2020.
