 Gaussian 09, Revision D.01,
 Gaussian 09:  ES64L-G09RevD.01 24-Apr-2013

 --------------------
 #p B2PLYPD3/Def2QZVP
 --------------------

 ----------
 butane_opt
 ----------
 Symbolic Z-matrix:
 Charge =  0 Multiplicity = 1

                         Standard orientation:
 ---------------------------------------------------------------------
 Center     Atomic      Atomic             Coordinates (Angstroms)
 Number     Number       Type             X           Y           Z
 ---------------------------------------------------------------------
      1          6           0       -1.983313    0.009096   -0.174117
      2          6           0       -0.627548   -0.387950    0.390688
      3          1           0       -2.764512   -0.935248   -0.642168
      4          1           0       -1.476157    0.313839   -1.250588
      5          1           0       -2.688646    0.774429    0.580767
      6          6           0        0.516113    0.630642    0.027935
      7          1           0       -0.508764   -0.959491   -0.152272
      8          1           0       -0.364452   -0.863641    1.385309
      9          6           0        1.974851   -0.198945   -0.179104
     10          1           0        0.542642    1.473674    0.775636
     11          1           0        0.327296    1.143762   -0.856884
     12          1           0        2.654354   -0.451526    0.695554
     13          1           0        2.650927    0.463299   -0.023585
     14          1           0        2.346691   -1.276155   -0.904181
 ---------------------------------------------------------------------

 SCF Done:  E(RB2PLYPD3) =  -157.813682243     A.U. after   11 cycles
 E2(B2PLYPD3) =    -0.2543712945D+00 E(B2PLYPD3) =    -0.15806805353742D+03

 The electronic state is 1-A.
 Alpha  occ. eigenvalues --  -10.65887 -10.63188 -10.62274 -10.58098  -0.92387
 Alpha  occ. eigenvalues --   -0.83423  -0.73879  -0.68280  -0.54320  -0.48399
 Alpha  occ. eigenvalues --   -0.47084  -0.44842  -0.42341  -0.40597  -0.39088
 Alpha  occ. eigenvalues --   -0.35281  -0.33473
 Alpha virt. eigenvalues --    0.04849   0.05104   0.07856   0.08623   0.09773
 Alpha virt. eigenvalues --    0.10331   0.11227   0.13420   0.14158   0.14971
 Alpha virt. eigenvalues --    0.15980   0.16216   0.18642   0.18996   0.20534

 Mulliken charges:
               1
     1  C   -0.165563
     2  C   -0.349485
     3  H    0.030824
     4  H    0.046515
     5  H    0.050926
     6  C   -0.008503
     7  H    0.328028
     8  H    0.051263
     9  C   -0.236153
    10  H    0.024204
    11  H    0.057516
    12  H    0.030010
    13  H    0.086252
    14  H    0.054165
 Sum of Mulliken charges =   0.00000

 Dipole moment (field-independent basis, Debye):
    X=              0.5311    Y=              0.0870    Z=              0.1383  Tot=              0.5556
 Quadrupole moment (field-independent basis, Debye-Ang):
   XX=            -29.1406   YY=            -29.0146   ZZ=            -29.5867
   XY=              0.1073   XZ=              0.8907   YZ=              1.3775

 Normal termination of Gaussian 09 at Wed Aug 26 14:51:28 2020.
