 Gaussian 09, Revision D.01,
 Gaussian 09:  ES64L-G09RevD.01 24-Apr-2013

 --------------------
 #p B2PLYPD3/Def2QZVP
 --------------------

 ----------
 butane_opt
 ----------
 Symbolic Z-matrix:
 Charge =  0 Multiplicity = 1

                         Standard orientation:
 ---------------------------------------------------------------------
 Center     Atomic      Atomic             Coordinates (Angstroms)
 Number     Number       Type             X           Y           Z
 ---------------------------------------------------------------------
      1          6           0        1.838710   -0.014859   -0.185994
      2          6           0        0.581097   -0.430949    0.160829
      3          1           0        2.580547   -0.825096   -0.146148
      4          1           0        2.127170    0.856729    0.722740
      5          1           0        2.011746    0.727367   -1.100161
      6          6           0       -0.509357    0.606673    0.051448
      7          1           0        0.754773   -1.274115    1.440159
      8          1           0        0.559602   -0.817339   -0.402923
      9          6           0       -2.004549   -0.133199   -0.072743
     10          1           0       -0.276260    1.138958   -0.928194
     11          1           0       -0.330187    1.321900    0.924157
     12          1           0       -2.575732   -1.322124   -1.172962
     13          1           0       -2.684284    0.396471    0.460044
     14          1           0       -1.602774   -0.368745    0.482050
 ---------------------------------------------------------------------

 SCF Done:  E(RB2PLYPD3) =  -157.376427483     A.U. after   12 cycles
 E2(B2PLYPD3) =    -0.2577723956D+00 E(B2PLYPD3) =    -0.15763419987884D+03

 The electronic state is 1-A.
 Alpha  occ. eigenvalues --  -10.64908 -10.62976 -10.60545 -10.60047  -0.98948
 Alpha  occ. eigenvalues --   -0.90499  -0.74152  -0.69926  -0.54665  -0.52863
 Alpha  occ. eigenvalues --   -0.50830  -0.45762  -0.44040  -0.38182  -0.37573
 Alpha  occ. eigenvalues --   -0.34620  -0.34189
 Alpha virt. eigenvalues --    0.00465   0.03404   0.05717   0.07696   0.10403
 Alpha virt. eigenvalues --    0.10857   0.11521   0.12243   0.13808   0.14848
 Alpha virt. eigenvalues --    0.15742   0.16401   0.17334   0.19116   0.20280

 Mulliken charges:
               1
     1  C   -0.144920
     2  C   -0.614378
     3  H    0.077222
     4  H   -0.002962
     5  H    0.050672
     6  C   -0.026840
     7  H   -0.006894
     8  H    0.587656
     9  C   -0.576719
    10  H    0.047145
    11  H    0.061613
    12  H    0.044661
    13  H    0.070581
    14  H    0.433164
 Sum of Mulliken charges =   0.00000

 Dipole moment (field-independent basis, Debye):
    X=              0.4477    Y=              0.0353    Z=             -0.0564  Tot=              0.4526
 Quadrupole moment (field-independent basis, Debye-Ang):
   XX=            -30.9670   YY=            -29.3959   ZZ=            -28.8102
   XY=             -0.6667   XZ=             -1.4644   YZ=              1.1226

 Normal termination of Gaussian 09 at Wed Aug 26 14:44:14 2020.
