 Gaussian 09, Revision D.01,
 Gaussian 09:  ES64L-G09RevD.01 24-Apr-2013

 --------------------
 #p B2PLYPD3/Def2QZVP
 --------------------

 ----------
 butane_opt
 ----------
 Symbolic Z-matrix:
 Charge =  0 Multiplicity = 1

                         Standard orientation:
 ---------------------------------------------------------------------
 Center     Atomic      Atomic             Coordinates (Angstroms)
 Number     Number       Type             X           Y           Z
 ---------------------------------------------------------------------
      1          6           0       -2.004396   -0.161892    0.031287
      2          6           0       -0.574052    0.588893   -0.050192
      3          1           0       -2.812386    0.506466   -0.018824
      4          1           0       -2.104952   -0.981666    1.039250
      5          1           0       -2.144535   -0.662708   -0.779080
      6          6           0        0.626265   -0.495199    0.010774
      7          1           0       -0.483311    1.027834    0.640988
      8          1           0       -0.429576    1.394516   -1.080795
      9          6           0        1.965087    0.083748    0.045175
     10          1           0        0.446811   -1.134414   -0.864881
     11          1           0        0.501937   -0.929269    0.851928
     12          1           0        1.883485    0.385102   -0.629408
     13          1           0        2.819914   -0.765865   -0.530372
     14          1           0        2.245188    1.066705    1.148926
 ---------------------------------------------------------------------

 SCF Done:  E(RB2PLYPD3) =  -157.697305406     A.U. after   11 cycles
 E2(B2PLYPD3) =    -0.2507903618D+00 E(B2PLYPD3) =    -0.15794809576770D+03

 The electronic state is 1-A.
 Alpha  occ. eigenvalues --  -10.61321 -10.61009 -10.60981 -10.59490  -0.93697
 Alpha  occ. eigenvalues --   -0.85576  -0.75625  -0.70054  -0.55308  -0.48195
 Alpha  occ. eigenvalues --   -0.47776  -0.45599  -0.43308  -0.41327  -0.39581
 Alpha  occ. eigenvalues --   -0.38102  -0.34614
 Alpha virt. eigenvalues --    0.03513   0.05917   0.06991   0.07824   0.10264
 Alpha virt. eigenvalues --    0.11167   0.12109   0.12960   0.13998   0.15281
 Alpha virt. eigenvalues --    0.15489   0.16376   0.18556   0.19110   0.21172

 Mulliken charges:
               1
     1  C   -0.139824
     2  C   -0.245039
     3  H    0.049507
     4  H    0.025372
     5  H    0.064621
     6  C   -0.021621
     7  H    0.212232
     8  H    0.001989
     9  C   -0.555683
    10  H    0.036226
    11  H    0.075362
    12  H    0.424822
    13  H    0.028796
    14  H    0.043240
 Sum of Mulliken charges =   0.00000

 Dipole moment (field-independent basis, Debye):
    X=             -0.4974    Y=              0.0735    Z=             -0.3263  Tot=              0.5994
 Quadrupole moment (field-independent basis, Debye-Ang):
   XX=            -31.0622   YY=            -29.2908   ZZ=            -27.6659
   XY=              0.1590   XZ=             -0.3893   YZ=              0.8204

 Normal termination of Gaussian 09 at Wed Aug 26 14:32:45 2020.
