 Gaussian 09, Revision D.01,
 Gaussian 09:  ES64L-G09RevD.01 24-Apr-2013

 --------------------
 #p B2PLYPD3/Def2QZVP
 --------------------

 ----------
 butane_opt
 ----------
 Symbolic Z-matrix:
 Charge =  0 Multiplicity = 1

                         Standard orientation:
 ---------------------------------------------------------------------
 Center     Atomic      Atomic             Coordinates (Angstroms)
 Number     Number       Type             X           Y           Z
 ---------------------------------------------------------------------
      1          6           0       -1.893413   -0.061445    0.194069
      2          6           0       -0.570942    0.433856   -0.079085
      3          1           0       -2.636695    0.686044   -0.436008
      4          1           0       -2.235123   -1.078255    1.312513
      5          1           0       -1.872391   -0.343795   -0.540972
      6          6           0        0.513506   -0.515896   -0.247195
      7          1           0       -0.225510    0.800572    0.534760
      8          1           0       -0.441531    1.561656   -1.094392
      9          6           0        1.958928    0.116744    0.191009
     10          1           0        0.493576   -1.313300   -1.366881
     11          1           0        0.165805   -1.062500    0.454881
     12          1           0        2.048066    0.557564   -0.489043
     13          1           0        2.698747   -0.507204   -0.040121
     14          1           0        1.956579    0.859659    1.312473
 ---------------------------------------------------------------------

 SCF Done:  E(RB2PLYPD3) =  -157.504648557     A.U. after   12 cycles
 E2(B2PLYPD3) =    -0.2560228665D+00 E(B2PLYPD3) =    -0.15776067142351D+03

 The electronic state is 1-A.
 Alpha  occ. eigenvalues --  -10.62406 -10.61273 -10.60892 -10.59564  -0.98021
 Alpha  occ. eigenvalues --   -0.88077  -0.80438  -0.69217  -0.53234  -0.50336
 Alpha  occ. eigenvalues --   -0.47647  -0.46670  -0.43229  -0.41279  -0.39066
 Alpha  occ. eigenvalues --   -0.36218  -0.33288
 Alpha virt. eigenvalues --    0.01676   0.04211   0.05799   0.07607   0.10500
 Alpha virt. eigenvalues --    0.10743   0.12216   0.13272   0.13826   0.14546
 Alpha virt. eigenvalues --    0.15742   0.16546   0.17344   0.19364   0.19978

 Mulliken charges:
               1
     1  C   -0.485446
     2  C   -0.279009
     3  H    0.053982
     4  H    0.069396
     5  H    0.382570
     6  C   -0.079959
     7  H    0.286820
     8  H   -0.046499
     9  C   -0.341803
    10  H   -0.006840
    11  H    0.102639
    12  H    0.235018
    13  H    0.055777
    14  H    0.053353
 Sum of Mulliken charges =   0.00000

 Dipole moment (field-independent basis, Debye):
    X=              0.3294    Y=             -0.4109    Z=              0.0558  Tot=              0.5296
 Quadrupole moment (field-independent basis, Debye-Ang):
   XX=            -29.4024   YY=            -30.3327   ZZ=            -28.3140
   XY=              1.2741   XZ=              0.1720   YZ=             -0.2903

 Normal termination of Gaussian 09 at Wed Aug 26 23:28:51 2020.
