 Gaussian 09, Revision D.01,
 Gaussian 09:  ES64L-G09RevD.01 24-Apr-2013

 --------------------
 #p B2PLYPD3/Def2QZVP
 --------------------

 ----------
 butane_opt
 ----------
 Symbolic Z-matrix:
 Charge =  0 Multiplicity = 1

                         Standard orientation:
 ---------------------------------------------------------------------
 Center     Atomic      Atomic             Coordinates (Angstroms)
 Number     Number       Type             X           Y           Z
 ---------------------------------------------------------------------
      1          6           0       -1.982523    0.106721    0.134898
      2          6           0       -0.601620   -0.521392   -0.091437
      3          1           0       -2.772163   -0.735058   -0.330025
      4          1           0       -2.131824    0.334514   -0.477984
      5          1           0       -2.034815    1.333354    1.434583
      6          6           0        0.558329    0.610076   -0.345321
      7          1           0       -0.633872   -1.383749   -0.992480
      8          1           0       -0.263367   -1.186158    0.902501
      9          6           0        1.936218   -0.158041    0.149734
     10          1           0        0.332958    1.144536    0.420152
     11          1           0        0.748312    1.322334   -1.148438
     12          1           0        1.795270   -0.856956    1.166081
     13          1           0        2.816825    0.546093    0.563515
     14          1           0        2.680254   -0.743098   -0.625143
 ---------------------------------------------------------------------

 SCF Done:  E(RB2PLYPD3) =  -157.575684689     A.U. after   12 cycles
 E2(B2PLYPD3) =    -0.2587288011D+00 E(B2PLYPD3) =    -0.15783441349062D+03

 The electronic state is 1-A.
 Alpha  occ. eigenvalues --  -10.65896 -10.64406 -10.63218 -10.61990  -0.92517
 Alpha  occ. eigenvalues --   -0.84942  -0.72334  -0.68037  -0.52235  -0.49352
 Alpha  occ. eigenvalues --   -0.46258  -0.43559  -0.40632  -0.39163  -0.38536
 Alpha  occ. eigenvalues --   -0.35959  -0.34625
 Alpha virt. eigenvalues --   -0.01245   0.05216   0.06031   0.07637   0.09971
 Alpha virt. eigenvalues --    0.10391   0.11519   0.13154   0.13478   0.14727
 Alpha virt. eigenvalues --    0.15211   0.15763   0.17884   0.18768   0.20459

 Mulliken charges:
               1
     1  C   -0.681130
     2  C    0.007474
     3  H    0.038574
     4  H    0.559470
     5  H    0.030604
     6  C   -0.106956
     7  H    0.015731
     8  H    0.045121
     9  C   -0.159890
    10  H    0.098062
    11  H    0.055496
    12  H    0.035864
    13  H    0.019490
    14  H    0.042091
 Sum of Mulliken charges =   0.00000

 Dipole moment (field-independent basis, Debye):
    X=              0.0446    Y=              0.3073    Z=             -0.5837  Tot=              0.6612
 Quadrupole moment (field-independent basis, Debye-Ang):
   XX=            -31.5088   YY=            -29.2850   ZZ=            -28.9354
   XY=              0.2726   XZ=              1.8060   YZ=              0.3233

 Normal termination of Gaussian 09 at Wed Aug 26 10:07:06 2020.
