 Gaussian 09, Revision D.01,
 Gaussian 09:  ES64L-G09RevD.01 24-Apr-2013

 --------------------
 #p B2PLYPD3/Def2QZVP
 --------------------

 ----------
 butane_opt
 ----------
 Symbolic Z-matrix:
 Charge =  0 Multiplicity = 1

                         Standard orientation:
 ---------------------------------------------------------------------
 Center     Atomic      Atomic             Coordinates (Angstroms)
 Number     Number       Type             X           Y           Z
 ---------------------------------------------------------------------
      1          6           0       -1.937269    0.058814   -0.184878
      2          6           0       -0.584823   -0.467123    0.275301
      3          1           0       -2.799920   -0.771487   -0.199712
      4          1           0       -1.827925    0.741337   -1.248976
      5          1           0       -1.897627    0.580561    0.497336
      6          6           0        0.463913    0.658370    0.086032
      7          1           0       -0.345953   -1.092069   -0.482916
      8          1           0       -0.763680   -1.226841    1.314108
      9          6           0        1.982141   -0.147544   -0.179782
     10          1           0        0.588017    1.737884    1.188158
     11          1           0        0.192898    0.865166   -0.629050
     12          1           0        2.419984   -0.747911    0.903565
     13          1           0        2.617321    0.479140   -0.301726
     14          1           0        2.273117   -1.180879   -1.020826
 ---------------------------------------------------------------------

 SCF Done:  E(RB2PLYPD3) =  -157.708181126     A.U. after   11 cycles
 E2(B2PLYPD3) =    -0.2549683832D+00 E(B2PLYPD3) =    -0.15796314950953D+03

 The electronic state is 1-A.
 Alpha  occ. eigenvalues --  -10.64626 -10.63952 -10.62300 -10.59942  -0.94001
 Alpha  occ. eigenvalues --   -0.83188  -0.75354  -0.67696  -0.54262  -0.49275
 Alpha  occ. eigenvalues --   -0.47965  -0.45030  -0.41682  -0.38818  -0.38581
 Alpha  occ. eigenvalues --   -0.36997  -0.35026
 Alpha virt. eigenvalues --    0.03370   0.05120   0.06429   0.07372   0.10666
 Alpha virt. eigenvalues --    0.10914   0.11956   0.12466   0.13898   0.14543
 Alpha virt. eigenvalues --    0.15618   0.16262   0.18341   0.19138   0.19960

 Mulliken charges:
               1
     1  C   -0.288895
     2  C   -0.075509
     3  H    0.054885
     4  H    0.021277
     5  H    0.195697
     6  C   -0.374322
     7  H    0.089135
     8  H    0.024054
     9  C   -0.216422
    10  H    0.023577
    11  H    0.364485
    12  H    0.018654
    13  H    0.132268
    14  H    0.031117
 Sum of Mulliken charges =   0.00000

 Dipole moment (field-independent basis, Debye):
    X=              0.0245    Y=             -0.0514    Z=             -0.2163  Tot=              0.2237
 Quadrupole moment (field-independent basis, Debye-Ang):
   XX=            -30.2262   YY=            -29.1544   ZZ=            -29.1577
   XY=              0.9611   XZ=             -0.5108   YZ=              0.1408

 Normal termination of Gaussian 09 at Wed Aug 26 20:21:00 2020.
