 Gaussian 09, Revision D.01,
 Gaussian 09:  ES64L-G09RevD.01 24-Apr-2013

 --------------------
 #p B2PLYPD3/Def2QZVP
 --------------------

 ----------
 butane_opt
 ----------
 Symbolic Z-matrix:
 Charge =  0 Multiplicity = 1

                         Standard orientation:
 ---------------------------------------------------------------------
 Center     Atomic      Atomic             Coordinates (Angstroms)
 Number     Number       Type             X           Y           Z
 ---------------------------------------------------------------------
      1          6           0       -1.951783    0.041468   -0.094277
      2          6           0       -0.607288   -0.411238    0.049625
      3          1           0       -2.757886   -0.676036    0.610047
      4          1           0       -2.270924    1.082742   -1.301644
      5          1           0       -2.004888    0.170045    0.456639
      6          6           0        0.531089    0.521327    0.036937
      7          1           0       -0.523116   -1.076293   -0.732398
      8          1           0       -0.567188   -1.009959    1.004558
      9          6           0        2.048658   -0.184924   -0.081584
     10          1           0        0.446088    1.809961    1.246376
     11          1           0        0.447866    0.902294   -0.494921
     12          1           0        2.195165   -0.718331    0.894595
     13          1           0        2.806497    0.515445   -0.132348
     14          1           0        2.104335   -0.799665   -1.015110
 ---------------------------------------------------------------------

 SCF Done:  E(RB2PLYPD3) =  -156.950386663     A.U. after   13 cycles
 E2(B2PLYPD3) =    -0.2565466382D+00 E(B2PLYPD3) =    -0.15720693330079D+03

 The electronic state is 1-A.
 Alpha  occ. eigenvalues --  -10.63152 -10.62882 -10.62348 -10.60987  -0.98827
 Alpha  occ. eigenvalues --   -0.90073  -0.78157  -0.72931  -0.56541  -0.49958
 Alpha  occ. eigenvalues --   -0.48986  -0.47757  -0.43856  -0.41570  -0.39068
 Alpha  occ. eigenvalues --   -0.34574  -0.32152
 Alpha virt. eigenvalues --    0.01286   0.02599   0.05156   0.06155   0.09647
 Alpha virt. eigenvalues --    0.10660   0.11911   0.12700   0.13381   0.14930
 Alpha virt. eigenvalues --    0.15568   0.16401   0.17554   0.18980   0.20164

 Mulliken charges:
               1
     1  C   -0.935073
     2  C    0.113432
     3  H    0.034144
     4  H    0.046271
     5  H    0.765802
     6  C   -0.604878
     7  H    0.051309
     8  H    0.014008
     9  C   -0.119317
    10  H   -0.078267
    11  H    0.529485
    12  H    0.061027
    13  H    0.066455
    14  H    0.055602
 Sum of Mulliken charges =   0.00000

 Dipole moment (field-independent basis, Debye):
    X=              0.4183    Y=             -0.6100    Z=             -0.3692  Tot=              0.8266
 Quadrupole moment (field-independent basis, Debye-Ang):
   XX=            -29.4347   YY=            -31.0781   ZZ=            -27.9558
   XY=             -0.6268   XZ=             -2.1294   YZ=             -2.0017

 Normal termination of Gaussian 09 at Wed Aug 26 22:46:44 2020.
