 Gaussian 09, Revision D.01,
 Gaussian 09:  ES64L-G09RevD.01 24-Apr-2013

 --------------------
 #p B2PLYPD3/Def2QZVP
 --------------------

 ----------
 butane_opt
 ----------
 Symbolic Z-matrix:
 Charge =  0 Multiplicity = 1

                         Standard orientation:
 ---------------------------------------------------------------------
 Center     Atomic      Atomic             Coordinates (Angstroms)
 Number     Number       Type             X           Y           Z
 ---------------------------------------------------------------------
      1          6           0        2.027236    0.108784   -0.155372
      2          6           0        0.594982   -0.492612    0.169985
      3          1           0        2.855910   -0.740140   -0.054874
      4          1           0        2.266398    0.715635    0.481506
      5          1           0        1.828979    0.718640   -1.108540
      6          6           0       -0.573072    0.574990    0.093436
      7          1           0        0.630146   -1.084639    1.234925
      8          1           0        0.132582   -0.950821   -0.575162
      9          6           0       -2.005144   -0.153639   -0.146800
     10          1           0       -0.471770    0.756782   -0.452207
     11          1           0       -0.745050    1.620589    1.155498
     12          1           0       -1.888154   -0.873740   -1.082968
     13          1           0       -2.736440    0.603606   -0.312155
     14          1           0       -2.136617   -0.991043    0.946481
 ---------------------------------------------------------------------

 SCF Done:  E(RB2PLYPD3) =  -157.430493516     A.U. after   11 cycles
 E2(B2PLYPD3) =    -0.2523334115D+00 E(B2PLYPD3) =    -0.15768282692736D+03

 The electronic state is 1-A.
 Alpha  occ. eigenvalues --  -10.64640 -10.62258 -10.61991 -10.60512  -0.94939
 Alpha  occ. eigenvalues --   -0.83739  -0.74014  -0.70482  -0.53191  -0.50074
 Alpha  occ. eigenvalues --   -0.48586  -0.46744  -0.44500  -0.39397  -0.38376
 Alpha  occ. eigenvalues --   -0.37206  -0.34975
 Alpha virt. eigenvalues --    0.04621   0.06196   0.06477   0.08623   0.10703
 Alpha virt. eigenvalues --    0.10840   0.11790   0.12957   0.14002   0.14601
 Alpha virt. eigenvalues --    0.15342   0.16352   0.18566   0.18731   0.20530

 Mulliken charges:
               1
     1  C   -0.175379
     2  C   -0.029410
     3  H    0.041852
     4  H    0.103990
     5  H    0.030963
     6  C   -0.900412
     7  H    0.023425
     8  H    0.098874
     9  C   -0.148468
    10  H    0.785294
    11  H    0.004585
    12  H    0.037888
    13  H    0.087722
    14  H    0.039075
 Sum of Mulliken charges =   0.00000

 Dipole moment (field-independent basis, Debye):
    X=              0.1764    Y=              0.0976    Z=             -0.4431  Tot=              0.4868
 Quadrupole moment (field-independent basis, Debye-Ang):
   XX=            -29.8246   YY=            -29.7085   ZZ=            -28.5490
   XY=             -0.7020   XZ=              1.6845   YZ=             -0.4494

 Normal termination of Gaussian 09 at Wed Aug 26 16:15:24 2020.
