 Gaussian 09, Revision D.01,
 Gaussian 09:  ES64L-G09RevD.01 24-Apr-2013

 --------------------
 #p B2PLYPD3/Def2QZVP
 --------------------

 ----------
 butane_opt
 ----------
 Symbolic Z-matrix:
 Charge =  0 Multiplicity = 1

                         Standard orientation:
 ---------------------------------------------------------------------
 Center     Atomic      Atomic             Coordinates (Angstroms)
 Number     Number       Type             X           Y           Z
 ---------------------------------------------------------------------
      1          6           0        1.894172    0.065129    0.104908
      2          6           0        0.586795   -0.401548   -0.076664
      3          1           0        2.935922   -0.950661    0.170564
      4          1           0        1.683438    0.880250    1.052062
      5          1           0        1.987711    0.853986   -0.825464
      6          6           0       -0.499227    0.487193   -0.257657
      7          1           0        0.310286   -1.021736    0.940421
      8          1           0        0.732813   -1.197311   -0.901561
      9          6           0       -1.975705   -0.123921    0.085369
     10          1           0       -0.605098    1.145793   -1.070564
     11          1           0       -0.221160    1.274662    0.644050
     12          1           0       -2.590503   -1.052429   -0.842869
     13          1           0       -2.569767    0.506088    0.859219
     14          1           0       -1.699848   -0.599760    0.838402
 ---------------------------------------------------------------------

 SCF Done:  E(RB2PLYPD3) =  -157.883755477     A.U. after   11 cycles
 E2(B2PLYPD3) =    -0.2568915783D+00 E(B2PLYPD3) =    -0.15814064705495D+03

 The electronic state is 1-A.
 Alpha  occ. eigenvalues --  -10.66045 -10.62945 -10.62873 -10.61945  -0.94313
 Alpha  occ. eigenvalues --   -0.83786  -0.73024  -0.64153  -0.55345  -0.49843
 Alpha  occ. eigenvalues --   -0.47865  -0.44406  -0.40255  -0.39651  -0.38420
 Alpha  occ. eigenvalues --   -0.36207  -0.34624
 Alpha virt. eigenvalues --    0.03460   0.04629   0.06569   0.07660   0.09769
 Alpha virt. eigenvalues --    0.10159   0.11433   0.11987   0.12934   0.14793
 Alpha virt. eigenvalues --    0.15815   0.16558   0.18612   0.19374   0.19631

 Mulliken charges:
               1
     1  C   -0.173423
     2  C    0.024548
     3  H    0.060752
     4  H    0.020011
     5  H    0.043355
     6  C   -0.037550
     7  H    0.016402
     8  H    0.016856
     9  C   -0.245002
    10  H    0.058259
    11  H   -0.002811
    12  H    0.043540
    13  H    0.050802
    14  H    0.124262
 Sum of Mulliken charges =   0.00000

 Dipole moment (field-independent basis, Debye):
    X=              0.0188    Y=             -0.1777    Z=              0.1433  Tot=              0.2290
 Quadrupole moment (field-independent basis, Debye-Ang):
   XX=            -32.1664   YY=            -29.9763   ZZ=            -28.9768
   XY=             -0.7766   XZ=             -1.2270   YZ=              0.2359

 Normal termination of Gaussian 09 at Wed Aug 26 19:00:59 2020.
