 Gaussian 09, Revision D.01,
 Gaussian 09:  ES64L-G09RevD.01 24-Apr-2013

 --------------------
 #p B2PLYPD3/Def2QZVP
 --------------------

 ----------
 butane_opt
 ----------
 Symbolic Z-matrix:
 Charge =  0 Multiplicity = 1

                         Standard orientation:
 ---------------------------------------------------------------------
 Center     Atomic      Atomic             Coordinates (Angstroms)
 Number     Number       Type             X           Y           Z
 ---------------------------------------------------------------------
      1          6           0       -1.832703    0.071807   -0.139888
      2          6           0       -0.566155   -0.427399    0.112387
      3          1           0       -2.920622   -0.931687   -0.104491
      4          1           0       -1.847330    0.881673   -1.263450
      5          1           0       -2.095335    0.492912    0.478448
      6          6           0        0.475836    0.593842    0.215349
      7          1           0       -0.248105   -0.802703   -0.517934
      8          1           0       -0.693460   -1.293479    1.195968
      9          6           0        1.925066   -0.201978   -0.099156
     10          1           0        0.419045    1.674027    1.163558
     11          1           0        0.572612    1.062525   -0.564037
     12          1           0        2.434380   -0.782044    0.744355
     13          1           0        2.570137    0.446618   -0.708541
     14          1           0        1.796412   -0.965478   -0.956033
 ---------------------------------------------------------------------

 SCF Done:  E(RB2PLYPD3) =  -157.690081138     A.U. after   11 cycles
 E2(B2PLYPD3) =    -0.2533356657D+00 E(B2PLYPD3) =    -0.15794341680383D+03

 The electronic state is 1-A.
 Alpha  occ. eigenvalues --  -10.63516 -10.62952 -10.62220 -10.59931  -0.96806
 Alpha  occ. eigenvalues --   -0.84638  -0.75691  -0.70083  -0.55155  -0.52347
 Alpha  occ. eigenvalues --   -0.48124  -0.47104  -0.42134  -0.40841  -0.38832
 Alpha  occ. eigenvalues --   -0.35597  -0.34743
 Alpha virt. eigenvalues --    0.03605   0.05696   0.05930   0.06637   0.10163
 Alpha virt. eigenvalues --    0.11127   0.11769   0.12728   0.14203   0.14680
 Alpha virt. eigenvalues --    0.15597   0.16232   0.18228   0.19340   0.20566

 Mulliken charges:
               1
     1  C   -0.312403
     2  C   -0.269554
     3  H    0.002721
     4  H    0.018265
     5  H    0.247107
     6  C   -0.140787
     7  H    0.307271
     8  H    0.008065
     9  C   -0.140988
    10  H    0.009664
    11  H    0.138675
    12  H    0.061210
    13  H    0.042549
    14  H    0.028205
 Sum of Mulliken charges =   0.00000

 Dipole moment (field-independent basis, Debye):
    X=              0.5418    Y=              0.1922    Z=             -0.4023  Tot=              0.7017
 Quadrupole moment (field-independent basis, Debye-Ang):
   XX=            -31.3300   YY=            -29.5467   ZZ=            -28.9689
   XY=             -0.6868   XZ=             -2.0421   YZ=             -0.4944

 Normal termination of Gaussian 09 at Wed Aug 26 15:59:00 2020.
