 Gaussian 09, Revision D.01,
 Gaussian 09:  ES64L-G09RevD.01 24-Apr-2013

 --------------------
 #p B2PLYPD3/Def2QZVP
 --------------------

 ----------
 butane_opt
 ----------
 Symbolic Z-matrix:
 Charge =  0 Multiplicity = 1

                         Standard orientation:
 ---------------------------------------------------------------------
 Center     Atomic      Atomic             Coordinates (Angstroms)
 Number     Number       Type             X           Y           Z
 ---------------------------------------------------------------------
      1          6           0       -1.890062    0.083990    0.111972
      2          6           0       -0.511354   -0.482148   -0.111764
      3          1           0       -2.778535   -0.847195   -0.070414
      4          1           0       -1.864915    0.417552   -0.714249
      5          1           0       -2.079531    0.742566    1.120344
      6          6           0        0.488592    0.586735   -0.113896
      7          1           0       -0.674387   -1.081699   -0.998826
      8          1           0       -0.307309   -0.905330    0.674951
      9          6           0        1.930737   -0.148936    0.012766
     10          1           0        0.484392    1.412556    1.033253
     11          1           0        0.257558    1.166809   -0.810952
     12          1           0        2.461804   -1.231531    1.234613
     13          1           0        2.563976    0.442413   -0.412476
     14          1           0        1.829476   -0.353978   -0.450713
 ---------------------------------------------------------------------

 SCF Done:  E(RB2PLYPD3) =  -156.971149060     A.U. after   12 cycles
 E2(B2PLYPD3) =    -0.2550910580D+00 E(B2PLYPD3) =    -0.15722624011782D+03

 The electronic state is 1-A.
 Alpha  occ. eigenvalues --  -10.63155 -10.62894 -10.60274 -10.57922  -0.97254
 Alpha  occ. eigenvalues --   -0.90893  -0.76976  -0.69106  -0.57124  -0.51843
 Alpha  occ. eigenvalues --   -0.49001  -0.47261  -0.42783  -0.39584  -0.38598
 Alpha  occ. eigenvalues --   -0.36850  -0.33811
 Alpha virt. eigenvalues --    0.00618   0.05685   0.06500   0.07542   0.10104
 Alpha virt. eigenvalues --    0.10772   0.11770   0.12857   0.14490   0.15215
 Alpha virt. eigenvalues --    0.16040   0.16635   0.18073   0.18843   0.20679

 Mulliken charges:
               1
     1  C   -0.251678
     2  C   -0.094815
     3  H    0.009834
     4  H    0.128788
     5  H    0.067240
     6  C   -0.048013
     7  H    0.037387
     8  H    0.109663
     9  C   -0.958622
    10  H   -0.013108
    11  H    0.098881
    12  H    0.050883
    13  H    0.067067
    14  H    0.796493
 Sum of Mulliken charges =   0.00000

 Dipole moment (field-independent basis, Debye):
    X=              0.3154    Y=             -0.1579    Z=             -0.8549  Tot=              0.9248
 Quadrupole moment (field-independent basis, Debye-Ang):
   XX=            -30.8967   YY=            -29.3597   ZZ=            -26.9934
   XY=             -0.1703   XZ=             -0.2790   YZ=             -0.6338

 Normal termination of Gaussian 09 at Wed Aug 26 10:18:27 2020.
