 Gaussian 09, Revision D.01,
 Gaussian 09:  ES64L-G09RevD.01 24-Apr-2013

 --------------------
 #p B2PLYPD3/Def2QZVP
 --------------------

 ----------
 butane_opt
 ----------
 Symbolic Z-matrix:
 Charge =  0 Multiplicity = 1

                         Standard orientation:
 ---------------------------------------------------------------------
 Center     Atomic      Atomic             Coordinates (Angstroms)
 Number     Number       Type             X           Y           Z
 ---------------------------------------------------------------------
      1          6           0       -1.997630   -0.058827   -0.153711
      2          6           0       -0.520696    0.479455    0.122568
      3          1           0       -2.873819    0.718577   -0.251588
      4          1           0       -2.244424   -0.608505    0.634990
      5          1           0       -1.915951   -0.881170   -1.182340
      6          6           0        0.536733   -0.663179    0.241036
      7          1           0       -0.774317    1.560939    1.239115
      8          1           0       -0.372961    1.035362   -0.611439
      9          6           0        2.022782    0.110606   -0.136953
     10          1           0        0.442643   -1.101438   -0.433988
     11          1           0        0.435357   -1.415646    1.208073
     12          1           0        1.792219    0.815793   -1.086049
     13          1           0        2.573492   -0.316461   -0.723212
     14          1           0        2.690629    0.984218    0.768804
 ---------------------------------------------------------------------

 SCF Done:  E(RB2PLYPD3) =  -157.784031520     A.U. after   11 cycles
 E2(B2PLYPD3) =    -0.2536131396D+00 E(B2PLYPD3) =    -0.15803764465989D+03

 The electronic state is 1-A.
 Alpha  occ. eigenvalues --  -10.64223 -10.63666 -10.62817 -10.62664  -0.91482
 Alpha  occ. eigenvalues --   -0.82367  -0.75629  -0.69458  -0.53508  -0.48968
 Alpha  occ. eigenvalues --   -0.47491  -0.44648  -0.41715  -0.41102  -0.39452
 Alpha  occ. eigenvalues --   -0.36889  -0.33687
 Alpha virt. eigenvalues --    0.04206   0.05186   0.05947   0.07877   0.09613
 Alpha virt. eigenvalues --    0.10984   0.11844   0.12529   0.14332   0.14981
 Alpha virt. eigenvalues --    0.15611   0.16976   0.18176   0.18521   0.19441

 Mulliken charges:
               1
     1  C   -0.159605
     2  C   -0.084309
     3  H    0.055977
     4  H    0.078616
     5  H    0.004339
     6  C   -0.300413
     7  H   -0.038450
     8  H    0.123562
     9  C   -0.196857
    10  H    0.294830
    11  H    0.054503
    12  H    0.010184
    13  H    0.110927
    14  H    0.046698
 Sum of Mulliken charges =   0.00000

 Dipole moment (field-independent basis, Debye):
    X=             -0.0210    Y=             -0.6109    Z=             -0.7359  Tot=              0.9566
 Quadrupole moment (field-independent basis, Debye-Ang):
   XX=            -30.0659   YY=            -29.6089   ZZ=            -29.1806
   XY=             -0.3701   XZ=             -1.5183   YZ=             -0.5580

 Normal termination of Gaussian 09 at Wed Aug 26 11:05:50 2020.
