 Gaussian 09, Revision D.01,
 Gaussian 09:  ES64L-G09RevD.01 24-Apr-2013

 --------------------
 #p B2PLYPD3/Def2QZVP
 --------------------

 ----------
 butane_opt
 ----------
 Symbolic Z-matrix:
 Charge =  0 Multiplicity = 1

                         Standard orientation:
 ---------------------------------------------------------------------
 Center     Atomic      Atomic             Coordinates (Angstroms)
 Number     Number       Type             X           Y           Z
 ---------------------------------------------------------------------
      1          6           0        2.007640   -0.163513   -0.088515
      2          6           0        0.495709    0.544470    0.078809
      3          1           0        2.820920    0.437879   -0.633846
      4          1           0        1.851282   -0.614978   -0.726652
      5          1           0        2.187331   -1.125444    1.129638
      6          6           0       -0.613109   -0.378517    0.044597
      7          1           0        0.370754    1.028860   -0.641560
      8          1           0        0.468157    1.549425    1.268519
      9          6           0       -1.859396    0.034917   -0.101848
     10          1           0       -0.573731   -1.064142    0.874177
     11          1           0       -0.609193   -1.118438   -0.780635
     12          1           0       -1.860585    0.771444    0.830912
     13          1           0       -2.771508   -0.804285    0.231249
     14          1           0       -2.068496    0.715537   -1.150059
 ---------------------------------------------------------------------

 SCF Done:  E(RB2PLYPD3) =  -157.732942023     A.U. after   11 cycles
 E2(B2PLYPD3) =    -0.2552929840D+00 E(B2PLYPD3) =    -0.15798823500729D+03

 The electronic state is 1-A.
 Alpha  occ. eigenvalues --  -10.63590 -10.63540 -10.63085 -10.59573  -0.96379
 Alpha  occ. eigenvalues --   -0.86346  -0.76020  -0.66006  -0.55834  -0.51191
 Alpha  occ. eigenvalues --   -0.49728  -0.46826  -0.43149  -0.37798  -0.37183
 Alpha  occ. eigenvalues --   -0.36942  -0.33546
 Alpha virt. eigenvalues --    0.02712   0.05082   0.05566   0.07565   0.09632
 Alpha virt. eigenvalues --    0.10112   0.11452   0.12257   0.13359   0.15001
 Alpha virt. eigenvalues --    0.15413   0.16357   0.17126   0.19401   0.20390

 Mulliken charges:
               1
     1  C   -0.405079
     2  C   -0.131485
     3  H    0.060487
     4  H    0.303647
     5  H    0.025216
     6  C    0.033730
     7  H    0.160792
     8  H   -0.023323
     9  C   -0.170889
    10  H    0.034377
    11  H    0.001440
    12  H    0.026149
    13  H    0.051644
    14  H    0.033294
 Sum of Mulliken charges =   0.00000

 Dipole moment (field-independent basis, Debye):
    X=             -0.0636    Y=             -0.5336    Z=             -0.9710  Tot=              1.1097
 Quadrupole moment (field-independent basis, Debye-Ang):
   XX=            -31.4079   YY=            -30.2990   ZZ=            -28.5895
   XY=              1.2055   XZ=             -1.8641   YZ=             -1.3188

 Normal termination of Gaussian 09 at Wed Aug 26 23:06:45 2020.
