 Gaussian 09, Revision D.01,
 Gaussian 09:  ES64L-G09RevD.01 24-Apr-2013

 --------------------
 #p B2PLYPD3/Def2QZVP
 --------------------

 ----------
 butane_opt
 ----------
 Symbolic Z-matrix:
 Charge =  0 Multiplicity = 1

                         Standard orientation:
 ---------------------------------------------------------------------
 Center     Atomic      Atomic             Coordinates (Angstroms)
 Number     Number       Type             X           Y           Z
 ---------------------------------------------------------------------
      1          6           0        2.079819   -0.188838    0.037136
      2          6           0        0.534811    0.589806   -0.118037
      3          1           0        2.915120    0.618129   -0.059046
      4          1           0        2.509790   -1.239496   -0.919033
      5          1           0        2.110402   -0.503294    0.822375
      6          6           0       -0.696777   -0.453740    0.197937
      7          1           0        0.465227    1.001844   -1.050394
      8          1           0        0.294327    1.649354    0.920749
      9          6           0       -1.921968    0.071055   -0.095822
     10          1           0       -0.645188   -1.265851    1.288912
     11          1           0       -0.570981   -0.894493   -0.485211
     12          1           0       -2.445336    1.079637    0.829038
     13          1           0       -2.944474   -0.932638   -0.567337
     14          1           0       -1.664197    0.377111   -0.907339
 ---------------------------------------------------------------------

 SCF Done:  E(RB2PLYPD3) =  -157.648110786     A.U. after   11 cycles
 E2(B2PLYPD3) =    -0.2574686283D+00 E(B2PLYPD3) =    -0.15790557941388D+03

 The electronic state is 1-A.
 Alpha  occ. eigenvalues --  -10.67473 -10.64400 -10.64089 -10.61190  -0.96633
 Alpha  occ. eigenvalues --   -0.83739  -0.73601  -0.67877  -0.55509  -0.51134
 Alpha  occ. eigenvalues --   -0.46167  -0.45996  -0.42178  -0.39762  -0.37985
 Alpha  occ. eigenvalues --   -0.36471  -0.32961
 Alpha virt. eigenvalues --    0.02468   0.04303   0.05640   0.06894   0.08305
 Alpha virt. eigenvalues --    0.09921   0.10830   0.12480   0.13208   0.13977
 Alpha virt. eigenvalues --    0.14886   0.16087   0.17498   0.18693   0.19495

 Mulliken charges:
               1
     1  C   -0.281783
     2  C   -0.091366
     3  H    0.059478
     4  H    0.017058
     5  H    0.197397
     6  C   -0.271992
     7  H    0.090831
     8  H   -0.003406
     9  C   -0.211098
    10  H    0.019652
    11  H    0.304092
    12  H    0.023812
    13  H    0.006018
    14  H    0.141307
 Sum of Mulliken charges =   0.00000

 Dipole moment (field-independent basis, Debye):
    X=              0.6784    Y=             -0.0717    Z=             -0.5967  Tot=              0.9064
 Quadrupole moment (field-independent basis, Debye-Ang):
   XX=            -32.0715   YY=            -30.5988   ZZ=            -28.8138
   XY=              0.1586   XZ=              0.5737   YZ=              0.0021

 Normal termination of Gaussian 09 at Wed Aug 26 15:58:38 2020.
