 Gaussian 09, Revision D.01,
 Gaussian 09:  ES64L-G09RevD.01 24-Apr-2013

 --------------------
 #p B2PLYPD3/Def2QZVP
 --------------------

 ----------
 butane_opt
 ----------
 Symbolic Z-matrix:
 Charge =  0 Multiplicity = 1

                         Standard orientation:
 ---------------------------------------------------------------------
 Center     Atomic      Atomic             Coordinates (Angstroms)
 Number     Number       Type             X           Y           Z
 ---------------------------------------------------------------------
      1          6           0        2.025411   -0.174530    0.045427
      2          6           0        0.562921    0.656017    0.058261
      3          1           0        2.633527    0.520446   -0.564657
      4          1           0        1.946529   -0.397860   -0.623386
      5          1           0        2.610490   -1.176842    1.127543
      6          6           0       -0.650846   -0.483660   -0.141718
      7          1           0        0.373744    1.279251   -0.693883
      8          1           0        0.413055    1.065626    0.696409
      9          6           0       -1.955434   -0.007792    0.078842
     10          1           0       -0.431264   -0.979036    0.570839
     11          1           0       -0.698125   -1.261244   -1.157729
     12          1           0       -2.280880    0.657694    1.108472
     13          1           0       -2.554493   -0.539174    0.049040
     14          1           0       -1.904895    0.890925   -0.757520
 ---------------------------------------------------------------------

 SCF Done:  E(RB2PLYPD3) =  -157.446186471     A.U. after   11 cycles
 E2(B2PLYPD3) =    -0.2520689960D+00 E(B2PLYPD3) =    -0.15769825546735D+03

 The electronic state is 1-A.
 Alpha  occ. eigenvalues --  -10.61178 -10.59697 -10.59087 -10.58637  -0.93580
 Alpha  occ. eigenvalues --   -0.88704  -0.80524  -0.70972  -0.56641  -0.52551
 Alpha  occ. eigenvalues --   -0.48624  -0.46041  -0.43190  -0.40094  -0.39292
 Alpha  occ. eigenvalues --   -0.35765  -0.34154
 Alpha virt. eigenvalues --    0.02654   0.05678   0.07243   0.07945   0.10218
 Alpha virt. eigenvalues --    0.11049   0.12472   0.13292   0.14253   0.14806
 Alpha virt. eigenvalues --    0.16211   0.17095   0.18567   0.19112   0.19846

 Mulliken charges:
               1
     1  C   -0.639702
     2  C   -0.285120
     3  H    0.041640
     4  H    0.503223
     5  H    0.076624
     6  C   -0.093276
     7  H    0.051262
     8  H    0.283075
     9  C   -0.293244
    10  H    0.121530
    11  H    0.011843
    12  H    0.005752
    13  H    0.189492
    14  H    0.026901
 Sum of Mulliken charges =   0.00000

 Dipole moment (field-independent basis, Debye):
    X=             -0.0903    Y=             -0.2703    Z=             -0.1927  Tot=              0.3440
 Quadrupole moment (field-independent basis, Debye-Ang):
   XX=            -30.0835   YY=            -28.2663   ZZ=            -27.7745
   XY=              0.1560   XZ=             -1.0207   YZ=             -0.8314

 Normal termination of Gaussian 09 at Wed Aug 26 13:44:23 2020.
