 Gaussian 09, Revision D.01,
 Gaussian 09:  ES64L-G09RevD.01 24-Apr-2013

 --------------------
 #p B2PLYPD3/Def2QZVP
 --------------------

 ----------
 butane_opt
 ----------
 Symbolic Z-matrix:
 Charge =  0 Multiplicity = 1

                         Standard orientation:
 ---------------------------------------------------------------------
 Center     Atomic      Atomic             Coordinates (Angstroms)
 Number     Number       Type             X           Y           Z
 ---------------------------------------------------------------------
      1          6           0       -1.917094   -0.176061   -0.047899
      2          6           0       -0.506369    0.581693    0.174924
      3          1           0       -2.756406    0.550354   -0.247697
      4          1           0       -2.098652   -0.879106    0.760218
      5          1           0       -2.130063   -0.565237   -1.006863
      6          6           0        0.551053   -0.426988   -0.101146
      7          1           0       -0.319998    1.161597    1.168418
      8          1           0       -0.171241    0.983537   -0.595483
      9          6           0        1.902435    0.029423   -0.049101
     10          1           0        0.369708   -0.756311   -0.848389
     11          1           0        0.380652   -1.294087    0.816212
     12          1           0        2.141720    1.164867   -1.026353
     13          1           0        2.861545   -0.953556    0.295581
     14          1           0        1.542585    0.539541    0.823689
 ---------------------------------------------------------------------

 SCF Done:  E(RB2PLYPD3) =  -157.829507795     A.U. after   11 cycles
 E2(B2PLYPD3) =    -0.2545017632D+00 E(B2PLYPD3) =    -0.15808400955788D+03

 The electronic state is 1-A.
 Alpha  occ. eigenvalues --  -10.65420 -10.61179 -10.60435 -10.59333  -0.96522
 Alpha  occ. eigenvalues --   -0.83317  -0.74217  -0.68738  -0.56825  -0.49988
 Alpha  occ. eigenvalues --   -0.47964  -0.46249  -0.41972  -0.41253  -0.38368
 Alpha  occ. eigenvalues --   -0.36754  -0.33480
 Alpha virt. eigenvalues --    0.03223   0.05503   0.06716   0.08295   0.10029
 Alpha virt. eigenvalues --    0.11096   0.12154   0.13508   0.14006   0.14376
 Alpha virt. eigenvalues --    0.15660   0.16314   0.18725   0.19858   0.20845

 Mulliken charges:
               1
     1  C   -0.134136
     2  C   -0.121315
     3  H    0.027746
     4  H    0.067084
     5  H    0.036343
     6  C   -0.156242
     7  H    0.048755
     8  H    0.121386
     9  C   -0.184882
    10  H    0.175100
    11  H   -0.013031
    12  H    0.003270
    13  H    0.063650
    14  H    0.066273
 Sum of Mulliken charges =   0.00000

 Dipole moment (field-independent basis, Debye):
    X=             -0.6532    Y=             -0.2178    Z=             -0.0762  Tot=              0.6928
 Quadrupole moment (field-independent basis, Debye-Ang):
   XX=            -31.2522   YY=            -30.0558   ZZ=            -28.3251
   XY=             -0.5731   XZ=              1.1298   YZ=             -0.4576

 Normal termination of Gaussian 09 at Wed Aug 26 11:11:52 2020.
