 Gaussian 09, Revision D.01,
 Gaussian 09:  ES64L-G09RevD.01 24-Apr-2013

 --------------------
 #p B2PLYPD3/Def2QZVP
 --------------------

 ----------
 butane_opt
 ----------
 Symbolic Z-matrix:
 Charge =  0 Multiplicity = 1

                         Standard orientation:
 ---------------------------------------------------------------------
 Center     Atomic      Atomic             Coordinates (Angstroms)
 Number     Number       Type             X           Y           Z
 ---------------------------------------------------------------------
      1          6           0       -1.897301    0.104387    0.059763
      2          6           0       -0.581388   -0.448941   -0.008134
      3          1           0       -2.776167   -0.663827   -0.122433
      4          1           0       -1.831711    0.481638   -0.629893
      5          1           0       -1.978794    0.911007    1.118677
      6          6           0        0.535530    0.492587   -0.116112
      7          1           0       -0.667325   -1.234411   -0.916487
      8          1           0       -0.478131   -0.922403    0.676648
      9          6           0        1.950652   -0.146538    0.048226
     10          1           0        0.442602    1.022101    0.662060
     11          1           0        0.356577    1.309589   -1.133202
     12          1           0        2.075197   -0.780591    0.972360
     13          1           0        2.694055    0.542570    0.189536
     14          1           0        2.118740   -0.674637   -0.719727
 ---------------------------------------------------------------------

 SCF Done:  E(RB2PLYPD3) =  -157.835869184     A.U. after   11 cycles
 E2(B2PLYPD3) =    -0.2468725514D+00 E(B2PLYPD3) =    -0.15808274173585D+03

 The electronic state is 1-A.
 Alpha  occ. eigenvalues --  -10.60937 -10.58680 -10.58396 -10.57459  -0.95641
 Alpha  occ. eigenvalues --   -0.86207  -0.76175  -0.69594  -0.56303  -0.50485
 Alpha  occ. eigenvalues --   -0.49678  -0.48266  -0.43172  -0.42593  -0.39835
 Alpha  occ. eigenvalues --   -0.37934  -0.35893
 Alpha virt. eigenvalues --    0.05641   0.06757   0.07765   0.08093   0.10837
 Alpha virt. eigenvalues --    0.12198   0.12817   0.13752   0.14656   0.15261
 Alpha virt. eigenvalues --    0.15753   0.16799   0.19749   0.19862   0.21628

 Mulliken charges:
               1
     1  C   -0.375394
     2  C   -0.134506
     3  H    0.052144
     4  H    0.276563
     5  H    0.015776
     6  C   -0.079401
     7  H   -0.009524
     8  H    0.162115
     9  C   -0.125685
    10  H    0.084791
    11  H   -0.005381
    12  H    0.021555
    13  H    0.042754
    14  H    0.074193
 Sum of Mulliken charges =   0.00000

 Dipole moment (field-independent basis, Debye):
    X=              0.3684    Y=             -0.2037    Z=              0.1367  Tot=              0.4426
 Quadrupole moment (field-independent basis, Debye-Ang):
   XX=            -29.1786   YY=            -29.1630   ZZ=            -27.9270
   XY=              0.7656   XZ=              1.1127   YZ=              0.2467

 Normal termination of Gaussian 09 at Wed Aug 26 10:46:58 2020.
