 Gaussian 09, Revision D.01,
 Gaussian 09:  ES64L-G09RevD.01 24-Apr-2013

 --------------------
 #p B2PLYPD3/Def2QZVP
 --------------------

 ----------
 butane_opt
 ----------
 Symbolic Z-matrix:
 Charge =  0 Multiplicity = 1

                         Standard orientation:
 ---------------------------------------------------------------------
 Center     Atomic      Atomic             Coordinates (Angstroms)
 Number     Number       Type             X           Y           Z
 ---------------------------------------------------------------------
      1          6           0       -1.982452    0.044608    0.199961
      2          6           0       -0.584079   -0.408719   -0.226687
      3          1           0       -2.795775   -0.739298    0.084383
      4          1           0       -1.983860    0.498883   -0.530396
      5          1           0       -2.166029    0.717147    1.246192
      6          6           0        0.527418    0.603246   -0.287786
      7          1           0       -0.694039   -1.011569   -1.200271
      8          1           0       -0.157064   -1.047847    0.595743
      9          6           0        1.980157   -0.152964    0.203942
     10          1           0        0.558167    0.948367    0.491645
     11          1           0        0.604484    1.397210   -0.970902
     12          1           0        1.554865   -0.604728    0.922085
     13          1           0        2.731903    0.202021    0.864080
     14          1           0        2.701084   -0.877213   -0.839138
 ---------------------------------------------------------------------

 SCF Done:  E(RB2PLYPD3) =  -157.842760078     A.U. after   11 cycles
 E2(B2PLYPD3) =    -0.2514040964D+00 E(B2PLYPD3) =    -0.15809416417443D+03

 The electronic state is 1-A.
 Alpha  occ. eigenvalues --  -10.62418 -10.62231 -10.59534 -10.59467  -0.93618
 Alpha  occ. eigenvalues --   -0.85579  -0.75514  -0.68192  -0.55724  -0.50891
 Alpha  occ. eigenvalues --   -0.47846  -0.47391  -0.42925  -0.41783  -0.39458
 Alpha  occ. eigenvalues --   -0.36900  -0.33354
 Alpha virt. eigenvalues --    0.05130   0.05961   0.08322   0.08497   0.10236
 Alpha virt. eigenvalues --    0.10995   0.12210   0.13019   0.14560   0.14997
 Alpha virt. eigenvalues --    0.16643   0.17199   0.17336   0.19587   0.21100

 Mulliken charges:
               1
     1  C   -0.282620
     2  C   -0.022307
     3  H    0.050506
     4  H    0.178603
     5  H    0.033804
     6  C   -0.246402
     7  H    0.031065
     8  H    0.029841
     9  C   -0.221614
    10  H    0.228987
    11  H    0.049072
    12  H    0.104551
    13  H    0.055414
    14  H    0.011101
 Sum of Mulliken charges =   0.00000

 Dipole moment (field-independent basis, Debye):
    X=             -0.3925    Y=              0.4107    Z=              0.3898  Tot=              0.6890
 Quadrupole moment (field-independent basis, Debye-Ang):
   XX=            -30.4173   YY=            -29.8642   ZZ=            -27.4410
   XY=              0.8394   XZ=              1.5807   YZ=              0.1869

 Normal termination of Gaussian 09 at Wed Aug 26 12:14:59 2020.
