 Gaussian 09, Revision D.01,
 Gaussian 09:  ES64L-G09RevD.01 24-Apr-2013

 --------------------
 #p B2PLYPD3/Def2QZVP
 --------------------

 ----------
 butane_opt
 ----------
 Symbolic Z-matrix:
 Charge =  0 Multiplicity = 1

                         Standard orientation:
 ---------------------------------------------------------------------
 Center     Atomic      Atomic             Coordinates (Angstroms)
 Number     Number       Type             X           Y           Z
 ---------------------------------------------------------------------
      1          6           0        1.858633    0.039546   -0.060846
      2          6           0        0.573426   -0.376157    0.151925
      3          1           0        2.797881   -0.940868   -0.571829
      4          1           0        2.336570    1.020818    0.764813
      5          1           0        1.519569    0.520811   -0.881490
      6          6           0       -0.541723    0.542751   -0.022276
      7          1           0        0.503823   -1.070590    1.101752
      8          1           0        0.691473   -0.863109   -0.472444
      9          6           0       -1.978836   -0.183333   -0.029337
     10          1           0       -0.391706    0.900624   -0.854360
     11          1           0       -0.258503    1.358901    0.720449
     12          1           0       -2.197640   -0.918864   -0.842570
     13          1           0       -2.702704    0.575669   -0.076164
     14          1           0       -1.767764   -0.720231    0.875045
 ---------------------------------------------------------------------

 SCF Done:  E(RB2PLYPD3) =  -157.826682493     A.U. after   11 cycles
 E2(B2PLYPD3) =    -0.2513759294D+00 E(B2PLYPD3) =    -0.15807805842203D+03

 The electronic state is 1-A.
 Alpha  occ. eigenvalues --  -10.64219 -10.60772 -10.59612 -10.56900  -0.99185
 Alpha  occ. eigenvalues --   -0.85756  -0.73913  -0.67643  -0.58232  -0.51822
 Alpha  occ. eigenvalues --   -0.48917  -0.47732  -0.43666  -0.41808  -0.37691
 Alpha  occ. eigenvalues --   -0.36320  -0.35228
 Alpha virt. eigenvalues --    0.03904   0.06425   0.08163   0.08603   0.10473
 Alpha virt. eigenvalues --    0.10696   0.12543   0.13554   0.14293   0.15056
 Alpha virt. eigenvalues --    0.15337   0.16462   0.18922   0.20652   0.20765

 Mulliken charges:
               1
     1  C   -0.185058
     2  C   -0.253559
     3  H    0.031253
     4  H    0.000432
     5  H    0.072581
     6  C   -0.091727
     7  H    0.005860
     8  H    0.286376
     9  C   -0.154964
    10  H    0.082114
    11  H    0.038546
    12  H    0.040837
    13  H    0.058381
    14  H    0.068928
 Sum of Mulliken charges =   0.00000

 Dipole moment (field-independent basis, Debye):
    X=             -0.5610    Y=             -0.0677    Z=             -0.7398  Tot=              0.9310
 Quadrupole moment (field-independent basis, Debye-Ang):
   XX=            -31.2566   YY=            -29.0427   ZZ=            -28.6686
   XY=             -0.9256   XZ=              0.0982   YZ=              0.6782

 Normal termination of Gaussian 09 at Wed Aug 26 18:53:38 2020.
