 Gaussian 09, Revision D.01,
 Gaussian 09:  ES64L-G09RevD.01 24-Apr-2013

 --------------------
 #p B2PLYPD3/Def2QZVP
 --------------------

 ----------
 butane_opt
 ----------
 Symbolic Z-matrix:
 Charge =  0 Multiplicity = 1

                         Standard orientation:
 ---------------------------------------------------------------------
 Center     Atomic      Atomic             Coordinates (Angstroms)
 Number     Number       Type             X           Y           Z
 ---------------------------------------------------------------------
      1          6           0       -1.972467    0.173449   -0.079889
      2          6           0       -0.510464   -0.597574    0.097845
      3          1           0       -2.753969   -0.461584   -0.398706
      4          1           0       -1.870521    1.544764   -0.892671
      5          1           0       -2.321459    0.373846    0.549753
      6          6           0        0.590636    0.313150    0.345066
      7          1           0       -0.149940   -0.944240   -0.937952
      8          1           0       -0.616421   -1.118115    0.626221
      9          6           0        1.850705   -0.059300   -0.208612
     10          1           0        0.779091    0.953946    1.625277
     11          1           0        0.519185    0.798904   -0.267695
     12          1           0        2.576636   -1.004812    0.421520
     13          1           0        2.811052    1.130970   -0.588645
     14          1           0        1.275889   -0.252033   -1.063562
 ---------------------------------------------------------------------

 SCF Done:  E(RB2PLYPD3) =  -157.415560495     A.U. after   12 cycles
 E2(B2PLYPD3) =    -0.2559758395D+00 E(B2PLYPD3) =    -0.15767153633439D+03

 The electronic state is 1-A.
 Alpha  occ. eigenvalues --  -10.66258 -10.61808 -10.60482 -10.60175  -0.99964
 Alpha  occ. eigenvalues --   -0.88338  -0.79782  -0.67781  -0.58454  -0.52454
 Alpha  occ. eigenvalues --   -0.50275  -0.48101  -0.42384  -0.39899  -0.37041
 Alpha  occ. eigenvalues --   -0.36960  -0.33677
 Alpha virt. eigenvalues --    0.02859   0.03726   0.06242   0.07654   0.08715
 Alpha virt. eigenvalues --    0.10630   0.10730   0.13133   0.13725   0.14663
 Alpha virt. eigenvalues --    0.16223   0.16678   0.17598   0.19622   0.20270

 Mulliken charges:
               1
     1  C   -0.405082
     2  C   -0.307767
     3  H    0.058857
     4  H   -0.008212
     5  H    0.308135
     6  C   -0.395256
     7  H    0.056207
     8  H    0.317961
     9  C   -0.146009
    10  H   -0.003699
    11  H    0.419389
    12  H    0.036208
    13  H    0.006825
    14  H    0.062442
 Sum of Mulliken charges =   0.00000

 Dipole moment (field-independent basis, Debye):
    X=             -0.8056    Y=             -0.8335    Z=              0.1776  Tot=              1.1728
 Quadrupole moment (field-independent basis, Debye-Ang):
   XX=            -30.4381   YY=            -29.8158   ZZ=            -29.7958
   XY=              1.0251   XZ=             -0.9094   YZ=             -0.9902

 Normal termination of Gaussian 09 at Wed Aug 26 22:59:30 2020.
