 Gaussian 09, Revision D.01,
 Gaussian 09:  ES64L-G09RevD.01 24-Apr-2013

 --------------------
 #p B2PLYPD3/Def2QZVP
 --------------------

 ----------
 butane_opt
 ----------
 Symbolic Z-matrix:
 Charge =  0 Multiplicity = 1

                         Standard orientation:
 ---------------------------------------------------------------------
 Center     Atomic      Atomic             Coordinates (Angstroms)
 Number     Number       Type             X           Y           Z
 ---------------------------------------------------------------------
      1          6           0       -2.016695    0.114400   -0.194426
      2          6           0       -0.545995   -0.551767    0.198019
      3          1           0       -2.787756   -0.763399   -0.754663
      4          1           0       -2.012213    0.292353   -0.740018
      5          1           0       -2.722095    1.172505    0.996582
      6          6           0        0.628030    0.495972    0.098736
      7          1           0       -0.444955   -0.663998   -0.328147
      8          1           0       -0.460467   -1.302650    1.356418
      9          6           0        1.988128   -0.110084   -0.111336
     10          1           0        0.594145    1.152250    0.968519
     11          1           0        0.366247    1.255821   -0.839234
     12          1           0        2.200599   -0.592413    0.778517
     13          1           0        2.812608    0.665025   -0.262850
     14          1           0        2.133077   -0.906625   -1.121079
 ---------------------------------------------------------------------

 SCF Done:  E(RB2PLYPD3) =  -156.662745823     A.U. after   12 cycles
 E2(B2PLYPD3) =    -0.2570082187D+00 E(B2PLYPD3) =    -0.15691975404169D+03

 The electronic state is 1-A.
 Alpha  occ. eigenvalues --  -10.65572 -10.63844 -10.63163 -10.62603  -0.97055
 Alpha  occ. eigenvalues --   -0.87644  -0.81484  -0.67877  -0.54987  -0.50725
 Alpha  occ. eigenvalues --   -0.47446  -0.45295  -0.43437  -0.39988  -0.37818
 Alpha  occ. eigenvalues --   -0.36999  -0.34145
 Alpha virt. eigenvalues --    0.01235   0.05302   0.06350   0.06990   0.08438
 Alpha virt. eigenvalues --    0.10735   0.11476   0.11979   0.13545   0.15162
 Alpha virt. eigenvalues --    0.15687   0.16511   0.17478   0.19004   0.19860

 Mulliken charges:
               1
     1  C   -0.781187
     2  C   -1.015977
     3  H    0.048677
     4  H    0.678325
     5  H    0.014384
     6  C    0.013276
     7  H    0.926679
     8  H    0.071096
     9  C   -0.147403
    10  H    0.054676
    11  H   -0.001641
    12  H    0.066879
    13  H    0.049447
    14  H    0.022769
 Sum of Mulliken charges =   0.00000

 Dipole moment (field-independent basis, Debye):
    X=              0.8544    Y=             -0.0625    Z=             -0.2408  Tot=              0.8899
 Quadrupole moment (field-independent basis, Debye-Ang):
   XX=            -31.4689   YY=            -29.9373   ZZ=            -27.1886
   XY=              0.4222   XZ=              1.5298   YZ=              0.1343

 Normal termination of Gaussian 09 at Wed Aug 26 21:34:45 2020.
