 Gaussian 09, Revision D.01,
 Gaussian 09:  ES64L-G09RevD.01 24-Apr-2013

 --------------------
 #p B2PLYPD3/Def2QZVP
 --------------------

 ----------
 butane_opt
 ----------
 Symbolic Z-matrix:
 Charge =  0 Multiplicity = 1

                         Standard orientation:
 ---------------------------------------------------------------------
 Center     Atomic      Atomic             Coordinates (Angstroms)
 Number     Number       Type             X           Y           Z
 ---------------------------------------------------------------------
      1          6           0       -1.945565    0.091702   -0.134748
      2          6           0       -0.666771   -0.400256    0.087272
      3          1           0       -2.752184   -0.759870    0.122412
      4          1           0       -2.014845    1.018654   -1.295668
      5          1           0       -2.042570    0.238499    0.527836
      6          6           0        0.505642    0.550078    0.197131
      7          1           0       -0.332544   -1.021341   -0.745424
      8          1           0       -0.877643   -1.299557    1.018427
      9          6           0        2.030305   -0.162753   -0.197617
     10          1           0        0.556471    1.607185    1.484035
     11          1           0        0.264661    0.809986   -0.396916
     12          1           0        2.644016   -1.216403    0.883459
     13          1           0        2.905696    0.678808   -0.324971
     14          1           0        2.107273   -0.528587   -0.985415
 ---------------------------------------------------------------------

 SCF Done:  E(RB2PLYPD3) =  -157.243757918     A.U. after   12 cycles
 E2(B2PLYPD3) =    -0.2590866331D+00 E(B2PLYPD3) =    -0.15750284455157D+03

 The electronic state is 1-A.
 Alpha  occ. eigenvalues --  -10.65719 -10.64390 -10.63552 -10.60657  -0.98920
 Alpha  occ. eigenvalues --   -0.89525  -0.78685  -0.68550  -0.54462  -0.50784
 Alpha  occ. eigenvalues --   -0.48847  -0.46398  -0.41807  -0.40283  -0.36877
 Alpha  occ. eigenvalues --   -0.35060  -0.34242
 Alpha virt. eigenvalues --    0.02216   0.03469   0.04363   0.05604   0.08688
 Alpha virt. eigenvalues --    0.09912   0.11253   0.12110   0.13414   0.14170
 Alpha virt. eigenvalues --    0.15302   0.16164   0.18061   0.18906   0.19610

 Mulliken charges:
               1
     1  C   -0.664200
     2  C    0.053048
     3  H    0.063347
     4  H    0.044048
     5  H    0.526361
     6  C   -0.650464
     7  H    0.037497
     8  H   -0.014635
     9  C   -0.220935
    10  H    0.002819
    11  H    0.613586
    12  H    0.006611
    13  H    0.045288
    14  H    0.157629
 Sum of Mulliken charges =   0.00000

 Dipole moment (field-independent basis, Debye):
    X=             -0.4175    Y=             -0.0459    Z=             -0.7729  Tot=              0.8797
 Quadrupole moment (field-independent basis, Debye-Ang):
   XX=            -30.2635   YY=            -30.7033   ZZ=            -28.7438
   XY=              0.9335   XZ=             -2.6765   YZ=             -0.6316

 Normal termination of Gaussian 09 at Wed Aug 26 09:49:26 2020.
