 Gaussian 09, Revision D.01,
 Gaussian 09:  ES64L-G09RevD.01 24-Apr-2013

 --------------------
 #p B2PLYPD3/Def2QZVP
 --------------------

 ----------
 butane_opt
 ----------
 Symbolic Z-matrix:
 Charge =  0 Multiplicity = 1

                         Standard orientation:
 ---------------------------------------------------------------------
 Center     Atomic      Atomic             Coordinates (Angstroms)
 Number     Number       Type             X           Y           Z
 ---------------------------------------------------------------------
      1          6           0       -1.852418    0.036407   -0.238896
      2          6           0       -0.562029   -0.416027    0.349110
      3          1           0       -2.741296   -0.828117   -0.755591
      4          1           0       -1.438038    0.284911   -0.932717
      5          1           0       -2.397781    1.172396    0.660344
      6          6           0        0.495092    0.517423    0.126983
      7          1           0       -0.270531   -0.871788   -0.224124
      8          1           0       -0.901042   -1.012556    1.328771
      9          6           0        1.945369   -0.147063   -0.114164
     10          1           0        0.376571    1.054579    0.805850
     11          1           0        0.013618    1.130061   -0.954885
     12          1           0        2.295206   -0.348664    0.726751
     13          1           0        2.831770    0.610422   -0.374748
     14          1           0        2.075442   -1.135683   -1.017853
 ---------------------------------------------------------------------

 SCF Done:  E(RB2PLYPD3) =  -157.656718173     A.U. after   11 cycles
 E2(B2PLYPD3) =    -0.2543497516D+00 E(B2PLYPD3) =    -0.15791106792489D+03

 The electronic state is 1-A.
 Alpha  occ. eigenvalues --  -10.63404 -10.63019 -10.61763 -10.57533  -0.98342
 Alpha  occ. eigenvalues --   -0.84447  -0.75801  -0.70442  -0.58312  -0.48985
 Alpha  occ. eigenvalues --   -0.48626  -0.45114  -0.42687  -0.40526  -0.39131
 Alpha  occ. eigenvalues --   -0.36634  -0.34605
 Alpha virt. eigenvalues --    0.03842   0.05074   0.07233   0.08304   0.09777
 Alpha virt. eigenvalues --    0.10403   0.11541   0.12856   0.13185   0.15003
 Alpha virt. eigenvalues --    0.16150   0.16711   0.18166   0.19295   0.20308

 Mulliken charges:
               1
     1  C   -0.270151
     2  C   -0.359821
     3  H    0.037936
     4  H    0.204006
     5  H   -0.003243
     6  C   -0.138801
     7  H    0.328413
     8  H    0.046069
     9  C   -0.162617
    10  H    0.148647
    11  H    0.006758
    12  H    0.095063
    13  H    0.029745
    14  H    0.037996
 Sum of Mulliken charges =   0.00000

 Dipole moment (field-independent basis, Debye):
    X=              0.8608    Y=             -0.3744    Z=              0.0201  Tot=              0.9389
 Quadrupole moment (field-independent basis, Debye-Ang):
   XX=            -30.5143   YY=            -30.1474   ZZ=            -28.3876
   XY=              0.8518   XZ=              0.7825   YZ=              1.2040

 Normal termination of Gaussian 09 at Wed Aug 26 14:28:52 2020.
