 Gaussian 09, Revision D.01,
 Gaussian 09:  ES64L-G09RevD.01 24-Apr-2013

 --------------------
 #p B2PLYPD3/Def2QZVP
 --------------------

 ----------
 butane_opt
 ----------
 Symbolic Z-matrix:
 Charge =  0 Multiplicity = 1

                         Standard orientation:
 ---------------------------------------------------------------------
 Center     Atomic      Atomic             Coordinates (Angstroms)
 Number     Number       Type             X           Y           Z
 ---------------------------------------------------------------------
      1          6           0       -1.879932    0.062894   -0.143583
      2          6           0       -0.626378   -0.439549    0.358104
      3          1           0       -2.813439   -0.897957   -0.879775
      4          1           0       -1.578538    0.515114   -1.051244
      5          1           0       -2.716732    0.966149    0.591952
      6          6           0        0.547809    0.598678    0.048932
      7          1           0       -0.741607   -1.229287   -0.304120
      8          1           0       -0.759372   -1.007941    1.425741
      9          6           0        2.057921   -0.176302   -0.103306
     10          1           0        0.650923    1.521132    0.812032
     11          1           0        0.136129    1.143709   -0.885735
     12          1           0        2.583487   -0.358251    0.643527
     13          1           0        2.622873    0.253863   -0.408476
     14          1           0        2.019753   -1.180861   -0.904788
 ---------------------------------------------------------------------

 SCF Done:  E(RB2PLYPD3) =  -157.773889825     A.U. after   11 cycles
 E2(B2PLYPD3) =    -0.2545640806D+00 E(B2PLYPD3) =    -0.15802845390580D+03

 The electronic state is 1-A.
 Alpha  occ. eigenvalues --  -10.66243 -10.65985 -10.62474 -10.58458  -0.92178
 Alpha  occ. eigenvalues --   -0.87260  -0.74140  -0.65751  -0.51991  -0.49891
 Alpha  occ. eigenvalues --   -0.48024  -0.47229  -0.42876  -0.40797  -0.39195
 Alpha  occ. eigenvalues --   -0.36340  -0.33130
 Alpha virt. eigenvalues --    0.03413   0.05822   0.07452   0.07571   0.09189
 Alpha virt. eigenvalues --    0.09797   0.12167   0.13594   0.14440   0.14926
 Alpha virt. eigenvalues --    0.15676   0.17519   0.18066   0.18597   0.20421

 Mulliken charges:
               1
     1  C   -0.177181
     2  C   -0.039192
     3  H   -0.011849
     4  H    0.077806
     5  H    0.016129
     6  C   -0.053083
     7  H    0.090474
     8  H    0.035570
     9  C   -0.343089
    10  H    0.033077
    11  H    0.041837
    12  H    0.050458
    13  H    0.252084
    14  H    0.026958
 Sum of Mulliken charges =   0.00000

 Dipole moment (field-independent basis, Debye):
    X=              1.1562    Y=              0.3116    Z=             -0.2012  Tot=              1.2142
 Quadrupole moment (field-independent basis, Debye-Ang):
   XX=            -30.8441   YY=            -29.4633   ZZ=            -29.1616
   XY=              0.5201   XZ=              0.5990   YZ=              0.3045

 Normal termination of Gaussian 09 at Wed Aug 26 21:23:19 2020.
