 Gaussian 09, Revision D.01,
 Gaussian 09:  ES64L-G09RevD.01 24-Apr-2013

 --------------------
 #p B2PLYPD3/Def2QZVP
 --------------------

 ----------
 butane_opt
 ----------
 Symbolic Z-matrix:
 Charge =  0 Multiplicity = 1

                         Standard orientation:
 ---------------------------------------------------------------------
 Center     Atomic      Atomic             Coordinates (Angstroms)
 Number     Number       Type             X           Y           Z
 ---------------------------------------------------------------------
      1          6           0        1.966598   -0.091139   -0.033220
      2          6           0        0.592001    0.594324    0.120276
      3          1           0        2.792429    0.558245   -0.500806
      4          1           0        2.084765   -1.106031   -1.110563
      5          1           0        2.483743   -0.788033    0.843738
      6          6           0       -0.580875   -0.508019    0.199738
      7          1           0        0.077255    1.348478   -0.971981
      8          1           0        0.629447    1.230377    0.843088
      9          6           0       -1.971525    0.040237   -0.147537
     10          1           0       -0.831989   -1.198362    1.262322
     11          1           0       -0.385188   -1.149139   -0.637661
     12          1           0       -2.500668    1.108929    0.846001
     13          1           0       -2.558644   -0.591845   -0.576420
     14          1           0       -1.828344    0.374962   -0.833270
 ---------------------------------------------------------------------

 SCF Done:  E(RB2PLYPD3) =  -157.759519854     A.U. after   11 cycles
 E2(B2PLYPD3) =    -0.2551733366D+00 E(B2PLYPD3) =    -0.15801469319031D+03

 The electronic state is 1-A.
 Alpha  occ. eigenvalues --  -10.66647 -10.65160 -10.63757 -10.59050  -0.92245
 Alpha  occ. eigenvalues --   -0.85352  -0.72901  -0.67164  -0.53272  -0.50879
 Alpha  occ. eigenvalues --   -0.47451  -0.45818  -0.42403  -0.39813  -0.36607
 Alpha  occ. eigenvalues --   -0.35894  -0.34833
 Alpha virt. eigenvalues --    0.04041   0.04488   0.05761   0.07825   0.09097
 Alpha virt. eigenvalues --    0.10469   0.11314   0.12018   0.12500   0.14368
 Alpha virt. eigenvalues --    0.15821   0.17296   0.18675   0.19192   0.19931

 Mulliken charges:
               1
     1  C   -0.166862
     2  C   -0.044068
     3  H    0.064550
     4  H   -0.022346
     5  H    0.073181
     6  C   -0.052232
     7  H   -0.003596
     8  H    0.095540
     9  C   -0.398857
    10  H    0.026707
    11  H    0.069180
    12  H    0.006969
    13  H    0.058383
    14  H    0.293451
 Sum of Mulliken charges =   0.00000

 Dipole moment (field-independent basis, Debye):
    X=              0.2817    Y=              0.0783    Z=             -0.2282  Tot=              0.3709
 Quadrupole moment (field-independent basis, Debye-Ang):
   XX=            -30.4901   YY=            -30.1046   ZZ=            -29.0538
   XY=              1.0066   XZ=              2.0584   YZ=              0.5105

 Normal termination of Gaussian 09 at Wed Aug 26 21:32:22 2020.
