 Gaussian 09, Revision D.01,
 Gaussian 09:  ES64L-G09RevD.01 24-Apr-2013

 --------------------
 #p B2PLYPD3/Def2QZVP
 --------------------

 ----------
 butane_opt
 ----------
 Symbolic Z-matrix:
 Charge =  0 Multiplicity = 1

                         Standard orientation:
 ---------------------------------------------------------------------
 Center     Atomic      Atomic             Coordinates (Angstroms)
 Number     Number       Type             X           Y           Z
 ---------------------------------------------------------------------
      1          6           0        1.904519   -0.090005   -0.069138
      2          6           0        0.553624    0.424214    0.114110
      3          1           0        2.693839    0.577568   -0.665533
      4          1           0        1.605571   -0.904061   -0.969622
      5          1           0        2.149680   -0.427150    0.769022
      6          6           0       -0.494624   -0.535527    0.235955
      7          1           0        0.345769    1.055511   -0.889785
      8          1           0        0.640378    1.167083    0.925521
      9          6           0       -1.986583    0.179782   -0.141465
     10          1           0       -0.319301   -1.020956    1.143773
     11          1           0       -0.329415   -0.909367   -0.530919
     12          1           0       -2.369591    0.936826    0.850503
     13          1           0       -2.788838   -0.733630   -0.656377
     14          1           0       -1.489704    0.387397   -0.813359
 ---------------------------------------------------------------------

 SCF Done:  E(RB2PLYPD3) =  -157.851249342     A.U. after   11 cycles
 E2(B2PLYPD3) =    -0.2522904172D+00 E(B2PLYPD3) =    -0.15810353975943D+03

 The electronic state is 1-A.
 Alpha  occ. eigenvalues --  -10.62833 -10.60873 -10.60650 -10.58340  -0.96066
 Alpha  occ. eigenvalues --   -0.84997  -0.74601  -0.66105  -0.59324  -0.51779
 Alpha  occ. eigenvalues --   -0.48371  -0.46841  -0.45319  -0.39597  -0.38076
 Alpha  occ. eigenvalues --   -0.36537  -0.34283
 Alpha virt. eigenvalues --    0.05048   0.06024   0.07926   0.08490   0.10278
 Alpha virt. eigenvalues --    0.10962   0.11522   0.12671   0.14587   0.15387
 Alpha virt. eigenvalues --    0.16127   0.16684   0.17943   0.19254   0.21172

 Mulliken charges:
               1
     1  C   -0.162534
     2  C   -0.024912
     3  H    0.058658
     4  H    0.004023
     5  H    0.083987
     6  C   -0.198253
     7  H    0.002607
     8  H    0.019771
     9  C   -0.299371
    10  H    0.053594
    11  H    0.168294
    12  H    0.072694
    13  H    0.028699
    14  H    0.192744
 Sum of Mulliken charges =   0.00000

 Dipole moment (field-independent basis, Debye):
    X=              0.4857    Y=              0.0053    Z=              0.1910  Tot=              0.5219
 Quadrupole moment (field-independent basis, Debye-Ang):
   XX=            -30.9438   YY=            -30.5152   ZZ=            -27.4287
   XY=              0.8091   XZ=              0.1053   YZ=              0.5380

 Normal termination of Gaussian 09 at Wed Aug 26 16:31:19 2020.
