 Gaussian 09, Revision D.01,
 Gaussian 09:  ES64L-G09RevD.01 24-Apr-2013

 --------------------
 #p B2PLYPD3/Def2QZVP
 --------------------

 ----------
 butane_opt
 ----------
 Symbolic Z-matrix:
 Charge =  0 Multiplicity = 1

                         Standard orientation:
 ---------------------------------------------------------------------
 Center     Atomic      Atomic             Coordinates (Angstroms)
 Number     Number       Type             X           Y           Z
 ---------------------------------------------------------------------
      1          6           0        1.890689    0.024476   -0.145913
      2          6           0        0.533607   -0.420396    0.209155
      3          1           0        2.672099   -0.800760   -0.415084
      4          1           0        2.192865    1.017746    0.862869
      5          1           0        1.815726    0.361324   -1.033952
      6          6           0       -0.554805    0.543711   -0.003778
      7          1           0        0.286368   -1.297111    1.578189
      8          1           0        0.559437   -0.850662   -0.350362
      9          6           0       -1.888522   -0.151434   -0.060504
     10          1           0       -0.316234    1.089536   -0.891632
     11          1           0       -0.353746    1.568164    0.811188
     12          1           0       -2.124193   -1.108926   -1.112426
     13          1           0       -2.453350    0.355805    0.087934
     14          1           0       -2.164783   -0.313253    0.469513
 ---------------------------------------------------------------------

 SCF Done:  E(RB2PLYPD3) =  -157.094783097     A.U. after   12 cycles
 E2(B2PLYPD3) =    -0.2541743982D+00 E(B2PLYPD3) =    -0.15734895749536D+03

 The electronic state is 1-A.
 Alpha  occ. eigenvalues --  -10.63444 -10.63119 -10.60486 -10.57227  -1.00866
 Alpha  occ. eigenvalues --   -0.95741  -0.79018  -0.70313  -0.55649  -0.52699
 Alpha  occ. eigenvalues --   -0.50039  -0.46383  -0.43794  -0.40107  -0.38133
 Alpha  occ. eigenvalues --   -0.35919  -0.33512
 Alpha virt. eigenvalues --    0.03260   0.05076   0.05540   0.07200   0.09712
 Alpha virt. eigenvalues --    0.10369   0.11716   0.12969   0.14296   0.15208
 Alpha virt. eigenvalues --    0.16155   0.16423   0.18233   0.19255   0.19637

 Mulliken charges:
               1
     1  C   -0.164250
     2  C   -0.559470
     3  H    0.049727
     4  H    0.015898
     5  H    0.089438
     6  C    0.089645
     7  H   -0.038370
     8  H    0.541637
     9  C   -0.814631
    10  H    0.044473
    11  H   -0.010762
    12  H    0.046708
    13  H    0.181830
    14  H    0.528127
 Sum of Mulliken charges =   0.00000

 Dipole moment (field-independent basis, Debye):
    X=             -0.5413    Y=              0.1492    Z=             -1.0189  Tot=              1.1634
 Quadrupole moment (field-independent basis, Debye-Ang):
   XX=            -28.6002   YY=            -29.8689   ZZ=            -28.6359
   XY=             -0.8927   XZ=             -2.8188   YZ=              1.4922

 Normal termination of Gaussian 09 at Wed Aug 26 11:17:55 2020.
