 Gaussian 09, Revision D.01,
 Gaussian 09:  ES64L-G09RevD.01 24-Apr-2013

 --------------------
 #p B2PLYPD3/Def2QZVP
 --------------------

 ----------
 butane_opt
 ----------
 Symbolic Z-matrix:
 Charge =  0 Multiplicity = 1

                         Standard orientation:
 ---------------------------------------------------------------------
 Center     Atomic      Atomic             Coordinates (Angstroms)
 Number     Number       Type             X           Y           Z
 ---------------------------------------------------------------------
      1          6           0       -1.952858   -0.112280   -0.190017
      2          6           0       -0.656801    0.398347    0.212424
      3          1           0       -2.946301    0.860456   -0.709172
      4          1           0       -2.082815   -0.968674    0.717674
      5          1           0       -1.705271   -0.468253   -0.799207
      6          6           0        0.542705   -0.569846    0.144205
      7          1           0       -0.663220    1.589532    1.576890
      8          1           0       -0.281546    0.843841   -0.385122
      9          6           0        2.016076    0.180579   -0.183380
     10          1           0        0.342045   -1.096589   -0.692023
     11          1           0        0.795783   -1.413211    1.009123
     12          1           0        1.980816    0.987211   -1.066590
     13          1           0        2.651080   -0.344773   -0.249479
     14          1           0        2.214694    0.629659    0.698516
 ---------------------------------------------------------------------

 SCF Done:  E(RB2PLYPD3) =  -157.584902422     A.U. after   12 cycles
 E2(B2PLYPD3) =    -0.2543974635D+00 E(B2PLYPD3) =    -0.15783929988516D+03

 The electronic state is 1-A.
 Alpha  occ. eigenvalues --  -10.64171 -10.63716 -10.62511 -10.58997  -0.96552
 Alpha  occ. eigenvalues --   -0.86749  -0.78623  -0.69136  -0.55964  -0.52250
 Alpha  occ. eigenvalues --   -0.49131  -0.47295  -0.44356  -0.42173  -0.38758
 Alpha  occ. eigenvalues --   -0.37192  -0.31494
 Alpha virt. eigenvalues --    0.01477   0.04450   0.06160   0.07691   0.09427
 Alpha virt. eigenvalues --    0.11052   0.11506   0.13312   0.13542   0.14932
 Alpha virt. eigenvalues --    0.15311   0.16686   0.17192   0.18972   0.20102

 Mulliken charges:
               1
     1  C   -0.514616
     2  C   -0.187806
     3  H    0.053160
     4  H    0.077739
     5  H    0.395403
     6  C   -0.070295
     7  H   -0.087351
     8  H    0.247298
     9  C   -0.262706
    10  H    0.069719
    11  H    0.016360
    12  H    0.032229
    13  H    0.160203
    14  H    0.070663
 Sum of Mulliken charges =   0.00000

 Dipole moment (field-independent basis, Debye):
    X=              0.7085    Y=             -0.9652    Z=             -1.3679  Tot=              1.8178
 Quadrupole moment (field-independent basis, Debye-Ang):
   XX=            -29.2604   YY=            -30.2751   ZZ=            -29.7260
   XY=             -0.2732   XZ=              1.5462   YZ=             -1.8908

 Normal termination of Gaussian 09 at Wed Aug 26 09:49:38 2020.
