 Gaussian 09, Revision D.01,
 Gaussian 09:  ES64L-G09RevD.01 24-Apr-2013

 --------------------
 #p B2PLYPD3/Def2QZVP
 --------------------

 ----------
 butane_opt
 ----------
 Symbolic Z-matrix:
 Charge =  0 Multiplicity = 1

                         Standard orientation:
 ---------------------------------------------------------------------
 Center     Atomic      Atomic             Coordinates (Angstroms)
 Number     Number       Type             X           Y           Z
 ---------------------------------------------------------------------
      1          6           0        1.875482    0.077365    0.095789
      2          6           0        0.573868   -0.509288   -0.136001
      3          1           0        2.660075   -0.725908   -0.153089
      4          1           0        1.994195    0.980246    1.168104
      5          1           0        1.905507    0.422833   -0.460857
      6          6           0       -0.518914    0.516503   -0.199627
      7          1           0        0.326989   -1.241978    0.859917
      8          1           0        0.554175   -0.799183   -0.685773
      9          6           0       -1.867582   -0.110899    0.117477
     10          1           0       -0.422198    1.308046   -1.120894
     11          1           0       -0.153172    1.130898    0.609142
     12          1           0       -2.383956   -0.813779   -0.825904
     13          1           0       -2.633968    0.430981    0.537059
     14          1           0       -2.224772   -0.534238    0.806469
 ---------------------------------------------------------------------

 SCF Done:  E(RB2PLYPD3) =  -157.215598141     A.U. after   12 cycles
 E2(B2PLYPD3) =    -0.2508608339D+00 E(B2PLYPD3) =    -0.15746645897464D+03

 The electronic state is 1-A.
 Alpha  occ. eigenvalues --  -10.62204 -10.59022 -10.58778 -10.57745  -0.97856
 Alpha  occ. eigenvalues --   -0.88177  -0.80584  -0.73103  -0.57754  -0.53075
 Alpha  occ. eigenvalues --   -0.49682  -0.45614  -0.42927  -0.41113  -0.37821
 Alpha  occ. eigenvalues --   -0.37092  -0.34838
 Alpha virt. eigenvalues --    0.04708   0.06243   0.07664   0.08724   0.10601
 Alpha virt. eigenvalues --    0.11307   0.12050   0.13953   0.14646   0.15561
 Alpha virt. eigenvalues --    0.15908   0.17248   0.19277   0.19922   0.20524

 Mulliken charges:
               1
     1  C   -0.711751
     2  C   -0.608767
     3  H    0.070711
     4  H    0.037290
     5  H    0.581891
     6  C   -0.005012
     7  H    0.039299
     8  H    0.576878
     9  C   -0.191805
    10  H    0.029153
    11  H    0.043628
    12  H    0.006040
    13  H    0.032061
    14  H    0.100384
 Sum of Mulliken charges =   0.00000

 Dipole moment (field-independent basis, Debye):
    X=             -0.0293    Y=              0.1074    Z=             -0.0198  Tot=              0.1131
 Quadrupole moment (field-independent basis, Debye-Ang):
   XX=            -28.9678   YY=            -29.1463   ZZ=            -27.4729
   XY=              0.3591   XZ=             -2.8646   YZ=              0.6189

 Normal termination of Gaussian 09 at Wed Aug 26 14:45:16 2020.
