 Gaussian 09, Revision D.01,
 Gaussian 09:  ES64L-G09RevD.01 24-Apr-2013

 --------------------
 #p B2PLYPD3/Def2QZVP
 --------------------

 ----------
 butane_opt
 ----------
 Symbolic Z-matrix:
 Charge =  0 Multiplicity = 1

                         Standard orientation:
 ---------------------------------------------------------------------
 Center     Atomic      Atomic             Coordinates (Angstroms)
 Number     Number       Type             X           Y           Z
 ---------------------------------------------------------------------
      1          6           0       -1.898391    0.083045    0.215407
      2          6           0       -0.534024   -0.468281   -0.269970
      3          1           0       -2.879506   -0.908435    0.113334
      4          1           0       -2.260159    0.596758   -0.532077
      5          1           0       -1.517917    0.819892    1.256518
      6          6           0        0.476389    0.552435   -0.180577
      7          1           0       -0.628705   -1.006504   -1.072461
      8          1           0       -0.276183   -1.025169    0.535912
      9          6           0        1.973669   -0.144216    0.163756
     10          1           0        0.343555    1.239013    0.750132
     11          1           0        0.474045    1.468363   -1.049296
     12          1           0        2.066690   -1.090859    1.108649
     13          1           0        2.522037    0.512991    0.037906
     14          1           0        2.050286   -0.743940   -0.720314
 ---------------------------------------------------------------------

 SCF Done:  E(RB2PLYPD3) =  -157.889553153     A.U. after   11 cycles
 E2(B2PLYPD3) =    -0.2532555070D+00 E(B2PLYPD3) =    -0.15814280866047D+03

 The electronic state is 1-A.
 Alpha  occ. eigenvalues --  -10.63718 -10.63558 -10.60645 -10.58146  -0.92594
 Alpha  occ. eigenvalues --   -0.82846  -0.73364  -0.66851  -0.55923  -0.52063
 Alpha  occ. eigenvalues --   -0.46816  -0.44582  -0.43815  -0.40151  -0.38062
 Alpha  occ. eigenvalues --   -0.36557  -0.34084
 Alpha virt. eigenvalues --    0.04365   0.05662   0.07205   0.08082   0.10328
 Alpha virt. eigenvalues --    0.11257   0.11852   0.13421   0.14216   0.14766
 Alpha virt. eigenvalues --    0.15173   0.15899   0.18065   0.19334   0.20587

 Mulliken charges:
               1
     1  C   -0.168064
     2  C   -0.071954
     3  H    0.000458
     4  H    0.075290
     5  H    0.046825
     6  C   -0.034843
     7  H    0.045733
     8  H    0.085974
     9  C   -0.241175
    10  H    0.013788
    11  H    0.012190
    12  H    0.049913
    13  H    0.136333
    14  H    0.049529
 Sum of Mulliken charges =   0.00000

 Dipole moment (field-independent basis, Debye):
    X=              0.4038    Y=             -0.0197    Z=             -0.4804  Tot=              0.6279
 Quadrupole moment (field-independent basis, Debye-Ang):
   XX=            -31.4817   YY=            -28.7612   ZZ=            -28.9620
   XY=              0.2341   XZ=              1.4869   YZ=              0.1916

 Normal termination of Gaussian 09 at Wed Aug 26 11:24:06 2020.
