 Gaussian 09, Revision D.01,
 Gaussian 09:  ES64L-G09RevD.01 24-Apr-2013

 --------------------
 #p B2PLYPD3/Def2QZVP
 --------------------

 ----------
 butane_opt
 ----------
 Symbolic Z-matrix:
 Charge =  0 Multiplicity = 1

                         Standard orientation:
 ---------------------------------------------------------------------
 Center     Atomic      Atomic             Coordinates (Angstroms)
 Number     Number       Type             X           Y           Z
 ---------------------------------------------------------------------
      1          6           0        2.025364    0.133203   -0.135638
      2          6           0        0.493632   -0.532922    0.214953
      3          1           0        2.792633   -0.701018   -0.617582
      4          1           0        2.391138    1.097197    0.855005
      5          1           0        1.851871    0.611374   -0.857108
      6          6           0       -0.569865    0.480244    0.099250
      7          1           0        0.428019   -1.347741    1.160310
      8          1           0        0.169033   -1.094073   -0.681997
      9          6           0       -1.899161   -0.165808   -0.152596
     10          1           0       -0.510596    0.877839   -0.724598
     11          1           0       -0.710047    1.381478    1.157503
     12          1           0       -1.857764   -0.316371   -0.837321
     13          1           0       -2.727186    0.793150   -0.373406
     14          1           0       -2.126925   -0.790140    0.763382
 ---------------------------------------------------------------------

 SCF Done:  E(RB2PLYPD3) =  -157.670497692     A.U. after   11 cycles
 E2(B2PLYPD3) =    -0.2528056442D+00 E(B2PLYPD3) =    -0.15792330333606D+03

 The electronic state is 1-A.
 Alpha  occ. eigenvalues --  -10.64060 -10.63687 -10.61224 -10.58797  -0.95379
 Alpha  occ. eigenvalues --   -0.84406  -0.75838  -0.66876  -0.58244  -0.49669
 Alpha  occ. eigenvalues --   -0.48155  -0.45249  -0.42911  -0.40972  -0.38736
 Alpha  occ. eigenvalues --   -0.36073  -0.34936
 Alpha virt. eigenvalues --    0.04602   0.05269   0.07381   0.07879   0.10428
 Alpha virt. eigenvalues --    0.10702   0.11522   0.12210   0.13433   0.15483
 Alpha virt. eigenvalues --    0.15973   0.16659   0.18408   0.19030   0.20635

 Mulliken charges:
               1
     1  C   -0.265151
     2  C   -0.040789
     3  H    0.046985
     4  H    0.037313
     5  H    0.161930
     6  C   -0.080999
     7  H    0.033981
     8  H    0.037663
     9  C   -0.630658
    10  H    0.126972
    11  H   -0.004717
    12  H    0.445586
    13  H    0.031104
    14  H    0.100780
 Sum of Mulliken charges =   0.00000

 Dipole moment (field-independent basis, Debye):
    X=             -0.1681    Y=             -0.2896    Z=             -0.9063  Tot=              0.9662
 Quadrupole moment (field-independent basis, Debye-Ang):
   XX=            -31.8755   YY=            -29.7947   ZZ=            -27.8284
   XY=              0.0905   XZ=             -0.6342   YZ=             -0.4971

 Normal termination of Gaussian 09 at Wed Aug 26 15:43:06 2020.
