 Gaussian 09, Revision D.01,
 Gaussian 09:  ES64L-G09RevD.01 24-Apr-2013

 --------------------
 #p B2PLYPD3/Def2QZVP
 --------------------

 ----------
 butane_opt
 ----------
 Symbolic Z-matrix:
 Charge =  0 Multiplicity = 1

                         Standard orientation:
 ---------------------------------------------------------------------
 Center     Atomic      Atomic             Coordinates (Angstroms)
 Number     Number       Type             X           Y           Z
 ---------------------------------------------------------------------
      1          6           0        1.932846    0.010866   -0.129988
      2          6           0        0.550249   -0.447855    0.304549
      3          1           0        2.819056   -0.853178   -0.661153
      4          1           0        2.705056    1.209922    0.795129
      5          1           0        1.479857    0.291170   -1.037663
      6          6           0       -0.492521    0.596665   -0.073107
      7          1           0        0.460244   -1.144805    1.411881
      8          1           0        0.606276   -0.952801   -0.429486
      9          6           0       -1.994062   -0.191318   -0.066459
     10          1           0       -0.430133    0.955666   -1.029927
     11          1           0       -0.438803    1.695763    0.890229
     12          1           0       -2.138180   -1.094648   -0.890902
     13          1           0       -2.811889    0.633126   -0.081840
     14          1           0       -2.230557   -0.550362    0.823758
 ---------------------------------------------------------------------

 SCF Done:  E(RB2PLYPD3) =  -157.805959881     A.U. after   12 cycles
 E2(B2PLYPD3) =    -0.2583657362D+00 E(B2PLYPD3) =    -0.15806432561736D+03

 The electronic state is 1-A.
 Alpha  occ. eigenvalues --  -10.67360 -10.65962 -10.62700 -10.62628  -0.94825
 Alpha  occ. eigenvalues --   -0.82501  -0.72037  -0.65855  -0.54264  -0.48995
 Alpha  occ. eigenvalues --   -0.47021  -0.46000  -0.42687  -0.38713  -0.37731
 Alpha  occ. eigenvalues --   -0.37150  -0.32898
 Alpha virt. eigenvalues --    0.02135   0.05181   0.06515   0.07039   0.07663
 Alpha virt. eigenvalues --    0.09756   0.11458   0.12576   0.13830   0.14174
 Alpha virt. eigenvalues --    0.15518   0.16019   0.18267   0.18967   0.19966

 Mulliken charges:
               1
     1  C   -0.176569
     2  C   -0.189677
     3  H    0.043230
     4  H   -0.014799
     5  H    0.084179
     6  C   -0.086323
     7  H    0.038538
     8  H    0.206340
     9  C   -0.153447
    10  H    0.093039
    11  H    0.003447
    12  H    0.039375
    13  H    0.042443
    14  H    0.070225
 Sum of Mulliken charges =   0.00000

 Dipole moment (field-independent basis, Debye):
    X=             -0.8110    Y=             -0.8134    Z=             -0.7510  Tot=              1.3723
 Quadrupole moment (field-independent basis, Debye-Ang):
   XX=            -32.7815   YY=            -30.4860   ZZ=            -28.7964
   XY=             -1.2788   XZ=             -1.4451   YZ=              0.4099

 Normal termination of Gaussian 09 at Wed Aug 26 23:24:36 2020.
