 Gaussian 09, Revision D.01,
 Gaussian 09:  ES64L-G09RevD.01 24-Apr-2013

 --------------------
 #p B2PLYPD3/Def2QZVP
 --------------------

 ----------
 butane_opt
 ----------
 Symbolic Z-matrix:
 Charge =  0 Multiplicity = 1

                         Standard orientation:
 ---------------------------------------------------------------------
 Center     Atomic      Atomic             Coordinates (Angstroms)
 Number     Number       Type             X           Y           Z
 ---------------------------------------------------------------------
      1          6           0        1.922825    0.082494   -0.156409
      2          6           0        0.639105   -0.492738    0.056650
      3          1           0        2.740775   -0.701126    0.404880
      4          1           0        1.878913    0.309688    0.487975
      5          1           0        2.221745    0.908859   -1.210861
      6          6           0       -0.572120    0.577569    0.126287
      7          1           0        0.857742   -1.291395    1.119893
      8          1           0        0.318119   -0.863423   -0.681958
      9          6           0       -2.042992   -0.130333   -0.102245
     10          1           0       -0.327432    1.172666   -0.665664
     11          1           0       -0.367341    1.557996    1.313819
     12          1           0       -2.415880   -0.996159   -1.018381
     13          1           0       -2.449129    0.344325    0.004555
     14          1           0       -2.138428   -0.663377    0.700042
 ---------------------------------------------------------------------

 SCF Done:  E(RB2PLYPD3) =  -157.208772716     A.U. after   12 cycles
 E2(B2PLYPD3) =    -0.2547581254D+00 E(B2PLYPD3) =    -0.15746353084149D+03

 The electronic state is 1-A.
 Alpha  occ. eigenvalues --  -10.65674 -10.61479 -10.59329 -10.58659  -0.96206
 Alpha  occ. eigenvalues --   -0.90180  -0.79082  -0.67631  -0.55165  -0.52164
 Alpha  occ. eigenvalues --   -0.47487  -0.45928  -0.44586  -0.40978  -0.39766
 Alpha  occ. eigenvalues --   -0.35616  -0.33485
 Alpha virt. eigenvalues --    0.03023   0.05459   0.06157   0.06785   0.10269
 Alpha virt. eigenvalues --    0.11455   0.11996   0.12890   0.14091   0.14543
 Alpha virt. eigenvalues --    0.16145   0.16493   0.18266   0.18525   0.19718

 Mulliken charges:
               1
     1  C   -0.721805
     2  C   -0.085279
     3  H    0.039872
     4  H    0.569029
     5  H    0.067481
     6  C   -0.059931
     7  H    0.008174
     8  H    0.144049
     9  C   -0.651525
    10  H    0.077101
    11  H   -0.022696
    12  H    0.056550
    13  H    0.492020
    14  H    0.086961
 Sum of Mulliken charges =   0.00000

 Dipole moment (field-independent basis, Debye):
    X=             -0.4064    Y=             -0.1283    Z=             -0.1500  Tot=              0.4518
 Quadrupole moment (field-independent basis, Debye-Ang):
   XX=            -29.2645   YY=            -29.5680   ZZ=            -28.1309
   XY=              1.0421   XZ=              0.9687   YZ=             -1.0684

 Normal termination of Gaussian 09 at Wed Aug 26 11:08:02 2020.
