 Gaussian 09, Revision D.01,
 Gaussian 09:  ES64L-G09RevD.01 24-Apr-2013

 --------------------
 #p B2PLYPD3/Def2QZVP
 --------------------

 ----------
 butane_opt
 ----------
 Symbolic Z-matrix:
 Charge =  0 Multiplicity = 1

                         Standard orientation:
 ---------------------------------------------------------------------
 Center     Atomic      Atomic             Coordinates (Angstroms)
 Number     Number       Type             X           Y           Z
 ---------------------------------------------------------------------
      1          6           0       -1.931087   -0.204059   -0.124997
      2          6           0       -0.507676    0.577014    0.090822
      3          1           0       -2.755737    0.764296    0.027856
      4          1           0       -2.180817   -0.710005    0.744443
      5          1           0       -2.261544   -1.098144   -1.039204
      6          6           0        0.571476   -0.400304    0.183650
      7          1           0       -0.242495    1.254213    0.766103
      8          1           0       -0.265611    1.149012   -0.784596
      9          6           0        1.904217    0.071967   -0.158790
     10          1           0        0.226924   -0.784725   -0.344270
     11          1           0        0.629211   -1.129820    1.327684
     12          1           0        1.757608    0.363958   -0.962824
     13          1           0        2.937138   -0.972246   -0.343665
     14          1           0        1.933739    0.895752    0.664361
 ---------------------------------------------------------------------

 SCF Done:  E(RB2PLYPD3) =  -157.706598260     A.U. after   11 cycles
 E2(B2PLYPD3) =    -0.2529160983D+00 E(B2PLYPD3) =    -0.15795951435867D+03

 The electronic state is 1-A.
 Alpha  occ. eigenvalues --  -10.65195 -10.61386 -10.61041 -10.57627  -0.97134
 Alpha  occ. eigenvalues --   -0.83188  -0.74632  -0.71179  -0.57741  -0.49098
 Alpha  occ. eigenvalues --   -0.47089  -0.46629  -0.42612  -0.40804  -0.39617
 Alpha  occ. eigenvalues --   -0.35749  -0.35223
 Alpha virt. eigenvalues --    0.04135   0.04881   0.07447   0.08133   0.09878
 Alpha virt. eigenvalues --    0.11412   0.12366   0.13051   0.13235   0.14981
 Alpha virt. eigenvalues --    0.15184   0.16608   0.18909   0.19460   0.20031

 Mulliken charges:
               1
     1  C   -0.181490
     2  C   -0.052223
     3  H    0.029356
     4  H    0.075214
     5  H    0.061062
     6  C   -0.449400
     7  H    0.063751
     8  H    0.033210
     9  C   -0.207740
    10  H    0.412386
    11  H   -0.002125
    12  H    0.144621
    13  H    0.020013
    14  H    0.053366
 Sum of Mulliken charges =   0.00000

 Dipole moment (field-independent basis, Debye):
    X=             -0.5710    Y=              0.1974    Z=             -0.3245  Tot=              0.6858
 Quadrupole moment (field-independent basis, Debye-Ang):
   XX=            -31.5581   YY=            -28.8681   ZZ=            -28.8871
   XY=              0.8443   XZ=             -0.6320   YZ=              1.0652

 Normal termination of Gaussian 09 at Wed Aug 26 14:01:39 2020.
