 Gaussian 09, Revision D.01,
 Gaussian 09:  ES64L-G09RevD.01 24-Apr-2013

 --------------------
 #p B2PLYPD3/Def2QZVP
 --------------------

 ----------
 butane_opt
 ----------
 Symbolic Z-matrix:
 Charge =  0 Multiplicity = 1

                         Standard orientation:
 ---------------------------------------------------------------------
 Center     Atomic      Atomic             Coordinates (Angstroms)
 Number     Number       Type             X           Y           Z
 ---------------------------------------------------------------------
      1          6           0       -1.987977   -0.223483   -0.141566
      2          6           0       -0.461025    0.577006    0.091388
      3          1           0       -2.849760    0.550929   -0.248940
      4          1           0       -2.073584   -0.544134    0.682096
      5          1           0       -1.983594   -0.998375   -1.011093
      6          6           0        0.604481   -0.398319    0.375610
      7          1           0       -0.727319    1.189147    0.756071
      8          1           0       -0.166609    1.034114   -0.905717
      9          6           0        1.840894    0.069044   -0.172482
     10          1           0        0.435440   -1.094514   -0.358148
     11          1           0        0.607249   -0.784220    1.443406
     12          1           0        1.564937    0.529459   -1.160177
     13          1           0        2.927137   -1.096525   -0.681990
     14          1           0        2.287864    1.068637    0.566793
 ---------------------------------------------------------------------

 SCF Done:  E(RB2PLYPD3) =  -157.901764301     A.U. after   11 cycles
 E2(B2PLYPD3) =    -0.2537652071D+00 E(B2PLYPD3) =    -0.15815552950855D+03

 The electronic state is 1-A.
 Alpha  occ. eigenvalues --  -10.66881 -10.60969 -10.60438 -10.60368  -0.94289
 Alpha  occ. eigenvalues --   -0.83142  -0.73100  -0.66342  -0.57326  -0.49987
 Alpha  occ. eigenvalues --   -0.49258  -0.46046  -0.43061  -0.42099  -0.39768
 Alpha  occ. eigenvalues --   -0.34594  -0.33562
 Alpha virt. eigenvalues --    0.02026   0.05926   0.07612   0.07723   0.09380
 Alpha virt. eigenvalues --    0.10932   0.11922   0.13111   0.14128   0.14677
 Alpha virt. eigenvalues --    0.15229   0.16352   0.18591   0.19508   0.20517

 Mulliken charges:
               1
     1  C   -0.231012
     2  C   -0.077147
     3  H    0.034961
     4  H    0.134191
     5  H    0.045792
     6  C   -0.065988
     7  H    0.066475
     8  H    0.035832
     9  C   -0.150079
    10  H    0.086556
    11  H    0.042653
    12  H    0.066748
    13  H   -0.015266
    14  H    0.026283
 Sum of Mulliken charges =   0.00000

 Dipole moment (field-independent basis, Debye):
    X=             -0.9690    Y=              0.2674    Z=              0.2248  Tot=              1.0300
 Quadrupole moment (field-independent basis, Debye-Ang):
   XX=            -33.7436   YY=            -29.7031   ZZ=            -27.9503
   XY=              0.1798   XZ=             -0.4740   YZ=              0.5624

 Normal termination of Gaussian 09 at Wed Aug 26 16:32:51 2020.
