 Gaussian 09, Revision D.01,
 Gaussian 09:  ES64L-G09RevD.01 24-Apr-2013

 --------------------
 #p B2PLYPD3/Def2QZVP
 --------------------

 ----------
 butane_opt
 ----------
 Symbolic Z-matrix:
 Charge =  0 Multiplicity = 1

                         Standard orientation:
 ---------------------------------------------------------------------
 Center     Atomic      Atomic             Coordinates (Angstroms)
 Number     Number       Type             X           Y           Z
 ---------------------------------------------------------------------
      1          6           0       -1.966694   -0.003324    0.165920
      2          6           0       -0.656498   -0.420015   -0.192372
      3          1           0       -2.825808   -0.726799   -0.024419
      4          1           0       -2.382071    0.432217   -0.480478
      5          1           0       -1.832059    1.023901    1.503589
      6          6           0        0.523380    0.613495   -0.234371
      7          1           0       -0.585190   -0.963439   -1.136635
      8          1           0       -0.522909   -1.123948    0.725690
      9          6           0        2.032509   -0.205604    0.168751
     10          1           0        0.420997    1.037873    0.433074
     11          1           0        0.408045    1.539739   -1.239700
     12          1           0        1.955276   -0.755107    0.923715
     13          1           0        2.937913    0.465258    0.759939
     14          1           0        2.829627   -0.837006   -0.912340
 ---------------------------------------------------------------------

 SCF Done:  E(RB2PLYPD3) =  -157.694183548     A.U. after   11 cycles
 E2(B2PLYPD3) =    -0.2561265934D+00 E(B2PLYPD3) =    -0.15795031014105D+03

 The electronic state is 1-A.
 Alpha  occ. eigenvalues --  -10.65437 -10.63214 -10.63011 -10.62187  -0.92977
 Alpha  occ. eigenvalues --   -0.84400  -0.75412  -0.69876  -0.55784  -0.49118
 Alpha  occ. eigenvalues --   -0.46919  -0.45700  -0.41667  -0.38800  -0.36965
 Alpha  occ. eigenvalues --   -0.35801  -0.35036
 Alpha virt. eigenvalues --    0.01495   0.04565   0.05850   0.07214   0.09477
 Alpha virt. eigenvalues --    0.09721   0.10793   0.12517   0.13615   0.14685
 Alpha virt. eigenvalues --    0.15453   0.16236   0.18050   0.18405   0.20292

 Mulliken charges:
               1
     1  C   -0.188871
     2  C    0.000268
     3  H    0.049789
     4  H    0.105508
     5  H   -0.014176
     6  C   -0.327502
     7  H    0.046895
     8  H    0.036029
     9  C   -0.207453
    10  H    0.302126
    11  H    0.026022
    12  H    0.127791
    13  H    0.017739
    14  H    0.025834
 Sum of Mulliken charges =   0.00000

 Dipole moment (field-independent basis, Debye):
    X=             -0.5838    Y=             -0.1958    Z=             -0.2466  Tot=              0.6633
 Quadrupole moment (field-independent basis, Debye-Ang):
   XX=            -30.1477   YY=            -30.4721   ZZ=            -29.0193
   XY=              0.4969   XZ=              3.4260   YZ=              0.0825

 Normal termination of Gaussian 09 at Wed Aug 26 12:20:41 2020.
