 Gaussian 09, Revision D.01,
 Gaussian 09:  ES64L-G09RevD.01 24-Apr-2013

 --------------------
 #p B2PLYPD3/Def2QZVP
 --------------------

 ----------
 butane_opt
 ----------
 Symbolic Z-matrix:
 Charge =  0 Multiplicity = 1

                         Standard orientation:
 ---------------------------------------------------------------------
 Center     Atomic      Atomic             Coordinates (Angstroms)
 Number     Number       Type             X           Y           Z
 ---------------------------------------------------------------------
      1          6           0       -2.041987   -0.160601    0.141976
      2          6           0       -0.581581    0.579954   -0.088880
      3          1           0       -2.693874    0.393117   -0.075306
      4          1           0       -2.119159   -1.468448    1.109462
      5          1           0       -2.334114   -0.461566   -0.644355
      6          6           0        0.611361   -0.374275   -0.263189
      7          1           0       -0.284418    1.165338    0.810206
      8          1           0       -0.638704    1.519409   -0.884464
      9          6           0        2.016841    0.057381    0.099815
     10          1           0        0.521262   -1.052307   -1.313977
     11          1           0        0.623097   -1.145873    0.614684
     12          1           0        2.283794    0.275712   -0.340820
     13          1           0        2.846352   -0.689466    0.116970
     14          1           0        1.767971    0.849332    1.269267
 ---------------------------------------------------------------------

 SCF Done:  E(RB2PLYPD3) =  -157.197027105     A.U. after   12 cycles
 E2(B2PLYPD3) =    -0.2552550950D+00 E(B2PLYPD3) =    -0.15745228220005D+03

 The electronic state is 1-A.
 Alpha  occ. eigenvalues --  -10.64454 -10.63239 -10.61205 -10.60912  -0.93201
 Alpha  occ. eigenvalues --   -0.89233  -0.80555  -0.67586  -0.53757  -0.49978
 Alpha  occ. eigenvalues --   -0.47483  -0.44911  -0.41658  -0.40193  -0.37845
 Alpha  occ. eigenvalues --   -0.35965  -0.34949
 Alpha virt. eigenvalues --    0.02674   0.05032   0.06774   0.07150   0.09523
 Alpha virt. eigenvalues --    0.10130   0.11806   0.13617   0.13847   0.15388
 Alpha virt. eigenvalues --    0.15543   0.15980   0.18236   0.19762   0.20818

 Mulliken charges:
               1
     1  C   -0.277478
     2  C   -0.015084
     3  H    0.112846
     4  H    0.035826
     5  H    0.122066
     6  C    0.002873
     7  H    0.032047
     8  H    0.005137
     9  C   -0.779605
    10  H    0.008622
    11  H    0.043312
    12  H    0.596558
    13  H    0.075765
    14  H    0.037115
 Sum of Mulliken charges =   0.00000

 Dipole moment (field-independent basis, Debye):
    X=              0.0443    Y=              0.1773    Z=             -0.7684  Tot=              0.7898
 Quadrupole moment (field-independent basis, Debye-Ang):
   XX=            -27.8011   YY=            -29.2165   ZZ=            -29.3076
   XY=             -0.7558   XZ=              1.0217   YZ=             -0.5141

 Normal termination of Gaussian 09 at Wed Aug 26 20:49:03 2020.
