 Gaussian 09, Revision D.01,
 Gaussian 09:  ES64L-G09RevD.01 24-Apr-2013

 --------------------
 #p B2PLYPD3/Def2QZVP
 --------------------

 ----------
 butane_opt
 ----------
 Symbolic Z-matrix:
 Charge =  0 Multiplicity = 1

                         Standard orientation:
 ---------------------------------------------------------------------
 Center     Atomic      Atomic             Coordinates (Angstroms)
 Number     Number       Type             X           Y           Z
 ---------------------------------------------------------------------
      1          6           0        1.941976   -0.218535   -0.048217
      2          6           0        0.507103    0.613203   -0.055067
      3          1           0        2.762995    0.550749    0.706608
      4          1           0        2.409439   -0.997775   -1.026391
      5          1           0        1.899356   -0.478248    0.473832
      6          6           0       -0.564699   -0.450092    0.072457
      7          1           0        0.122518    1.186418   -0.880380
      8          1           0        0.549092    1.254265    0.785146
      9          6           0       -1.872551    0.093150   -0.014581
     10          1           0       -0.649339   -1.328572    1.176342
     11          1           0       -0.646393   -0.870956   -0.739401
     12          1           0       -2.003761    0.623241    0.842618
     13          1           0       -2.711066   -0.753357   -0.176412
     14          1           0       -1.803813    0.587875   -0.889515
 ---------------------------------------------------------------------

 SCF Done:  E(RB2PLYPD3) =  -157.405934301     A.U. after   12 cycles
 E2(B2PLYPD3) =    -0.2517972279D+00 E(B2PLYPD3) =    -0.15765773152865D+03

 The electronic state is 1-A.
 Alpha  occ. eigenvalues --  -10.62722 -10.62267 -10.60373 -10.58681  -0.95441
 Alpha  occ. eigenvalues --   -0.88985  -0.76690  -0.67681  -0.56728  -0.50419
 Alpha  occ. eigenvalues --   -0.50170  -0.46741  -0.44542  -0.40968  -0.38296
 Alpha  occ. eigenvalues --   -0.35952  -0.35471
 Alpha virt. eigenvalues --    0.04686   0.05692   0.06929   0.07920   0.10250
 Alpha virt. eigenvalues --    0.10971   0.12390   0.12718   0.14559   0.15156
 Alpha virt. eigenvalues --    0.16029   0.16586   0.18177   0.18745   0.20780

 Mulliken charges:
               1
     1  C   -0.899292
     2  C    0.007835
     3  H    0.010591
     4  H    0.090926
     5  H    0.718963
     6  C   -0.130656
     7  H    0.053644
     8  H    0.048854
     9  C   -0.142886
    10  H   -0.016837
    11  H    0.117741
    12  H    0.059408
    13  H    0.032763
    14  H    0.048946
 Sum of Mulliken charges =   0.00000

 Dipole moment (field-independent basis, Debye):
    X=             -0.4975    Y=              0.0127    Z=             -0.2102  Tot=              0.5402
 Quadrupole moment (field-independent basis, Debye-Ang):
   XX=            -31.8107   YY=            -29.2954   ZZ=            -27.4519
   XY=             -0.6952   XZ=              0.7738   YZ=              1.0503

 Normal termination of Gaussian 09 at Wed Aug 26 15:18:14 2020.
