 Gaussian 09, Revision D.01,
 Gaussian 09:  ES64L-G09RevD.01 24-Apr-2013

 --------------------
 #p B2PLYPD3/Def2QZVP
 --------------------

 ----------
 butane_opt
 ----------
 Symbolic Z-matrix:
 Charge =  0 Multiplicity = 1

                         Standard orientation:
 ---------------------------------------------------------------------
 Center     Atomic      Atomic             Coordinates (Angstroms)
 Number     Number       Type             X           Y           Z
 ---------------------------------------------------------------------
      1          6           0        1.865259    0.113326   -0.067695
      2          6           0        0.577092   -0.498832    0.168420
      3          1           0        2.693326   -0.831042   -0.413776
      4          1           0        2.379030    0.874534    0.790159
      5          1           0        1.739642    0.673086   -0.995513
      6          6           0       -0.536367    0.551269    0.015733
      7          1           0        0.587699   -1.128616    1.048870
      8          1           0        0.406077   -1.059414   -0.636666
      9          6           0       -1.939418   -0.145642   -0.056350
     10          1           0       -0.338242    1.011728   -0.844059
     11          1           0       -0.425641    1.257069    0.887968
     12          1           0       -1.969002   -0.925298   -0.908239
     13          1           0       -2.689595    0.612178   -0.065320
     14          1           0       -2.182692   -0.604949    0.775929
 ---------------------------------------------------------------------

 SCF Done:  E(RB2PLYPD3) =  -158.053721544     A.U. after   11 cycles
 E2(B2PLYPD3) =    -0.2475820333D+00 E(B2PLYPD3) =    -0.15830130357750D+03

 The electronic state is 1-A.
 Alpha  occ. eigenvalues --  -10.62827 -10.60063 -10.59245 -10.58621  -0.92703
 Alpha  occ. eigenvalues --   -0.83496  -0.72317  -0.67114  -0.55651  -0.49370
 Alpha  occ. eigenvalues --   -0.48492  -0.46965  -0.42680  -0.41660  -0.40030
 Alpha  occ. eigenvalues --   -0.38641  -0.34940
 Alpha virt. eigenvalues --    0.05493   0.06659   0.08284   0.08712   0.10820
 Alpha virt. eigenvalues --    0.11109   0.12710   0.13814   0.14871   0.15463
 Alpha virt. eigenvalues --    0.15503   0.16261   0.19538   0.19752   0.21887

 Mulliken charges:
               1
     1  C   -0.167689
     2  C   -0.047535
     3  H    0.019340
     4  H    0.038281
     5  H    0.051215
     6  C   -0.078342
     7  H    0.039854
     8  H    0.065575
     9  C   -0.140549
    10  H    0.070284
    11  H    0.024457
    12  H    0.033818
    13  H    0.039222
    14  H    0.052069
 Sum of Mulliken charges =   0.00000

 Dipole moment (field-independent basis, Debye):
    X=             -0.3919    Y=             -0.0351    Z=             -0.0496  Tot=              0.3965
 Quadrupole moment (field-independent basis, Debye-Ang):
   XX=            -31.0598   YY=            -28.8366   ZZ=            -28.0570
   XY=              0.0341   XZ=             -0.3737   YZ=              0.2551

 Normal termination of Gaussian 09 at Wed Aug 26 10:18:44 2020.
