 Gaussian 09, Revision D.01,
 Gaussian 09:  ES64L-G09RevD.01 24-Apr-2013

 --------------------
 #p B2PLYPD3/Def2QZVP
 --------------------

 ----------
 butane_opt
 ----------
 Symbolic Z-matrix:
 Charge =  0 Multiplicity = 1

                         Standard orientation:
 ---------------------------------------------------------------------
 Center     Atomic      Atomic             Coordinates (Angstroms)
 Number     Number       Type             X           Y           Z
 ---------------------------------------------------------------------
      1          6           0        1.923370    0.134152   -0.074692
      2          6           0        0.617665   -0.478186    0.142032
      3          1           0        2.781900   -0.681392   -0.221576
      4          1           0        2.337379    0.759301    0.797755
      5          1           0        1.828863    0.577519   -0.888936
      6          6           0       -0.528635    0.541420   -0.001406
      7          1           0        0.530941   -1.148898    0.993408
      8          1           0        0.522379   -1.234569   -0.743288
      9          6           0       -2.007147   -0.161295   -0.041518
     10          1           0       -0.488430    1.176560   -0.937814
     11          1           0       -0.483004    1.268798    0.897526
     12          1           0       -2.101772   -0.918343   -0.878441
     13          1           0       -2.863402    0.595620    0.066702
     14          1           0       -2.096367   -0.611147    0.768174
 ---------------------------------------------------------------------

 SCF Done:  E(RB2PLYPD3) =  -158.053032442     A.U. after   11 cycles
 E2(B2PLYPD3) =    -0.2473487028D+00 E(B2PLYPD3) =    -0.15830038114511D+03

 The electronic state is 1-A.
 Alpha  occ. eigenvalues --  -10.62567 -10.61111 -10.59571 -10.59285  -0.91273
 Alpha  occ. eigenvalues --   -0.83412  -0.73180  -0.66420  -0.54072  -0.50170
 Alpha  occ. eigenvalues --   -0.47952  -0.47306  -0.43168  -0.41598  -0.39340
 Alpha  occ. eigenvalues --   -0.37603  -0.35825
 Alpha virt. eigenvalues --    0.05728   0.06761   0.07929   0.08642   0.10672
 Alpha virt. eigenvalues --    0.11721   0.12821   0.14135   0.14262   0.15500
 Alpha virt. eigenvalues --    0.15912   0.16317   0.19150   0.19959   0.21652

 Mulliken charges:
               1
     1  C   -0.157882
     2  C   -0.028114
     3  H    0.021496
     4  H    0.035214
     5  H    0.089817
     6  C   -0.057016
     7  H    0.041065
     8  H    0.009710
     9  C   -0.175979
    10  H    0.031344
    11  H    0.023499
    12  H    0.045916
    13  H    0.036166
    14  H    0.084763
 Sum of Mulliken charges =   0.00000

 Dipole moment (field-independent basis, Debye):
    X=             -0.0306    Y=             -0.1104    Z=              0.1158  Tot=              0.1629
 Quadrupole moment (field-independent basis, Debye-Ang):
   XX=            -29.8935   YY=            -29.0181   ZZ=            -28.1634
   XY=             -0.1988   XZ=             -0.3833   YZ=              0.0254

 Normal termination of Gaussian 09 at Wed Aug 26 22:08:43 2020.
