 Gaussian 09, Revision D.01,
 Gaussian 09:  ES64L-G09RevD.01 24-Apr-2013

 --------------------
 #p B2PLYPD3/Def2QZVP
 --------------------

 ----------
 butane_opt
 ----------
 Symbolic Z-matrix:
 Charge =  0 Multiplicity = 1

                         Standard orientation:
 ---------------------------------------------------------------------
 Center     Atomic      Atomic             Coordinates (Angstroms)
 Number     Number       Type             X           Y           Z
 ---------------------------------------------------------------------
      1          6           0        2.012755   -0.200739   -0.135904
      2          6           0        0.538869    0.601206    0.163489
      3          1           0        2.685824    0.304981   -0.587593
      4          1           0        1.777240   -0.753026   -0.878456
      5          1           0        2.758097   -0.719336    0.795980
      6          6           0       -0.648087   -0.378800    0.165115
      7          1           0        0.361012    0.961315   -0.649727
      8          1           0        0.731319    1.274328    0.954309
      9          6           0       -1.979238    0.051203   -0.170853
     10          1           0       -0.792849   -0.945304    1.265914
     11          1           0       -0.387678   -1.069986   -0.574658
     12          1           0       -1.858931    0.618644    0.656151
     13          1           0       -2.843520   -0.703760   -0.008564
     14          1           0       -1.976305    0.594922   -1.104438
 ---------------------------------------------------------------------

 SCF Done:  E(RB2PLYPD3) =  -157.948512730     A.U. after   11 cycles
 E2(B2PLYPD3) =    -0.2487845455D+00 E(B2PLYPD3) =    -0.15819729727553D+03

 The electronic state is 1-A.
 Alpha  occ. eigenvalues --  -10.61310 -10.60152 -10.59615 -10.58900  -0.93565
 Alpha  occ. eigenvalues --   -0.84963  -0.75977  -0.66012  -0.56990  -0.52204
 Alpha  occ. eigenvalues --   -0.48993  -0.48259  -0.43343  -0.41465  -0.38713
 Alpha  occ. eigenvalues --   -0.36982  -0.34130
 Alpha virt. eigenvalues --    0.05609   0.06540   0.08450   0.08756   0.10626
 Alpha virt. eigenvalues --    0.11803   0.12373   0.13367   0.14479   0.15756
 Alpha virt. eigenvalues --    0.16161   0.16847   0.18323   0.19214   0.22132

 Mulliken charges:
               1
     1  C   -0.166993
     2  C   -0.146101
     3  H    0.051777
     4  H    0.059086
     5  H    0.031714
     6  C   -0.040244
     7  H    0.126698
     8  H    0.048319
     9  C   -0.163753
    10  H    0.002908
    11  H    0.039912
    12  H    0.059400
    13  H    0.059469
    14  H    0.037807
 Sum of Mulliken charges =   0.00000

 Dipole moment (field-independent basis, Debye):
    X=              0.0836    Y=              0.2960    Z=             -0.4680  Tot=              0.5600
 Quadrupole moment (field-independent basis, Debye-Ang):
   XX=            -29.1345   YY=            -29.9654   ZZ=            -27.5875
   XY=              1.2732   XZ=             -0.3443   YZ=              0.2419

 Normal termination of Gaussian 09 at Wed Aug 26 15:22:02 2020.
