 Gaussian 09, Revision D.01,
 Gaussian 09:  ES64L-G09RevD.01 24-Apr-2013

 --------------------
 #p B2PLYPD3/Def2QZVP
 --------------------

 ----------
 butane_opt
 ----------
 Symbolic Z-matrix:
 Charge =  0 Multiplicity = 1

                         Standard orientation:
 ---------------------------------------------------------------------
 Center     Atomic      Atomic             Coordinates (Angstroms)
 Number     Number       Type             X           Y           Z
 ---------------------------------------------------------------------
      1          6           0        1.898624   -0.164801   -0.126968
      2          6           0        0.537900    0.575621    0.200961
      3          1           0        2.643861    0.371648   -0.758994
      4          1           0        1.826803   -0.655027   -0.805248
      5          1           0        2.698859   -0.886875    0.782250
      6          6           0       -0.617094   -0.410923    0.084574
      7          1           0        0.089717    0.841497   -0.434599
      8          1           0        0.596407    1.415555    1.189591
      9          6           0       -1.871552    0.094923   -0.203526
     10          1           0       -0.716150   -1.202159    1.169356
     11          1           0       -0.350451   -0.852084   -0.748176
     12          1           0       -1.758467    0.515345    0.705257
     13          1           0       -2.830400   -0.825169    0.242916
     14          1           0       -1.887450    0.708353   -1.072597
 ---------------------------------------------------------------------

 SCF Done:  E(RB2PLYPD3) =  -157.710617394     A.U. after   11 cycles
 E2(B2PLYPD3) =    -0.2546701439D+00 E(B2PLYPD3) =    -0.15796528753810D+03

 The electronic state is 1-A.
 Alpha  occ. eigenvalues --  -10.62037 -10.61140 -10.61098 -10.61091  -0.98812
 Alpha  occ. eigenvalues --   -0.86652  -0.78094  -0.66159  -0.58888  -0.53455
 Alpha  occ. eigenvalues --   -0.47287  -0.45740  -0.42109  -0.40585  -0.39712
 Alpha  occ. eigenvalues --   -0.36488  -0.32100
 Alpha virt. eigenvalues --    0.03914   0.05367   0.07508   0.08087   0.09850
 Alpha virt. eigenvalues --    0.10482   0.12355   0.12463   0.14643   0.15149
 Alpha virt. eigenvalues --    0.15792   0.16155   0.18556   0.19025   0.21505

 Mulliken charges:
               1
     1  C   -0.258568
     2  C   -0.287017
     3  H    0.025757
     4  H    0.179170
     5  H    0.031750
     6  C   -0.074825
     7  H    0.277781
     8  H    0.034128
     9  C   -0.203144
    10  H   -0.004350
    11  H    0.080621
    12  H    0.074636
    13  H    0.052869
    14  H    0.071192
 Sum of Mulliken charges =   0.00000

 Dipole moment (field-independent basis, Debye):
    X=             -0.0889    Y=              0.0869    Z=             -0.7441  Tot=              0.7544
 Quadrupole moment (field-independent basis, Debye-Ang):
   XX=            -30.8716   YY=            -30.6829   ZZ=            -27.6210
   XY=             -0.4034   XZ=             -1.0410   YZ=             -0.2148

 Normal termination of Gaussian 09 at Wed Aug 26 14:28:37 2020.
