 Gaussian 09, Revision D.01,
 Gaussian 09:  ES64L-G09RevD.01 24-Apr-2013

 --------------------
 #p B2PLYPD3/Def2QZVP
 --------------------

 ----------
 butane_opt
 ----------
 Symbolic Z-matrix:
 Charge =  0 Multiplicity = 1

                         Standard orientation:
 ---------------------------------------------------------------------
 Center     Atomic      Atomic             Coordinates (Angstroms)
 Number     Number       Type             X           Y           Z
 ---------------------------------------------------------------------
      1          6           0       -1.897099    0.111469   -0.127940
      2          6           0       -0.507656   -0.481620    0.065276
      3          1           0       -2.618859   -0.890436    0.414502
      4          1           0       -2.043687    1.201449   -1.253949
      5          1           0       -1.926475    0.487478    0.450957
      6          6           0        0.509756    0.550588    0.171339
      7          1           0       -0.462564   -1.147200   -0.874409
      8          1           0       -0.619140   -1.401035    0.965092
      9          6           0        1.896256   -0.140920   -0.129935
     10          1           0        0.169738    1.529613    1.332092
     11          1           0        0.394966    0.744484   -0.470034
     12          1           0        2.331609   -0.834874    0.791899
     13          1           0        2.779322    0.798991   -0.206494
     14          1           0        1.987541   -0.725571   -1.022092
 ---------------------------------------------------------------------

 SCF Done:  E(RB2PLYPD3) =  -157.350610610     A.U. after   12 cycles
 E2(B2PLYPD3) =    -0.2581629800D+00 E(B2PLYPD3) =    -0.15760877359017D+03

 The electronic state is 1-A.
 Alpha  occ. eigenvalues --  -10.64425 -10.63596 -10.62258 -10.61788  -0.97534
 Alpha  occ. eigenvalues --   -0.87175  -0.74373  -0.68631  -0.54876  -0.49538
 Alpha  occ. eigenvalues --   -0.46963  -0.44898  -0.41154  -0.40439  -0.37752
 Alpha  occ. eigenvalues --   -0.36352  -0.34952
 Alpha virt. eigenvalues --    0.01773   0.03349   0.05429   0.06235   0.09783
 Alpha virt. eigenvalues --    0.11002   0.11370   0.12800   0.13320   0.14419
 Alpha virt. eigenvalues --    0.15131   0.16072   0.17344   0.19059   0.20236

 Mulliken charges:
               1
     1  C   -0.654827
     2  C    0.054591
     3  H    0.043007
     4  H    0.025344
     5  H    0.506022
     6  C   -0.761479
     7  H    0.038770
     8  H    0.002980
     9  C   -0.137467
    10  H    0.038772
    11  H    0.695507
    12  H    0.043469
    13  H    0.023841
    14  H    0.081471
 Sum of Mulliken charges =   0.00000

 Dipole moment (field-independent basis, Debye):
    X=              0.2138    Y=             -0.0685    Z=              0.0378  Tot=              0.2276
 Quadrupole moment (field-independent basis, Debye-Ang):
   XX=            -32.8050   YY=            -29.1013   ZZ=            -28.7392
   XY=             -0.4816   XZ=             -1.9140   YZ=             -0.0892

 Normal termination of Gaussian 09 at Wed Aug 26 12:38:16 2020.
