 Gaussian 09, Revision D.01,
 Gaussian 09:  ES64L-G09RevD.01 24-Apr-2013

 --------------------
 #p B2PLYPD3/Def2QZVP
 --------------------

 ----------
 butane_opt
 ----------
 Symbolic Z-matrix:
 Charge =  0 Multiplicity = 1

                         Standard orientation:
 ---------------------------------------------------------------------
 Center     Atomic      Atomic             Coordinates (Angstroms)
 Number     Number       Type             X           Y           Z
 ---------------------------------------------------------------------
      1          6           0        1.894372    0.102115    0.127942
      2          6           0        0.526804   -0.508765   -0.185576
      3          1           0        2.843198   -0.709139    0.162727
      4          1           0        1.865520    0.703776    1.147810
      5          1           0        2.018884    0.618337   -0.607833
      6          6           0       -0.512435    0.559124   -0.269017
      7          1           0        0.387268   -1.192130    0.747122
      8          1           0        0.401949   -1.200773   -1.120373
      9          6           0       -1.866012   -0.099145    0.181824
     10          1           0       -0.391306    1.306515   -1.149567
     11          1           0       -0.176814    1.193122    0.702027
     12          1           0       -2.984021   -0.876555   -0.784480
     13          1           0       -2.631584    0.668774    0.696342
     14          1           0       -1.589461   -0.831905    1.075185
 ---------------------------------------------------------------------

 SCF Done:  E(RB2PLYPD3) =  -157.936372209     A.U. after   12 cycles
 E2(B2PLYPD3) =    -0.2553557072D+00 E(B2PLYPD3) =    -0.15819172791591D+03

 The electronic state is 1-A.
 Alpha  occ. eigenvalues --  -10.67508 -10.64449 -10.62346 -10.60837  -0.92231
 Alpha  occ. eigenvalues --   -0.82086  -0.70751  -0.65268  -0.54369  -0.49343
 Alpha  occ. eigenvalues --   -0.48505  -0.44464  -0.42033  -0.40141  -0.39292
 Alpha  occ. eigenvalues --   -0.36198  -0.33412
 Alpha virt. eigenvalues --    0.02721   0.05278   0.07180   0.07373   0.08639
 Alpha virt. eigenvalues --    0.10481   0.12125   0.13069   0.14001   0.15304
 Alpha virt. eigenvalues --    0.15451   0.16167   0.18206   0.19705   0.20422

 Mulliken charges:
               1
     1  C   -0.186573
     2  C   -0.034375
     3  H    0.028639
     4  H    0.041878
     5  H    0.107470
     6  C   -0.046857
     7  H    0.026229
     8  H    0.040984
     9  C   -0.173765
    10  H    0.053961
    11  H    0.030535
    12  H   -0.009373
    13  H    0.048872
    14  H    0.072375
 Sum of Mulliken charges =   0.00000

 Dipole moment (field-independent basis, Debye):
    X=              0.6451    Y=              0.5417    Z=              0.3413  Tot=              0.9089
 Quadrupole moment (field-independent basis, Debye-Ang):
   XX=            -32.5293   YY=            -30.1240   ZZ=            -28.7608
   XY=             -0.6628   XZ=             -0.9845   YZ=             -0.5279

 Normal termination of Gaussian 09 at Wed Aug 26 21:05:50 2020.
