 Gaussian 09, Revision D.01,
 Gaussian 09:  ES64L-G09RevD.01 24-Apr-2013

 --------------------
 #p B2PLYPD3/Def2QZVP
 --------------------

 ----------
 butane_opt
 ----------
 Symbolic Z-matrix:
 Charge =  0 Multiplicity = 1

                         Standard orientation:
 ---------------------------------------------------------------------
 Center     Atomic      Atomic             Coordinates (Angstroms)
 Number     Number       Type             X           Y           Z
 ---------------------------------------------------------------------
      1          6           0       -1.965240   -0.197931   -0.152806
      2          6           0       -0.501340    0.542946    0.105607
      3          1           0       -2.867275    0.664749   -0.233296
      4          1           0       -2.199537   -0.394432    0.436430
      5          1           0       -2.060314   -1.048755   -0.916297
      6          6           0        0.610064   -0.434702    0.404826
      7          1           0       -0.404377    1.387582    0.784248
      8          1           0       -0.102498    0.905395   -0.887740
      9          6           0        1.878163    0.085054   -0.180662
     10          1           0        0.485439   -0.913631   -0.262571
     11          1           0        0.276275   -0.950136    1.483117
     12          1           0        1.320049    0.452013   -1.138418
     13          1           0        2.836453   -0.930485   -0.934046
     14          1           0        2.585906    0.855492    0.606785
 ---------------------------------------------------------------------

 SCF Done:  E(RB2PLYPD3) =  -157.562552350     A.U. after   12 cycles
 E2(B2PLYPD3) =    -0.2556913092D+00 E(B2PLYPD3) =    -0.15781824365898D+03

 The electronic state is 1-A.
 Alpha  occ. eigenvalues --  -10.67669 -10.62330 -10.59873 -10.59408  -0.95467
 Alpha  occ. eigenvalues --   -0.87083  -0.73876  -0.67069  -0.56713  -0.50971
 Alpha  occ. eigenvalues --   -0.46904  -0.46194  -0.42587  -0.41550  -0.38342
 Alpha  occ. eigenvalues --   -0.37931  -0.33010
 Alpha virt. eigenvalues --    0.03270   0.05266   0.07608   0.07700   0.08925
 Alpha virt. eigenvalues --    0.10786   0.12308   0.12581   0.14412   0.15237
 Alpha virt. eigenvalues --    0.16067   0.16423   0.17721   0.19313   0.20819

 Mulliken charges:
               1
     1  C   -0.661025
     2  C   -0.002314
     3  H    0.047317
     4  H    0.483522
     5  H    0.079813
     6  C   -0.306421
     7  H    0.050350
     8  H    0.027354
     9  C   -0.150594
    10  H    0.281003
    11  H    0.037613
    12  H    0.067681
    13  H   -0.010413
    14  H    0.056114
 Sum of Mulliken charges =   0.00000

 Dipole moment (field-independent basis, Debye):
    X=             -0.8666    Y=              0.0130    Z=              0.2369  Tot=              0.8985
 Quadrupole moment (field-independent basis, Debye-Ang):
   XX=            -31.8356   YY=            -29.7980   ZZ=            -28.5162
   XY=              1.6363   XZ=             -0.2846   YZ=              1.1118

 Normal termination of Gaussian 09 at Wed Aug 26 13:02:30 2020.
