 Gaussian 09, Revision D.01,
 Gaussian 09:  ES64L-G09RevD.01 24-Apr-2013

 --------------------
 #p B2PLYPD3/Def2QZVP
 --------------------

 ----------
 butane_opt
 ----------
 Symbolic Z-matrix:
 Charge =  0 Multiplicity = 1

                         Standard orientation:
 ---------------------------------------------------------------------
 Center     Atomic      Atomic             Coordinates (Angstroms)
 Number     Number       Type             X           Y           Z
 ---------------------------------------------------------------------
      1          6           0        2.002321   -0.204503   -0.182495
      2          6           0        0.545179    0.593691    0.211670
      3          1           0        2.770786    0.524690   -0.801018
      4          1           0        1.894298   -0.582053   -0.819194
      5          1           0        2.658066   -0.970400    0.809218
      6          6           0       -0.541098   -0.435349    0.163347
      7          1           0        0.331644    0.821092   -0.387917
      8          1           0        0.410094    1.556136    1.370471
      9          6           0       -1.986560    0.052785   -0.195287
     10          1           0       -0.556027   -1.078155    1.164753
     11          1           0       -0.667815   -0.880835   -0.488708
     12          1           0       -2.322354    0.535559    0.505238
     13          1           0       -2.970016   -0.891850   -0.119592
     14          1           0       -1.667729    0.926072   -1.216658
 ---------------------------------------------------------------------

 SCF Done:  E(RB2PLYPD3) =  -157.321767446     A.U. after   12 cycles
 E2(B2PLYPD3) =    -0.2553299120D+00 E(B2PLYPD3) =    -0.15757709735761D+03

 The electronic state is 1-A.
 Alpha  occ. eigenvalues --  -10.64084 -10.62547 -10.62426 -10.58788  -0.96439
 Alpha  occ. eigenvalues --   -0.85895  -0.79399  -0.71310  -0.56913  -0.49363
 Alpha  occ. eigenvalues --   -0.46419  -0.45066  -0.41606  -0.40081  -0.38890
 Alpha  occ. eigenvalues --   -0.36939  -0.35095
 Alpha virt. eigenvalues --    0.03253   0.04695   0.06118   0.08078   0.09910
 Alpha virt. eigenvalues --    0.10290   0.11698   0.12162   0.13604   0.14717
 Alpha virt. eigenvalues --    0.15955   0.16589   0.17212   0.18672   0.21066

 Mulliken charges:
               1
     1  C   -0.473024
     2  C   -0.660460
     3  H    0.032037
     4  H    0.377192
     5  H    0.053414
     6  C   -0.301635
     7  H    0.641616
     8  H    0.034451
     9  C   -0.208405
    10  H    0.029011
    11  H    0.313397
    12  H    0.109203
    13  H    0.035153
    14  H    0.018050
 Sum of Mulliken charges =   0.00000

 Dipole moment (field-independent basis, Debye):
    X=             -0.3296    Y=             -0.1692    Z=             -0.2997  Tot=              0.4766
 Quadrupole moment (field-independent basis, Debye-Ang):
   XX=            -30.2355   YY=            -29.7683   ZZ=            -28.2260
   XY=             -0.1847   XZ=             -2.0639   YZ=             -0.2060

 Normal termination of Gaussian 09 at Wed Aug 26 15:19:04 2020.
