 Gaussian 09, Revision D.01,
 Gaussian 09:  ES64L-G09RevD.01 24-Apr-2013

 --------------------
 #p B2PLYPD3/Def2QZVP
 --------------------

 ----------
 butane_opt
 ----------
 Symbolic Z-matrix:
 Charge =  0 Multiplicity = 1

                         Standard orientation:
 ---------------------------------------------------------------------
 Center     Atomic      Atomic             Coordinates (Angstroms)
 Number     Number       Type             X           Y           Z
 ---------------------------------------------------------------------
      1          6           0       -1.818561    0.040476    0.107453
      2          6           0       -0.613006   -0.421566   -0.182503
      3          1           0       -2.748421   -0.998824   -0.179795
      4          1           0       -1.881668    0.256773   -0.681482
      5          1           0       -2.132594    1.211684    1.463669
      6          6           0        0.482970    0.586305   -0.101722
      7          1           0       -0.364748   -1.071080   -1.123809
      8          1           0       -0.414959   -1.176575    0.656566
      9          6           0        1.895273   -0.147888    0.131904
     10          1           0        0.240604    1.243241    0.969733
     11          1           0        0.558010    1.253573   -1.007505
     12          1           0        2.652272   -1.356044    1.354972
     13          1           0        2.569213    0.515262   -0.800263
     14          1           0        1.842229   -0.221974   -0.382873
 ---------------------------------------------------------------------

 SCF Done:  E(RB2PLYPD3) =  -156.722342868     A.U. after   14 cycles
 E2(B2PLYPD3) =    -0.2712096997D+00 E(B2PLYPD3) =    -0.15699355256783D+03

 The electronic state is 1-A.
 Alpha  occ. eigenvalues --  -10.66517 -10.65400 -10.63671 -10.61993  -0.99105
 Alpha  occ. eigenvalues --   -0.94573  -0.76947  -0.65601  -0.55860  -0.49718
 Alpha  occ. eigenvalues --   -0.49225  -0.43498  -0.39178  -0.38058  -0.34286
 Alpha  occ. eigenvalues --   -0.34143  -0.32720
 Alpha virt. eigenvalues --   -0.03998  -0.01782   0.03530   0.04916   0.08502
 Alpha virt. eigenvalues --    0.09186   0.10510   0.11744   0.13474   0.15133
 Alpha virt. eigenvalues --    0.15360   0.16366   0.17142   0.18059   0.19846

 Mulliken charges:
               1
     1  C   -0.353371
     2  C   -0.033446
     3  H    0.008449
     4  H    0.265995
     5  H    0.042543
     6  C   -0.017570
     7  H    0.037711
     8  H    0.032450
     9  C   -1.105546
    10  H    0.030946
    11  H    0.053574
    12  H    0.092079
    13  H    0.003478
    14  H    0.942708
 Sum of Mulliken charges =   0.00000

 Dipole moment (field-independent basis, Debye):
    X=              0.1097    Y=             -0.5268    Z=             -1.1186  Tot=              1.2413
 Quadrupole moment (field-independent basis, Debye-Ang):
   XX=            -34.2436   YY=            -30.0463   ZZ=            -27.2041
   XY=             -2.0953   XZ=              0.2246   YZ=             -0.6465

 Normal termination of Gaussian 09 at Wed Aug 26 14:59:59 2020.
