 Gaussian 09, Revision D.01,
 Gaussian 09:  ES64L-G09RevD.01 24-Apr-2013

 --------------------
 #p B2PLYPD3/Def2QZVP
 --------------------

 ----------
 butane_opt
 ----------
 Symbolic Z-matrix:
 Charge =  0 Multiplicity = 1

                         Standard orientation:
 ---------------------------------------------------------------------
 Center     Atomic      Atomic             Coordinates (Angstroms)
 Number     Number       Type             X           Y           Z
 ---------------------------------------------------------------------
      1          6           0       -1.931492    0.009144   -0.084835
      2          6           0       -0.537434   -0.396836    0.091539
      3          1           0       -2.809196   -0.710431   -0.166251
      4          1           0       -1.851209    0.602248   -0.948085
      5          1           0       -2.009873    0.697264    0.819777
      6          6           0        0.505365    0.588195    0.151238
      7          1           0       -0.161151   -1.185388   -0.943230
      8          1           0       -0.787955   -1.163573    0.995174
      9          6           0        1.922504   -0.150384   -0.115704
     10          1           0        0.404129    1.359350    0.974271
     11          1           0        0.333280    1.194520   -0.620214
     12          1           0        2.917657   -1.005978    1.086062
     13          1           0        2.555729    0.360419   -0.786897
     14          1           0        1.654935   -0.449148   -0.664035
 ---------------------------------------------------------------------

 SCF Done:  E(RB2PLYPD3) =  -157.637047384     A.U. after   12 cycles
 E2(B2PLYPD3) =    -0.2548859828D+00 E(B2PLYPD3) =    -0.15789193336644D+03

 The electronic state is 1-A.
 Alpha  occ. eigenvalues --  -10.63745 -10.62088 -10.61630 -10.60754  -0.95572
 Alpha  occ. eigenvalues --   -0.88179  -0.77469  -0.65350  -0.54552  -0.51413
 Alpha  occ. eigenvalues --   -0.49999  -0.47142  -0.43048  -0.42094  -0.36710
 Alpha  occ. eigenvalues --   -0.35439  -0.34246
 Alpha virt. eigenvalues --    0.00623   0.05475   0.06885   0.07432   0.09358
 Alpha virt. eigenvalues --    0.10640   0.12199   0.12683   0.14558   0.15727
 Alpha virt. eigenvalues --    0.16330   0.16990   0.18187   0.19271   0.19776

 Mulliken charges:
               1
     1  C   -0.155878
     2  C   -0.025124
     3  H    0.066934
     4  H    0.039545
     5  H    0.048681
     6  C   -0.023683
     7  H   -0.026216
     8  H    0.022538
     9  C   -0.684245
    10  H    0.024758
    11  H    0.063704
    12  H    0.024964
    13  H    0.065227
    14  H    0.558795
 Sum of Mulliken charges =   0.00000

 Dipole moment (field-independent basis, Debye):
    X=             -0.5688    Y=              0.5677    Z=             -0.5483  Tot=              0.9729
 Quadrupole moment (field-independent basis, Debye-Ang):
   XX=            -30.0645   YY=            -30.0801   ZZ=            -28.5282
   XY=              0.8833   XZ=             -1.3170   YZ=             -0.3518

 Normal termination of Gaussian 09 at Wed Aug 26 12:55:46 2020.
