 Gaussian 09, Revision D.01,
 Gaussian 09:  ES64L-G09RevD.01 24-Apr-2013

 --------------------
 #p B2PLYPD3/Def2QZVP
 --------------------

 ----------
 butane_opt
 ----------
 Symbolic Z-matrix:
 Charge =  0 Multiplicity = 1

                         Standard orientation:
 ---------------------------------------------------------------------
 Center     Atomic      Atomic             Coordinates (Angstroms)
 Number     Number       Type             X           Y           Z
 ---------------------------------------------------------------------
      1          6           0        2.016043   -0.208890    0.174408
      2          6           0        0.578890    0.528302   -0.331064
      3          1           0        2.827225    0.488847    0.954453
      4          1           0        2.731077   -0.679414   -0.722974
      5          1           0        1.740317   -0.636034    0.836215
      6          6           0       -0.614677   -0.419717   -0.137648
      7          1           0        0.320207    1.368292   -1.209787
      8          1           0        0.341895    1.097267    0.428137
      9          6           0       -1.945755    0.068419    0.191304
     10          1           0       -0.686347   -0.948306    0.631916
     11          1           0       -0.706934   -1.132676   -1.079522
     12          1           0       -1.977785    0.949877    1.307540
     13          1           0       -2.713160   -0.757967    0.024979
     14          1           0       -2.083499    0.441438   -0.552958
 ---------------------------------------------------------------------

 SCF Done:  E(RB2PLYPD3) =  -157.775276492     A.U. after   11 cycles
 E2(B2PLYPD3) =    -0.2524051008D+00 E(B2PLYPD3) =    -0.15802768159311D+03

 The electronic state is 1-A.
 Alpha  occ. eigenvalues --  -10.62967 -10.62450 -10.60295 -10.59208  -0.94077
 Alpha  occ. eigenvalues --   -0.85104  -0.75559  -0.68735  -0.54820  -0.51123
 Alpha  occ. eigenvalues --   -0.48428  -0.45584  -0.42766  -0.39663  -0.38635
 Alpha  occ. eigenvalues --   -0.35855  -0.35146
 Alpha virt. eigenvalues --    0.04990   0.05622   0.07137   0.08218   0.10388
 Alpha virt. eigenvalues --    0.10793   0.11796   0.12893   0.14127   0.15638
 Alpha virt. eigenvalues --    0.15873   0.16442   0.17730   0.18758   0.20524

 Mulliken charges:
               1
     1  C   -0.321427
     2  C   -0.089825
     3  H    0.008601
     4  H    0.074311
     5  H    0.228385
     6  C   -0.071538
     7  H    0.030697
     8  H    0.079912
     9  C   -0.307539
    10  H    0.095432
    11  H    0.000356
    12  H    0.029047
    13  H    0.056121
    14  H    0.187469
 Sum of Mulliken charges =   0.00000

 Dipole moment (field-independent basis, Debye):
    X=             -0.2937    Y=             -0.1901    Z=              0.0886  Tot=              0.3609
 Quadrupole moment (field-independent basis, Debye-Ang):
   XX=            -30.0984   YY=            -29.7077   ZZ=            -28.1871
   XY=             -0.0879   XZ=              0.9678   YZ=              0.1763

 Normal termination of Gaussian 09 at Wed Aug 26 23:41:48 2020.
