 Gaussian 09, Revision D.01,
 Gaussian 09:  ES64L-G09RevD.01 24-Apr-2013

 --------------------
 #p B2PLYPD3/Def2QZVP
 --------------------

 ----------
 butane_opt
 ----------
 Symbolic Z-matrix:
 Charge =  0 Multiplicity = 1

                         Standard orientation:
 ---------------------------------------------------------------------
 Center     Atomic      Atomic             Coordinates (Angstroms)
 Number     Number       Type             X           Y           Z
 ---------------------------------------------------------------------
      1          6           0       -1.879503   -0.022790    0.125138
      2          6           0       -0.614289    0.387349   -0.125767
      3          1           0       -2.650756    0.593533   -0.334940
      4          1           0       -2.039993   -0.803153    1.124734
      5          1           0       -1.909400   -0.523910   -0.500233
      6          6           0        0.506805   -0.515730   -0.021361
      7          1           0       -0.315254    0.852447    0.602565
      8          1           0       -0.523028    1.356921   -1.277578
      9          6           0        1.952469    0.153744    0.078468
     10          1           0        0.511265   -1.348391   -0.999810
     11          1           0        0.110296   -1.031662    0.924456
     12          1           0        1.812806    0.283003   -0.578024
     13          1           0        2.797213   -0.838474   -0.433320
     14          1           0        2.413960    1.444243    1.133286
 ---------------------------------------------------------------------

 SCF Done:  E(RB2PLYPD3) =  -157.397051247     A.U. after   12 cycles
 E2(B2PLYPD3) =    -0.2596059444D+00 E(B2PLYPD3) =    -0.15765665719183D+03

 The electronic state is 1-A.
 Alpha  occ. eigenvalues --  -10.65021 -10.64398 -10.61074 -10.57869  -0.98525
 Alpha  occ. eigenvalues --   -0.90634  -0.79334  -0.66050  -0.54130  -0.51586
 Alpha  occ. eigenvalues --   -0.49325  -0.46244  -0.41151  -0.40269  -0.38469
 Alpha  occ. eigenvalues --   -0.34644  -0.34194
 Alpha virt. eigenvalues --   -0.00629   0.04148   0.05003   0.06387   0.09925
 Alpha virt. eigenvalues --    0.10556   0.12003   0.12577   0.13441   0.15095
 Alpha virt. eigenvalues --    0.15380   0.16184   0.17197   0.18298   0.20463

 Mulliken charges:
               1
     1  C   -0.347858
     2  C   -0.085703
     3  H    0.065222
     4  H    0.040419
     5  H    0.258660
     6  C   -0.011341
     7  H    0.121038
     8  H   -0.044176
     9  C   -0.752936
    10  H   -0.003206
    11  H    0.041769
    12  H    0.612898
    13  H    0.042714
    14  H    0.062499
 Sum of Mulliken charges =   0.00000

 Dipole moment (field-independent basis, Debye):
    X=             -0.5737    Y=             -0.2046    Z=             -0.2064  Tot=              0.6431
 Quadrupole moment (field-independent basis, Debye-Ang):
   XX=            -30.8196   YY=            -30.0161   ZZ=            -28.7591
   XY=              1.2005   XZ=             -0.0383   YZ=              1.0862

 Normal termination of Gaussian 09 at Wed Aug 26 22:56:59 2020.
