 Gaussian 09, Revision D.01,
 Gaussian 09:  ES64L-G09RevD.01 24-Apr-2013

 --------------------
 #p B2PLYPD3/Def2QZVP
 --------------------

 ----------
 butane_opt
 ----------
 Symbolic Z-matrix:
 Charge =  0 Multiplicity = 1

                         Standard orientation:
 ---------------------------------------------------------------------
 Center     Atomic      Atomic             Coordinates (Angstroms)
 Number     Number       Type             X           Y           Z
 ---------------------------------------------------------------------
      1          6           0       -1.861646    0.102380    0.203300
      2          6           0       -0.585226   -0.499031   -0.175428
      3          1           0       -2.838641   -0.830374   -0.010407
      4          1           0       -1.833419    0.493072   -0.412398
      5          1           0       -1.808913    0.903016    1.190340
      6          6           0        0.505022    0.580261   -0.313044
      7          1           0       -0.786357   -1.186711   -0.904055
      8          1           0       -0.179188   -1.075501    0.632513
      9          6           0        1.890963   -0.165781    0.154767
     10          1           0        0.345434    1.409311    0.676262
     11          1           0        0.335736    1.313447   -1.244834
     12          1           0        2.043792   -0.834458    0.954088
     13          1           0        2.592436    0.464773    0.588895
     14          1           0        2.434443   -0.763554   -0.687971
 ---------------------------------------------------------------------

 SCF Done:  E(RB2PLYPD3) =  -157.796516437     A.U. after   11 cycles
 E2(B2PLYPD3) =    -0.2521386276D+00 E(B2PLYPD3) =    -0.15804865506416D+03

 The electronic state is 1-A.
 Alpha  occ. eigenvalues --  -10.65828 -10.60932 -10.59459 -10.59297  -0.94316
 Alpha  occ. eigenvalues --   -0.83996  -0.74532  -0.67570  -0.54211  -0.49194
 Alpha  occ. eigenvalues --   -0.48253  -0.45905  -0.42852  -0.41105  -0.38045
 Alpha  occ. eigenvalues --   -0.37630  -0.34495
 Alpha virt. eigenvalues --    0.04998   0.06109   0.07143   0.08334   0.10699
 Alpha virt. eigenvalues --    0.11097   0.12459   0.13742   0.14692   0.15278
 Alpha virt. eigenvalues --    0.15679   0.16198   0.18056   0.19446   0.20416

 Mulliken charges:
               1
     1  C   -0.576765
     2  C    0.011049
     3  H    0.022191
     4  H    0.442840
     5  H    0.049743
     6  C   -0.078744
     7  H    0.038769
     8  H    0.036534
     9  C   -0.120933
    10  H    0.008306
    11  H    0.054291
    12  H    0.043756
    13  H    0.040889
    14  H    0.028075
 Sum of Mulliken charges =   0.00000

 Dipole moment (field-independent basis, Debye):
    X=              0.4454    Y=             -0.0354    Z=             -0.1609  Tot=              0.4749
 Quadrupole moment (field-independent basis, Debye-Ang):
   XX=            -31.0376   YY=            -28.7194   ZZ=            -28.3439
   XY=             -0.3444   XZ=              2.1234   YZ=              0.3354

 Normal termination of Gaussian 09 at Wed Aug 26 19:19:20 2020.
