 Gaussian 09, Revision D.01,
 Gaussian 09:  ES64L-G09RevD.01 24-Apr-2013

 --------------------
 #p B2PLYPD3/Def2QZVP
 --------------------

 ----------
 butane_opt
 ----------
 Symbolic Z-matrix:
 Charge =  0 Multiplicity = 1

                         Standard orientation:
 ---------------------------------------------------------------------
 Center     Atomic      Atomic             Coordinates (Angstroms)
 Number     Number       Type             X           Y           Z
 ---------------------------------------------------------------------
      1          6           0        1.963929    0.075171   -0.005622
      2          6           0        0.664605   -0.431422   -0.014830
      3          1           0        2.758453   -0.832432    0.132643
      4          1           0        2.091284    0.743863    0.857872
      5          1           0        1.943241    0.423381   -0.871867
      6          6           0       -0.513945    0.532741   -0.025602
      7          1           0        0.564777   -1.014688    0.779710
      8          1           0        0.267049   -1.193001   -1.000958
      9          6           0       -2.004174   -0.174361   -0.020191
     10          1           0       -0.284040    1.132474   -0.729158
     11          1           0       -0.471533    1.699376    1.068079
     12          1           0       -2.182017   -0.226348   -0.599843
     13          1           0       -2.783999    0.427015   -0.481165
     14          1           0       -2.565708   -1.172421    1.242160
 ---------------------------------------------------------------------

 SCF Done:  E(RB2PLYPD3) =  -157.319103219     A.U. after   12 cycles
 E2(B2PLYPD3) =    -0.2570987659D+00 E(B2PLYPD3) =    -0.15757620198453D+03

 The electronic state is 1-A.
 Alpha  occ. eigenvalues --  -10.65431 -10.63497 -10.61114 -10.59188  -0.97109
 Alpha  occ. eigenvalues --   -0.92962  -0.78887  -0.67528  -0.55834  -0.52247
 Alpha  occ. eigenvalues --   -0.48839  -0.45833  -0.40786  -0.39292  -0.37893
 Alpha  occ. eigenvalues --   -0.36429  -0.31587
 Alpha virt. eigenvalues --    0.00709   0.04806   0.05486   0.06369   0.09660
 Alpha virt. eigenvalues --    0.09988   0.11825   0.12661   0.14741   0.14994
 Alpha virt. eigenvalues --    0.16064   0.16497   0.18432   0.18938   0.20287

 Mulliken charges:
               1
     1  C   -0.173314
     2  C   -0.020841
     3  H    0.038345
     4  H    0.075071
     5  H    0.079116
     6  C   -0.071089
     7  H    0.061979
     8  H   -0.002326
     9  C   -0.800940
    10  H    0.082799
    11  H   -0.060393
    12  H    0.682682
    13  H    0.042341
    14  H    0.066569
 Sum of Mulliken charges =   0.00000

 Dipole moment (field-independent basis, Debye):
    X=             -0.1396    Y=             -0.4298    Z=             -0.9940  Tot=              1.0919
 Quadrupole moment (field-independent basis, Debye-Ang):
   XX=            -28.1712   YY=            -31.0357   ZZ=            -28.2188
   XY=              0.4645   XZ=              2.2676   YZ=             -2.2252

 Normal termination of Gaussian 09 at Wed Aug 26 16:12:01 2020.
