 Gaussian 09, Revision D.01,
 Gaussian 09:  ES64L-G09RevD.01 24-Apr-2013

 --------------------
 #p B2PLYPD3/Def2QZVP
 --------------------

 ----------
 butane_opt
 ----------
 Symbolic Z-matrix:
 Charge =  0 Multiplicity = 1

                         Standard orientation:
 ---------------------------------------------------------------------
 Center     Atomic      Atomic             Coordinates (Angstroms)
 Number     Number       Type             X           Y           Z
 ---------------------------------------------------------------------
      1          6           0       -1.989712    0.031134   -0.203571
      2          6           0       -0.636170   -0.394884    0.368252
      3          1           0       -2.963233   -0.888474   -0.399782
      4          1           0       -1.754399    0.392925   -1.150524
      5          1           0       -2.354271    1.040042    0.730768
      6          6           0        0.613271    0.547350   -0.021702
      7          1           0       -0.520208   -1.055551   -0.298150
      8          1           0       -0.523735   -0.928418    1.463044
      9          6           0        1.975794   -0.208228   -0.156190
     10          1           0        0.681316    1.717794    0.816708
     11          1           0        0.199710    1.034038   -0.898726
     12          1           0        2.443067   -0.558164    0.774842
     13          1           0        2.678986    0.551937    0.008898
     14          1           0        2.333670   -1.158357   -0.967808
 ---------------------------------------------------------------------

 SCF Done:  E(RB2PLYPD3) =  -157.897828151     A.U. after   11 cycles
 E2(B2PLYPD3) =    -0.2556764673D+00 E(B2PLYPD3) =    -0.15815350461841D+03

 The electronic state is 1-A.
 Alpha  occ. eigenvalues --  -10.66123 -10.65718 -10.62895 -10.61186  -0.90866
 Alpha  occ. eigenvalues --   -0.83385  -0.71943  -0.65941  -0.52009  -0.48693
 Alpha  occ. eigenvalues --   -0.47317  -0.46291  -0.42183  -0.40745  -0.37264
 Alpha  occ. eigenvalues --   -0.35367  -0.33855
 Alpha virt. eigenvalues --    0.04028   0.05610   0.06170   0.08115   0.09289
 Alpha virt. eigenvalues --    0.10479   0.11909   0.13001   0.13448   0.14323
 Alpha virt. eigenvalues --    0.15670   0.15702   0.18634   0.18914   0.19210

 Mulliken charges:
               1
     1  C   -0.190446
     2  C   -0.091058
     3  H    0.047042
     4  H    0.082912
     5  H    0.014615
     6  C   -0.039604
     7  H    0.112895
     8  H    0.032998
     9  C   -0.144711
    10  H   -0.015931
    11  H    0.049286
    12  H    0.033663
    13  H    0.056395
    14  H    0.051944
 Sum of Mulliken charges =   0.00000

 Dipole moment (field-independent basis, Debye):
    X=              0.6512    Y=             -0.5153    Z=             -0.4296  Tot=              0.9349
 Quadrupole moment (field-independent basis, Debye-Ang):
   XX=            -30.2279   YY=            -30.1332   ZZ=            -29.3643
   XY=              0.5501   XZ=              1.6754   YZ=              0.5935

 Normal termination of Gaussian 09 at Wed Aug 26 15:20:06 2020.
