 Gaussian 09, Revision D.01,
 Gaussian 09:  ES64L-G09RevD.01 24-Apr-2013

 --------------------
 #p B2PLYPD3/Def2QZVP
 --------------------

 ----------
 butane_opt
 ----------
 Symbolic Z-matrix:
 Charge =  0 Multiplicity = 1

                         Standard orientation:
 ---------------------------------------------------------------------
 Center     Atomic      Atomic             Coordinates (Angstroms)
 Number     Number       Type             X           Y           Z
 ---------------------------------------------------------------------
      1          6           0        2.008174    0.156786   -0.088202
      2          6           0        0.535056   -0.561814    0.106181
      3          1           0        2.745022   -0.546989   -0.143312
      4          1           0        2.353207    0.693542    0.706483
      5          1           0        1.894719    0.857996   -0.969347
      6          6           0       -0.586077    0.443439    0.125336
      7          1           0        0.605097   -1.144056    0.914644
      8          1           0        0.337755   -1.265855   -0.805137
      9          6           0       -1.967158   -0.109906   -0.099504
     10          1           0       -0.358654    1.117533   -0.700830
     11          1           0       -0.570695    1.303756    1.099040
     12          1           0       -1.875376   -0.596415   -0.865140
     13          1           0       -2.805360    0.763440   -0.300355
     14          1           0       -2.265684   -0.753981    0.801090
 ---------------------------------------------------------------------

 SCF Done:  E(RB2PLYPD3) =  -158.041086081     A.U. after   11 cycles
 E2(B2PLYPD3) =    -0.2474245348D+00 E(B2PLYPD3) =    -0.15828851061571D+03

 The electronic state is 1-A.
 Alpha  occ. eigenvalues --  -10.62124 -10.61354 -10.59833 -10.59443  -0.91084
 Alpha  occ. eigenvalues --   -0.83319  -0.74326  -0.66331  -0.54129  -0.49244
 Alpha  occ. eigenvalues --   -0.48728  -0.47964  -0.43081  -0.42115  -0.38482
 Alpha  occ. eigenvalues --   -0.37386  -0.36288
 Alpha virt. eigenvalues --    0.05641   0.06842   0.07608   0.08879   0.10723
 Alpha virt. eigenvalues --    0.11775   0.12727   0.13880   0.15018   0.15082
 Alpha virt. eigenvalues --    0.15691   0.16632   0.19339   0.19555   0.21411

 Mulliken charges:
               1
     1  C   -0.132997
     2  C   -0.050969
     3  H    0.044405
     4  H    0.045978
     5  H    0.039803
     6  C   -0.028375
     7  H    0.050278
     8  H    0.014281
     9  C   -0.187965
    10  H    0.032800
    11  H   -0.004588
    12  H    0.099838
    13  H    0.032717
    14  H    0.044794
 Sum of Mulliken charges =   0.00000

 Dipole moment (field-independent basis, Debye):
    X=              0.2217    Y=             -0.2580    Z=             -0.1150  Tot=              0.3591
 Quadrupole moment (field-independent basis, Debye-Ang):
   XX=            -29.3477   YY=            -28.9603   ZZ=            -28.5573
   XY=             -0.3010   XZ=              0.9236   YZ=             -0.4771

 Normal termination of Gaussian 09 at Wed Aug 26 22:19:03 2020.
