 Gaussian 09, Revision D.01,
 Gaussian 09:  ES64L-G09RevD.01 24-Apr-2013

 --------------------
 #p B2PLYPD3/Def2QZVP
 --------------------

 ----------
 butane_opt
 ----------
 Symbolic Z-matrix:
 Charge =  0 Multiplicity = 1

                         Standard orientation:
 ---------------------------------------------------------------------
 Center     Atomic      Atomic             Coordinates (Angstroms)
 Number     Number       Type             X           Y           Z
 ---------------------------------------------------------------------
      1          6           0       -1.927331    0.050974   -0.129648
      2          6           0       -0.574340   -0.496089    0.124090
      3          1           0       -2.659397   -0.677621   -0.088844
      4          1           0       -2.110062    0.719467   -1.027014
      5          1           0       -2.178457    0.735064    0.738782
      6          6           0        0.503930    0.571566    0.127811
      7          1           0       -0.442426   -0.950695   -0.581219
      8          1           0       -0.590709   -1.152095    1.095832
      9          6           0        2.000610   -0.145243   -0.118912
     10          1           0        0.578843    1.420101    1.061455
     11          1           0        0.350065    1.115021   -0.644221
     12          1           0        2.505376   -0.824788    0.834045
     13          1           0        2.702970    0.526842   -0.387449
     14          1           0        1.826581   -0.798541   -1.021410
 ---------------------------------------------------------------------

 SCF Done:  E(RB2PLYPD3) =  -157.993654648     A.U. after   11 cycles
 E2(B2PLYPD3) =    -0.2474417748D+00 E(B2PLYPD3) =    -0.15824109642308D+03

 The electronic state is 1-A.
 Alpha  occ. eigenvalues --  -10.61939 -10.61758 -10.59531 -10.58492  -0.92635
 Alpha  occ. eigenvalues --   -0.82159  -0.73427  -0.68670  -0.54726  -0.49691
 Alpha  occ. eigenvalues --   -0.49319  -0.46139  -0.42441  -0.39902  -0.39237
 Alpha  occ. eigenvalues --   -0.38856  -0.36646
 Alpha virt. eigenvalues --    0.05611   0.06637   0.08279   0.08644   0.10781
 Alpha virt. eigenvalues --    0.12079   0.12755   0.13359   0.14526   0.15307
 Alpha virt. eigenvalues --    0.15670   0.16616   0.18967   0.20318   0.21699

 Mulliken charges:
               1
     1  C   -0.133934
     2  C   -0.181443
     3  H    0.050574
     4  H    0.028927
     5  H    0.031644
     6  C   -0.076045
     7  H    0.181406
     8  H    0.033474
     9  C   -0.167783
    10  H    0.012115
    11  H    0.083273
    12  H    0.033367
    13  H    0.064015
    14  H    0.040412
 Sum of Mulliken charges =   0.00000

 Dipole moment (field-independent basis, Debye):
    X=             -0.1270    Y=             -0.0077    Z=             -0.4545  Tot=              0.4719
 Quadrupole moment (field-independent basis, Debye-Ang):
   XX=            -29.5491   YY=            -28.8457   ZZ=            -28.3214
   XY=              0.8249   XZ=             -0.0243   YZ=             -0.3633

 Normal termination of Gaussian 09 at Wed Aug 26 12:18:53 2020.
