 Gaussian 09, Revision D.01,
 Gaussian 09:  ES64L-G09RevD.01 24-Apr-2013

 --------------------
 #p B2PLYPD3/Def2QZVP
 --------------------

 ----------
 butane_opt
 ----------
 Symbolic Z-matrix:
 Charge =  0 Multiplicity = 1

                         Standard orientation:
 ---------------------------------------------------------------------
 Center     Atomic      Atomic             Coordinates (Angstroms)
 Number     Number       Type             X           Y           Z
 ---------------------------------------------------------------------
      1          6           0       -2.030518    0.120377   -0.003867
      2          6           0       -0.557747   -0.583378    0.001797
      3          1           0       -2.731497   -0.462509   -0.624442
      4          1           0       -1.989650    0.449407   -0.615068
      5          1           0       -2.616216    1.301338    1.277323
      6          6           0        0.603338    0.376840   -0.051454
      7          1           0       -0.074178   -1.148047   -0.759883
      8          1           0       -0.539336   -1.252803    0.902719
      9          6           0        1.938733   -0.046924    0.070347
     10          1           0        0.561412    1.030486    0.612191
     11          1           0        0.477720    1.363717   -1.198858
     12          1           0        1.962082   -0.740995    1.009260
     13          1           0        2.956544    0.887229    0.024996
     14          1           0        2.270286   -0.629311   -0.729175
 ---------------------------------------------------------------------

 SCF Done:  E(RB2PLYPD3) =  -157.573899542     A.U. after   12 cycles
 E2(B2PLYPD3) =    -0.2574426326D+00 E(B2PLYPD3) =    -0.15783134217415D+03

 The electronic state is 1-A.
 Alpha  occ. eigenvalues --  -10.63113 -10.63096 -10.62969 -10.62042  -0.94400
 Alpha  occ. eigenvalues --   -0.88863  -0.77230  -0.67805  -0.55098  -0.50480
 Alpha  occ. eigenvalues --   -0.48586  -0.44270  -0.42215  -0.41392  -0.37302
 Alpha  occ. eigenvalues --   -0.35691  -0.33382
 Alpha virt. eigenvalues --   -0.01867   0.04174   0.05824   0.07325   0.09781
 Alpha virt. eigenvalues --    0.10138   0.11437   0.12533   0.13923   0.15266
 Alpha virt. eigenvalues --    0.15784   0.16113   0.17846   0.18472   0.20075

 Mulliken charges:
               1
     1  C   -0.618900
     2  C   -0.046754
     3  H    0.062650
     4  H    0.500500
     5  H    0.037489
     6  C   -0.038213
     7  H    0.062742
     8  H    0.034754
     9  C   -0.154748
    10  H    0.093193
    11  H   -0.062368
    12  H    0.049836
    13  H    0.035588
    14  H    0.044230
 Sum of Mulliken charges =   0.00000

 Dipole moment (field-independent basis, Debye):
    X=              0.1639    Y=             -0.4137    Z=             -0.1744  Tot=              0.4779
 Quadrupole moment (field-independent basis, Debye-Ang):
   XX=            -30.0811   YY=            -30.0908   ZZ=            -29.1366
   XY=             -0.8917   XZ=              1.0565   YZ=              1.0339

 Normal termination of Gaussian 09 at Wed Aug 26 19:15:23 2020.
