 Gaussian 09, Revision D.01,
 Gaussian 09:  ES64L-G09RevD.01 24-Apr-2013

 --------------------
 #p B2PLYPD3/Def2QZVP
 --------------------

 ----------
 butane_opt
 ----------
 Symbolic Z-matrix:
 Charge =  0 Multiplicity = 1

                         Standard orientation:
 ---------------------------------------------------------------------
 Center     Atomic      Atomic             Coordinates (Angstroms)
 Number     Number       Type             X           Y           Z
 ---------------------------------------------------------------------
      1          6           0       -1.983221   -0.107820   -0.220093
      2          6           0       -0.666396    0.430108    0.264525
      3          1           0       -2.858300    0.705313   -0.647726
      4          1           0       -2.431469   -1.039152    0.605560
      5          1           0       -1.609980   -0.282569   -0.878908
      6          6           0        0.607289   -0.512295    0.105177
      7          1           0       -0.502298    1.473659    1.605200
      8          1           0       -0.506259    0.872700   -0.273535
      9          6           0        1.982787    0.140188   -0.106529
     10          1           0        0.454972   -1.031712   -0.825974
     11          1           0        0.480158   -1.422307    1.031878
     12          1           0        2.194574    1.232149   -1.158940
     13          1           0        2.722148   -0.631484   -0.211019
     14          1           0        2.413704    0.422321    0.494985
 ---------------------------------------------------------------------

 SCF Done:  E(RB2PLYPD3) =  -157.446530201     A.U. after   12 cycles
 E2(B2PLYPD3) =    -0.2548053937D+00 E(B2PLYPD3) =    -0.15770133559511D+03

 The electronic state is 1-A.
 Alpha  occ. eigenvalues --  -10.65320 -10.62570 -10.62121 -10.61696  -0.96813
 Alpha  occ. eigenvalues --   -0.88224  -0.77860  -0.70566  -0.54632  -0.51157
 Alpha  occ. eigenvalues --   -0.48961  -0.45734  -0.44284  -0.40975  -0.39229
 Alpha  occ. eigenvalues --   -0.36191  -0.32672
 Alpha virt. eigenvalues --    0.03276   0.03709   0.05517   0.06981   0.09837
 Alpha virt. eigenvalues --    0.10352   0.11335   0.12502   0.13402   0.14940
 Alpha virt. eigenvalues --    0.15739   0.16370   0.17339   0.19079   0.20089

 Mulliken charges:
               1
     1  C   -0.429562
     2  C   -0.535386
     3  H    0.059435
     4  H    0.059703
     5  H    0.345492
     6  C   -0.002942
     7  H   -0.061159
     8  H    0.522863
     9  C   -0.310418
    10  H    0.061826
    11  H    0.021577
    12  H    0.006614
    13  H    0.045390
    14  H    0.216567
 Sum of Mulliken charges =   0.00000

 Dipole moment (field-independent basis, Debye):
    X=              0.3731    Y=             -0.7086    Z=             -0.8832  Tot=              1.1922
 Quadrupole moment (field-independent basis, Debye-Ang):
   XX=            -28.2328   YY=            -30.3644   ZZ=            -30.0764
   XY=             -0.2430   XZ=              1.9197   YZ=             -1.8437

 Normal termination of Gaussian 09 at Wed Aug 26 23:07:26 2020.
