 Gaussian 09, Revision D.01,
 Gaussian 09:  ES64L-G09RevD.01 24-Apr-2013

 --------------------
 #p B2PLYPD3/Def2QZVP
 --------------------

 ----------
 butane_opt
 ----------
 Symbolic Z-matrix:
 Charge =  0 Multiplicity = 1

                         Standard orientation:
 ---------------------------------------------------------------------
 Center     Atomic      Atomic             Coordinates (Angstroms)
 Number     Number       Type             X           Y           Z
 ---------------------------------------------------------------------
      1          6           0        2.024476   -0.081511   -0.097158
      2          6           0        0.560591    0.451033    0.073155
      3          1           0        2.867539    0.690403   -0.122195
      4          1           0        1.955778   -0.439781   -0.813178
      5          1           0        1.984957   -0.839624    0.947161
      6          6           0       -0.543549   -0.546858   -0.055615
      7          1           0        0.436647    0.782555   -0.441714
      8          1           0        0.491553    1.326285    1.208753
      9          6           0       -1.991042    0.177649    0.019488
     10          1           0       -0.630735   -1.322774    0.704498
     11          1           0       -0.361427   -1.055404   -0.878643
     12          1           0       -1.967241    0.205368    0.536750
     13          1           0       -2.664537   -0.505896    0.232531
     14          1           0       -2.415398    1.156993   -1.013188
 ---------------------------------------------------------------------

 SCF Done:  E(RB2PLYPD3) =  -156.656491748     A.U. after   12 cycles
 E2(B2PLYPD3) =    -0.2513210028D+00 E(B2PLYPD3) =    -0.15690781275046D+03

 The electronic state is 1-A.
 Alpha  occ. eigenvalues --  -10.62009 -10.60624 -10.59794 -10.59666  -0.97167
 Alpha  occ. eigenvalues --   -0.92051  -0.79796  -0.72783  -0.55555  -0.51193
 Alpha  occ. eigenvalues --   -0.49493  -0.48082  -0.45428  -0.40083  -0.39249
 Alpha  occ. eigenvalues --   -0.37339  -0.35426
 Alpha virt. eigenvalues --    0.04944   0.05545   0.07441   0.07695   0.10327
 Alpha virt. eigenvalues --    0.11370   0.12203   0.12647   0.14597   0.15285
 Alpha virt. eigenvalues --    0.16210   0.17034   0.18554   0.19302   0.20499

 Mulliken charges:
               1
     1  C   -0.325397
     2  C   -0.726283
     3  H    0.063655
     4  H    0.236659
     5  H    0.046918
     6  C    0.081373
     7  H    0.649353
     8  H   -0.004483
     9  C   -0.951043
    10  H    0.008352
    11  H    0.050388
    12  H    0.772358
    13  H    0.034412
    14  H    0.063736
 Sum of Mulliken charges =   0.00000

 Dipole moment (field-independent basis, Debye):
    X=             -0.1953    Y=             -0.3348    Z=             -0.4970  Tot=              0.6303
 Quadrupole moment (field-independent basis, Debye-Ang):
   XX=            -28.7888   YY=            -28.9057   ZZ=            -27.2595
   XY=              1.1633   XZ=             -1.4396   YZ=             -1.2070

 Normal termination of Gaussian 09 at Wed Aug 26 15:52:11 2020.
