 Gaussian 09, Revision D.01,
 Gaussian 09:  ES64L-G09RevD.01 24-Apr-2013

 --------------------
 #p B2PLYPD3/Def2QZVP
 --------------------

 ----------
 butane_opt
 ----------
 Symbolic Z-matrix:
 Charge =  0 Multiplicity = 1

                         Standard orientation:
 ---------------------------------------------------------------------
 Center     Atomic      Atomic             Coordinates (Angstroms)
 Number     Number       Type             X           Y           Z
 ---------------------------------------------------------------------
      1          6           0        2.003580   -0.158826   -0.147645
      2          6           0        0.550464    0.525639    0.215551
      3          1           0        2.696238    0.508466   -0.840049
      4          1           0        1.384338   -0.682268   -0.844697
      5          1           0        2.495003   -0.718868    0.704867
      6          6           0       -0.622973   -0.490037    0.218669
      7          1           0        0.452652    1.110768   -0.476199
      8          1           0        0.307506    1.363700    1.131286
      9          6           0       -1.919636    0.110578   -0.189410
     10          1           0       -0.475650   -1.109482    1.100226
     11          1           0       -0.244998   -1.074706   -0.557957
     12          1           0       -2.091098    0.744033    0.661986
     13          1           0       -2.726787   -0.815679   -0.330251
     14          1           0       -1.865820    0.749905   -1.132202
 ---------------------------------------------------------------------

 SCF Done:  E(RB2PLYPD3) =  -158.004587948     A.U. after   11 cycles
 E2(B2PLYPD3) =    -0.2507227907D+00 E(B2PLYPD3) =    -0.15825531073843D+03

 The electronic state is 1-A.
 Alpha  occ. eigenvalues --  -10.62437 -10.62124 -10.60832 -10.59918  -0.92197
 Alpha  occ. eigenvalues --   -0.82877  -0.72039  -0.68234  -0.54666  -0.49038
 Alpha  occ. eigenvalues --   -0.48727  -0.47458  -0.44027  -0.40382  -0.37990
 Alpha  occ. eigenvalues --   -0.36922  -0.35396
 Alpha virt. eigenvalues --    0.05422   0.06510   0.08173   0.08602   0.11053
 Alpha virt. eigenvalues --    0.11551   0.12340   0.12804   0.14914   0.15615
 Alpha virt. eigenvalues --    0.16169   0.16974   0.17620   0.19486   0.20901

 Mulliken charges:
               1
     1  C   -0.189784
     2  C   -0.100226
     3  H    0.047306
     4  H    0.068721
     5  H    0.065510
     6  C   -0.044327
     7  H    0.092856
     8  H   -0.015489
     9  C   -0.170763
    10  H    0.047496
    11  H    0.041142
    12  H    0.064774
    13  H    0.041711
    14  H    0.051074
 Sum of Mulliken charges =   0.00000

 Dipole moment (field-independent basis, Debye):
    X=             -0.0603    Y=             -0.1265    Z=             -0.4134  Tot=              0.4365
 Quadrupole moment (field-independent basis, Debye-Ang):
   XX=            -30.4116   YY=            -29.4998   ZZ=            -28.5102
   XY=             -0.0039   XZ=             -0.1122   YZ=             -1.2041

 Normal termination of Gaussian 09 at Wed Aug 26 11:15:21 2020.
