 Gaussian 09, Revision D.01,
 Gaussian 09:  ES64L-G09RevD.01 24-Apr-2013

 --------------------
 #p B2PLYPD3/Def2QZVP
 --------------------

 ----------
 butane_opt
 ----------
 Symbolic Z-matrix:
 Charge =  0 Multiplicity = 1

                         Standard orientation:
 ---------------------------------------------------------------------
 Center     Atomic      Atomic             Coordinates (Angstroms)
 Number     Number       Type             X           Y           Z
 ---------------------------------------------------------------------
      1          6           0       -1.999901    0.044285    0.071797
      2          6           0       -0.598900   -0.437705   -0.057020
      3          1           0       -2.662370   -0.439765   -0.333499
      4          1           0       -2.086768    0.511928   -0.605460
      5          1           0       -2.042879    0.892922    1.161671
      6          6           0        0.540246    0.551034   -0.134166
      7          1           0       -0.423127   -1.010522   -0.907432
      8          1           0       -0.642488   -1.292200    0.815814
      9          6           0        2.046436   -0.158459    0.041032
     10          1           0        0.458038    1.038737    0.639859
     11          1           0        0.431103    1.169987   -0.937975
     12          1           0        1.749528   -0.772559    0.876816
     13          1           0        2.800405    0.602019    0.401145
     14          1           0        2.491274   -0.695477   -0.640799
 ---------------------------------------------------------------------

 SCF Done:  E(RB2PLYPD3) =  -157.877315363     A.U. after   11 cycles
 E2(B2PLYPD3) =    -0.2478916386D+00 E(B2PLYPD3) =    -0.15812520700135D+03

 The electronic state is 1-A.
 Alpha  occ. eigenvalues --  -10.60530 -10.59564 -10.58819 -10.57449  -0.93399
 Alpha  occ. eigenvalues --   -0.86212  -0.76673  -0.69143  -0.55763  -0.52313
 Alpha  occ. eigenvalues --   -0.49289  -0.46272  -0.44308  -0.41216  -0.38515
 Alpha  occ. eigenvalues --   -0.37004  -0.35539
 Alpha virt. eigenvalues --    0.05338   0.06858   0.08245   0.08625   0.10703
 Alpha virt. eigenvalues --    0.11701   0.12743   0.14278   0.14652   0.15121
 Alpha virt. eigenvalues --    0.15845   0.16542   0.18762   0.20326   0.22232

 Mulliken charges:
               1
     1  C   -0.305571
     2  C   -0.011057
     3  H    0.059725
     4  H    0.177216
     5  H    0.036789
     6  C   -0.087921
     7  H    0.027890
     8  H    0.002109
     9  C   -0.174279
    10  H    0.085686
    11  H    0.035636
    12  H    0.059028
    13  H    0.034173
    14  H    0.060574
 Sum of Mulliken charges =   0.00000

 Dipole moment (field-independent basis, Debye):
    X=             -0.1136    Y=              0.2521    Z=             -0.6564  Tot=              0.7123
 Quadrupole moment (field-independent basis, Debye-Ang):
   XX=            -28.7693   YY=            -28.9848   ZZ=            -27.9002
   XY=              0.1124   XZ=              1.2495   YZ=              0.6084

 Normal termination of Gaussian 09 at Wed Aug 26 14:25:05 2020.
