 Gaussian 09, Revision D.01,
 Gaussian 09:  ES64L-G09RevD.01 24-Apr-2013

 --------------------
 #p B2PLYPD3/Def2QZVP
 --------------------

 ----------
 butane_opt
 ----------
 Symbolic Z-matrix:
 Charge =  0 Multiplicity = 1

                         Standard orientation:
 ---------------------------------------------------------------------
 Center     Atomic      Atomic             Coordinates (Angstroms)
 Number     Number       Type             X           Y           Z
 ---------------------------------------------------------------------
      1          6           0       -1.940062   -0.142114    0.077888
      2          6           0       -0.465596    0.541955   -0.143776
      3          1           0       -2.594276    0.355393   -0.006691
      4          1           0       -1.875409   -0.823862    1.048003
      5          1           0       -2.438334   -0.545903   -0.656006
      6          6           0        0.613661   -0.429536    0.015587
      7          1           0       -0.252878    1.482753    0.726233
      8          1           0       -0.365098    1.085491   -1.097561
      9          6           0        1.841908    0.027091   -0.003866
     10          1           0        0.372716   -1.145959   -0.900460
     11          1           0        0.473438   -1.087093    0.989059
     12          1           0        1.797704    0.344677   -0.740232
     13          1           0        2.566630   -0.771449   -0.219610
     14          1           0        2.016041    1.121579    1.182268
 ---------------------------------------------------------------------

 SCF Done:  E(RB2PLYPD3) =  -157.743434945     A.U. after   11 cycles
 E2(B2PLYPD3) =    -0.2523598882D+00 E(B2PLYPD3) =    -0.15799579483346D+03

 The electronic state is 1-A.
 Alpha  occ. eigenvalues --  -10.63540 -10.60984 -10.59532 -10.57708  -0.97307
 Alpha  occ. eigenvalues --   -0.88183  -0.78049  -0.65574  -0.54674  -0.54059
 Alpha  occ. eigenvalues --   -0.51673  -0.44580  -0.43813  -0.39802  -0.37540
 Alpha  occ. eigenvalues --   -0.37064  -0.33879
 Alpha virt. eigenvalues --    0.03291   0.05797   0.06930   0.07740   0.09829
 Alpha virt. eigenvalues --    0.10992   0.12632   0.13599   0.13992   0.15454
 Alpha virt. eigenvalues --    0.15745   0.16487   0.18414   0.20540   0.21939

 Mulliken charges:
               1
     1  C   -0.259412
     2  C   -0.035085
     3  H    0.157366
     4  H    0.057158
     5  H    0.029224
     6  C    0.001688
     7  H    0.003651
     8  H    0.031624
     9  C   -0.337033
    10  H    0.028233
    11  H    0.013342
    12  H    0.248560
    13  H    0.065705
    14  H   -0.005019
 Sum of Mulliken charges =   0.00000

 Dipole moment (field-independent basis, Debye):
    X=             -0.5632    Y=             -0.3489    Z=             -1.0070  Tot=              1.2054
 Quadrupole moment (field-independent basis, Debye-Ang):
   XX=            -28.8427   YY=            -30.1152   ZZ=            -28.3588
   XY=             -1.1250   XZ=             -0.2114   YZ=             -0.3373

 Normal termination of Gaussian 09 at Wed Aug 26 21:14:11 2020.
