 Gaussian 09, Revision D.01,
 Gaussian 09:  ES64L-G09RevD.01 24-Apr-2013

 --------------------
 #p B2PLYPD3/Def2QZVP
 --------------------

 ----------
 butane_opt
 ----------
 Symbolic Z-matrix:
 Charge =  0 Multiplicity = 1

                         Standard orientation:
 ---------------------------------------------------------------------
 Center     Atomic      Atomic             Coordinates (Angstroms)
 Number     Number       Type             X           Y           Z
 ---------------------------------------------------------------------
      1          6           0       -1.898526    0.102088   -0.039474
      2          6           0       -0.551035   -0.587211    0.014435
      3          1           0       -2.667353   -0.470638   -0.250579
      4          1           0       -2.221852    1.128995   -1.068789
      5          1           0       -2.136261    0.550836    0.902047
      6          6           0        0.583565    0.518289    0.259257
      7          1           0       -0.334542   -0.963172   -0.841914
      8          1           0       -0.384870   -1.335854    0.785367
      9          6           0        1.876920   -0.132707   -0.131269
     10          1           0        0.538651    0.996792    1.083505
     11          1           0        0.332055    1.194550   -0.414999
     12          1           0        2.508708   -0.765166    0.684158
     13          1           0        2.826952    0.809740   -0.653447
     14          1           0        1.472967   -0.548832   -0.843049
 ---------------------------------------------------------------------

 SCF Done:  E(RB2PLYPD3) =  -157.930872678     A.U. after   11 cycles
 E2(B2PLYPD3) =    -0.2493303157D+00 E(B2PLYPD3) =    -0.15818020299374D+03

 The electronic state is 1-A.
 Alpha  occ. eigenvalues --  -10.62371 -10.62028 -10.60312 -10.57975  -0.93387
 Alpha  occ. eigenvalues --   -0.84240  -0.72675  -0.70841  -0.56069  -0.51428
 Alpha  occ. eigenvalues --   -0.49724  -0.44984  -0.43118  -0.41906  -0.40914
 Alpha  occ. eigenvalues --   -0.37072  -0.33802
 Alpha virt. eigenvalues --    0.04601   0.05441   0.08026   0.08679   0.10127
 Alpha virt. eigenvalues --    0.10690   0.12375   0.13284   0.14532   0.15554
 Alpha virt. eigenvalues --    0.15819   0.17211   0.18371   0.19622   0.21562

 Mulliken charges:
               1
     1  C   -0.148691
     2  C   -0.090304
     3  H    0.060862
     4  H   -0.011907
     5  H    0.057530
     6  C   -0.039563
     7  H    0.080802
     8  H    0.040044
     9  C   -0.214395
    10  H    0.041221
    11  H    0.062281
    12  H    0.054284
    13  H   -0.007266
    14  H    0.115101
 Sum of Mulliken charges =   0.00000

 Dipole moment (field-independent basis, Debye):
    X=             -0.5594    Y=             -0.5159    Z=              0.3962  Tot=              0.8580
 Quadrupole moment (field-independent basis, Debye-Ang):
   XX=            -30.9488   YY=            -29.2298   ZZ=            -28.4218
   XY=              0.1160   XZ=              0.4477   YZ=              0.0747

 Normal termination of Gaussian 09 at Wed Aug 26 22:27:31 2020.
