 Gaussian 09, Revision D.01,
 Gaussian 09:  ES64L-G09RevD.01 24-Apr-2013

 --------------------
 #p B2PLYPD3/Def2QZVP
 --------------------

 ----------
 butane_opt
 ----------
 Symbolic Z-matrix:
 Charge =  0 Multiplicity = 1

                         Standard orientation:
 ---------------------------------------------------------------------
 Center     Atomic      Atomic             Coordinates (Angstroms)
 Number     Number       Type             X           Y           Z
 ---------------------------------------------------------------------
      1          6           0        1.955606    0.050178   -0.150285
      2          6           0        0.629526   -0.447883    0.201175
      3          1           0        2.766568   -0.810360   -0.547441
      4          1           0        2.315148    0.992699    0.804442
      5          1           0        1.865985    0.635575   -1.024694
      6          6           0       -0.535560    0.578569    0.040234
      7          1           0        0.683819   -1.379941    1.422045
      8          1           0        0.520106   -0.643636   -0.306482
      9          6           0       -2.082350   -0.200833   -0.091174
     10          1           0       -0.461194    1.073074   -0.767341
     11          1           0       -0.589659    1.340351    0.880325
     12          1           0       -2.037902   -1.228820   -1.077295
     13          1           0       -2.875112    0.508486    0.064915
     14          1           0       -1.991090   -0.367609    0.551826
 ---------------------------------------------------------------------

 SCF Done:  E(RB2PLYPD3) =  -156.983705966     A.U. after   12 cycles
 E2(B2PLYPD3) =    -0.2542742581D+00 E(B2PLYPD3) =    -0.15723798022446D+03

 The electronic state is 1-A.
 Alpha  occ. eigenvalues --  -10.64259 -10.62271 -10.61746 -10.60147  -0.97714
 Alpha  occ. eigenvalues --   -0.88026  -0.75625  -0.71159  -0.54878  -0.50659
 Alpha  occ. eigenvalues --   -0.47395  -0.46471  -0.45227  -0.40367  -0.37467
 Alpha  occ. eigenvalues --   -0.36416  -0.35038
 Alpha virt. eigenvalues --    0.03943   0.05389   0.05850   0.08153   0.10204
 Alpha virt. eigenvalues --    0.10440   0.11256   0.12771   0.13521   0.14279
 Alpha virt. eigenvalues --    0.15423   0.16647   0.18256   0.18927   0.20302

 Mulliken charges:
               1
     1  C   -0.095586
     2  C   -0.977145
     3  H    0.053363
     4  H    0.019694
     5  H    0.053587
     6  C   -0.023473
     7  H    0.019101
     8  H    0.865258
     9  C   -0.715965
    10  H    0.084864
    11  H    0.022749
    12  H    0.055320
    13  H    0.080129
    14  H    0.558105
 Sum of Mulliken charges =   0.00000

 Dipole moment (field-independent basis, Debye):
    X=             -0.1964    Y=              0.1778    Z=             -0.4914  Tot=              0.5582
 Quadrupole moment (field-independent basis, Debye-Ang):
   XX=            -30.6359   YY=            -28.9599   ZZ=            -27.9645
   XY=             -1.2804   XZ=             -1.8593   YZ=              0.7539

 Normal termination of Gaussian 09 at Wed Aug 26 22:56:38 2020.
