 Gaussian 09, Revision D.01,
 Gaussian 09:  ES64L-G09RevD.01 24-Apr-2013

 --------------------
 #p B2PLYPD3/Def2QZVP
 --------------------

 ----------
 butane_opt
 ----------
 Symbolic Z-matrix:
 Charge =  0 Multiplicity = 1

                         Standard orientation:
 ---------------------------------------------------------------------
 Center     Atomic      Atomic             Coordinates (Angstroms)
 Number     Number       Type             X           Y           Z
 ---------------------------------------------------------------------
      1          6           0       -1.963878    0.109589   -0.051753
      2          6           0       -0.661608   -0.463189    0.045185
      3          1           0       -2.889282   -0.872200    0.301040
      4          1           0       -2.277445    1.188803   -1.246319
      5          1           0       -1.973924    0.338021    0.540151
      6          6           0        0.582727    0.501852    0.078544
      7          1           0       -0.329652   -1.131673   -0.866735
      8          1           0       -0.488310   -1.165938    1.069973
      9          6           0        2.020225   -0.137145   -0.099803
     10          1           0        0.499383    1.676482    1.343010
     11          1           0        0.518178    0.809424   -0.582421
     12          1           0        2.535095   -0.800884    0.668760
     13          1           0        2.540631    0.488223   -0.191935
     14          1           0        2.000535   -0.596904   -0.868564
 ---------------------------------------------------------------------

 SCF Done:  E(RB2PLYPD3) =  -157.217166479     A.U. after   12 cycles
 E2(B2PLYPD3) =    -0.2552406291D+00 E(B2PLYPD3) =    -0.15747240710787D+03

 The electronic state is 1-A.
 Alpha  occ. eigenvalues --  -10.64512 -10.63571 -10.63206 -10.56728  -0.96312
 Alpha  occ. eigenvalues --   -0.91015  -0.80171  -0.69097  -0.54614  -0.54033
 Alpha  occ. eigenvalues --   -0.48094  -0.46975  -0.44143  -0.42928  -0.39543
 Alpha  occ. eigenvalues --   -0.34902  -0.33030
 Alpha virt. eigenvalues --    0.01703   0.02853   0.05061   0.06533   0.09709
 Alpha virt. eigenvalues --    0.10980   0.11681   0.12869   0.14352   0.14673
 Alpha virt. eigenvalues --    0.14816   0.16056   0.17624   0.19217   0.20397

 Mulliken charges:
               1
     1  C   -0.772963
     2  C    0.042275
     3  H    0.049403
     4  H    0.033784
     5  H    0.626148
     6  C   -0.484521
     7  H    0.025970
     8  H    0.032070
     9  C   -0.265320
    10  H   -0.053248
    11  H    0.468702
    12  H    0.036538
    13  H    0.184446
    14  H    0.076716
 Sum of Mulliken charges =   0.00000

 Dipole moment (field-independent basis, Debye):
    X=              0.6226    Y=             -0.5116    Z=             -0.5617  Tot=              0.9823
 Quadrupole moment (field-independent basis, Debye-Ang):
   XX=            -29.1940   YY=            -30.3567   ZZ=            -28.6169
   XY=             -0.4409   XZ=             -1.7371   YZ=             -1.4728

 Normal termination of Gaussian 09 at Wed Aug 26 19:00:16 2020.
