 Gaussian 09, Revision D.01,
 Gaussian 09:  ES64L-G09RevD.01 24-Apr-2013

 --------------------
 #p B2PLYPD3/Def2QZVP
 --------------------

 ----------
 butane_opt
 ----------
 Symbolic Z-matrix:
 Charge =  0 Multiplicity = 1

                         Standard orientation:
 ---------------------------------------------------------------------
 Center     Atomic      Atomic             Coordinates (Angstroms)
 Number     Number       Type             X           Y           Z
 ---------------------------------------------------------------------
      1          6           0        1.925382    0.030362   -0.053383
      2          6           0        0.588597   -0.469719    0.024165
      3          1           0        2.582425   -0.653807    0.189040
      4          1           0        2.080655    0.506848    0.655404
      5          1           0        2.141980    0.785070   -1.040973
      6          6           0       -0.461522    0.607274    0.122244
      7          1           0        0.583311   -1.007039    0.971275
      8          1           0        0.631318   -1.092526   -0.843758
      9          6           0       -2.001986   -0.185126   -0.149545
     10          1           0       -0.218227    1.080866   -0.570959
     11          1           0       -0.592803    1.418946    1.103618
     12          1           0       -2.108152   -0.551062   -0.812459
     13          1           0       -2.773800    0.687329   -0.300392
     14          1           0       -2.629535   -1.071369    0.988323
 ---------------------------------------------------------------------

 SCF Done:  E(RB2PLYPD3) =  -157.731391610     A.U. after   11 cycles
 E2(B2PLYPD3) =    -0.2502673041D+00 E(B2PLYPD3) =    -0.15798165891376D+03

 The electronic state is 1-A.
 Alpha  occ. eigenvalues --  -10.62496 -10.62240 -10.59560 -10.56785  -0.94177
 Alpha  occ. eigenvalues --   -0.84958  -0.78109  -0.69098  -0.56195  -0.52009
 Alpha  occ. eigenvalues --   -0.48267  -0.47121  -0.43327  -0.39681  -0.38521
 Alpha  occ. eigenvalues --   -0.36538  -0.35571
 Alpha virt. eigenvalues --    0.04001   0.05872   0.07630   0.08547   0.09493
 Alpha virt. eigenvalues --    0.10968   0.12519   0.13268   0.14328   0.15115
 Alpha virt. eigenvalues --    0.15284   0.16586   0.18624   0.19811   0.21083

 Mulliken charges:
               1
     1  C   -0.193929
     2  C   -0.003270
     3  H    0.039309
     4  H    0.102287
     5  H    0.013957
     6  C   -0.154732
     7  H    0.030154
     8  H    0.048588
     9  C   -0.427434
    10  H    0.157096
    11  H    0.034246
    12  H    0.306550
    13  H    0.040497
    14  H    0.006680
 Sum of Mulliken charges =   0.00000

 Dipole moment (field-independent basis, Debye):
    X=              0.6016    Y=              0.2822    Z=             -0.2577  Tot=              0.7128
 Quadrupole moment (field-independent basis, Debye-Ang):
   XX=            -30.5731   YY=            -28.9367   ZZ=            -27.8896
   XY=             -0.9179   XZ=              1.7273   YZ=              0.0793

 Normal termination of Gaussian 09 at Wed Aug 26 15:13:33 2020.
