 Gaussian 09, Revision D.01,
 Gaussian 09:  ES64L-G09RevD.01 24-Apr-2013

 --------------------
 #p B2PLYPD3/Def2QZVP
 --------------------

 ----------
 butane_opt
 ----------
 Symbolic Z-matrix:
 Charge =  0 Multiplicity = 1

                         Standard orientation:
 ---------------------------------------------------------------------
 Center     Atomic      Atomic             Coordinates (Angstroms)
 Number     Number       Type             X           Y           Z
 ---------------------------------------------------------------------
      1          6           0       -1.986566   -0.122404   -0.170160
      2          6           0       -0.576545    0.595633    0.105917
      3          1           0       -2.509974    0.317118   -0.034739
      4          1           0       -2.209908   -0.584402    0.562811
      5          1           0       -2.374280   -1.018015   -1.133457
      6          6           0        0.605065   -0.435894    0.283888
      7          1           0       -0.595921    1.561732    1.107471
      8          1           0       -0.286902    0.836429   -0.704567
      9          6           0        1.931632    0.080757   -0.248889
     10          1           0        0.417007   -1.059176   -0.397478
     11          1           0        0.603439   -1.387603    1.578108
     12          1           0        1.944594    0.524333   -1.049036
     13          1           0        2.890765   -0.760676   -0.315533
     14          1           0        2.279662    0.861703    0.561888
 ---------------------------------------------------------------------

 SCF Done:  E(RB2PLYPD3) =  -157.575640284     A.U. after   11 cycles
 E2(B2PLYPD3) =    -0.2525574413D+00 E(B2PLYPD3) =    -0.15782819772542D+03

 The electronic state is 1-A.
 Alpha  occ. eigenvalues --  -10.63779 -10.63644 -10.61425 -10.57244  -0.93699
 Alpha  occ. eigenvalues --   -0.88513  -0.78200  -0.68244  -0.53146  -0.52010
 Alpha  occ. eigenvalues --   -0.48124  -0.47729  -0.42678  -0.40158  -0.39886
 Alpha  occ. eigenvalues --   -0.36569  -0.34525
 Alpha virt. eigenvalues --    0.03663   0.05251   0.06566   0.07077   0.10701
 Alpha virt. eigenvalues --    0.11229   0.11709   0.13128   0.14250   0.15066
 Alpha virt. eigenvalues --    0.15634   0.16526   0.18936   0.19360   0.19875

 Mulliken charges:
               1
     1  C   -0.534649
     2  C   -0.137829
     3  H    0.377589
     4  H    0.082030
     5  H    0.038201
     6  C   -0.110887
     7  H    0.027907
     8  H    0.179198
     9  C   -0.183704
    10  H    0.126879
    11  H   -0.025099
    12  H    0.089204
    13  H    0.034814
    14  H    0.036347
 Sum of Mulliken charges =   0.00000

 Dipole moment (field-independent basis, Debye):
    X=             -0.4170    Y=              0.3154    Z=             -0.6158  Tot=              0.8078
 Quadrupole moment (field-independent basis, Debye-Ang):
   XX=            -28.4882   YY=            -29.5946   ZZ=            -28.9733
   XY=              0.4454   XZ=             -1.7198   YZ=              0.9810

 Normal termination of Gaussian 09 at Wed Aug 26 20:16:04 2020.
