 Gaussian 09, Revision D.01,
 Gaussian 09:  ES64L-G09RevD.01 24-Apr-2013

 --------------------
 #p B2PLYPD3/Def2QZVP
 --------------------

 ----------
 butane_opt
 ----------
 Symbolic Z-matrix:
 Charge =  0 Multiplicity = 1

                         Standard orientation:
 ---------------------------------------------------------------------
 Center     Atomic      Atomic             Coordinates (Angstroms)
 Number     Number       Type             X           Y           Z
 ---------------------------------------------------------------------
      1          6           0       -1.908545    0.088766    0.030640
      2          6           0       -0.588732   -0.495389    0.020623
      3          1           0       -2.726268   -0.691354   -0.218880
      4          1           0       -1.991942    0.486506   -0.693575
      5          1           0       -2.268161    0.918743    1.015973
      6          6           0        0.541716    0.576905   -0.075257
      7          1           0       -0.607785   -1.174566   -0.910970
      8          1           0       -0.583203   -1.052527    0.901724
      9          6           0        1.977923   -0.138061    0.024631
     10          1           0        0.562384    1.214653    0.700473
     11          1           0        0.333111    1.266669   -1.071409
     12          1           0        2.159465   -0.869816    0.992683
     13          1           0        2.766519    0.535145    0.170531
     14          1           0        2.221711   -0.826785   -0.890371
 ---------------------------------------------------------------------

 SCF Done:  E(RB2PLYPD3) =  -157.972483389     A.U. after   11 cycles
 E2(B2PLYPD3) =    -0.2484334296D+00 E(B2PLYPD3) =    -0.15822091681891D+03

 The electronic state is 1-A.
 Alpha  occ. eigenvalues --  -10.62375 -10.62133 -10.60483 -10.58930  -0.92175
 Alpha  occ. eigenvalues --   -0.83572  -0.72959  -0.67566  -0.54519  -0.48749
 Alpha  occ. eigenvalues --   -0.48449  -0.46506  -0.42064  -0.40256  -0.39360
 Alpha  occ. eigenvalues --   -0.37681  -0.36631
 Alpha virt. eigenvalues --    0.05520   0.06274   0.07913   0.08059   0.10594
 Alpha virt. eigenvalues --    0.11554   0.12567   0.13505   0.14335   0.14702
 Alpha virt. eigenvalues --    0.15835   0.16631   0.19190   0.20256   0.21292

 Mulliken charges:
               1
     1  C   -0.282884
     2  C   -0.009140
     3  H    0.031801
     4  H    0.170236
     5  H    0.019319
     6  C   -0.062308
     7  H    0.026644
     8  H    0.059191
     9  C   -0.143909
    10  H    0.059976
    11  H    0.013773
    12  H    0.024390
    13  H    0.055124
    14  H    0.037786
 Sum of Mulliken charges =   0.00000

 Dipole moment (field-independent basis, Debye):
    X=              0.0829    Y=              0.1052    Z=             -0.1824  Tot=              0.2263
 Quadrupole moment (field-independent basis, Debye-Ang):
   XX=            -30.0575   YY=            -29.0995   ZZ=            -28.2615
   XY=              0.5578   XZ=              1.3083   YZ=              0.4461

 Normal termination of Gaussian 09 at Wed Aug 26 22:31:14 2020.
