 Gaussian 09, Revision D.01,
 Gaussian 09:  ES64L-G09RevD.01 24-Apr-2013

 --------------------
 #p B2PLYPD3/Def2QZVP
 --------------------

 ----------
 butane_opt
 ----------
 Symbolic Z-matrix:
 Charge =  0 Multiplicity = 1

                         Standard orientation:
 ---------------------------------------------------------------------
 Center     Atomic      Atomic             Coordinates (Angstroms)
 Number     Number       Type             X           Y           Z
 ---------------------------------------------------------------------
      1          6           0       -1.895649   -0.118908    0.038244
      2          6           0       -0.575833    0.437945   -0.033642
      3          1           0       -2.683555    0.906278   -0.225328
      4          1           0       -2.091085   -0.856988    1.066308
      5          1           0       -1.886521   -0.627422   -0.663454
      6          6           0        0.523975   -0.462595    0.048713
      7          1           0       -0.466736    0.934059    0.726848
      8          1           0       -0.551290    1.293198   -1.144318
      9          6           0        1.915701    0.104544    0.002968
     10          1           0        0.487638   -1.214266   -0.924114
     11          1           0        0.155227   -1.050373    0.861087
     12          1           0        1.722879    0.416683   -0.707626
     13          1           0        2.816376   -0.838877   -0.461043
     14          1           0        2.687899    1.271793    1.133940
 ---------------------------------------------------------------------

 SCF Done:  E(RB2PLYPD3) =  -157.673081530     A.U. after   12 cycles
 E2(B2PLYPD3) =    -0.2565992672D+00 E(B2PLYPD3) =    -0.15792968079713D+03

 The electronic state is 1-A.
 Alpha  occ. eigenvalues --  -10.65082 -10.63006 -10.61626 -10.60829  -0.97186
 Alpha  occ. eigenvalues --   -0.88023  -0.75956  -0.67561  -0.55363  -0.50133
 Alpha  occ. eigenvalues --   -0.48889  -0.46653  -0.42024  -0.40332  -0.39803
 Alpha  occ. eigenvalues --   -0.35765  -0.33652
 Alpha virt. eigenvalues --   -0.00156   0.04458   0.05830   0.05894   0.09609
 Alpha virt. eigenvalues --    0.10109   0.11781   0.12623   0.14069   0.15000
 Alpha virt. eigenvalues --    0.15497   0.15543   0.18233   0.18757   0.20169

 Mulliken charges:
               1
     1  C   -0.239274
     2  C   -0.069534
     3  H    0.046772
     4  H    0.030830
     5  H    0.152297
     6  C   -0.010874
     7  H    0.122863
     8  H   -0.032193
     9  C   -0.421986
    10  H    0.004833
    11  H    0.042580
    12  H    0.325652
    13  H    0.040253
    14  H    0.007779
 Sum of Mulliken charges =   0.00000

 Dipole moment (field-independent basis, Debye):
    X=             -0.5512    Y=             -0.4445    Z=             -0.3632  Tot=              0.7958
 Quadrupole moment (field-independent basis, Debye-Ang):
   XX=            -32.6436   YY=            -29.9744   ZZ=            -29.0220
   XY=             -0.3875   XZ=             -0.9259   YZ=              0.4339

 Normal termination of Gaussian 09 at Wed Aug 26 21:19:05 2020.
