 Gaussian 09, Revision D.01,
 Gaussian 09:  ES64L-G09RevD.01 24-Apr-2013

 --------------------
 #p B2PLYPD3/Def2QZVP
 --------------------

 ----------
 butane_opt
 ----------
 Symbolic Z-matrix:
 Charge =  0 Multiplicity = 1

                         Standard orientation:
 ---------------------------------------------------------------------
 Center     Atomic      Atomic             Coordinates (Angstroms)
 Number     Number       Type             X           Y           Z
 ---------------------------------------------------------------------
      1          6           0        1.862014    0.017361    0.057244
      2          6           0        0.572447   -0.419069   -0.113269
      3          1           0        2.727303   -0.878926    0.036850
      4          1           0        2.022101    1.239390    1.364519
      5          1           0        1.999621    0.396933   -0.599431
      6          6           0       -0.472930    0.594646   -0.197977
      7          1           0        0.439102   -1.269406    0.879598
      8          1           0        0.599187   -0.968692   -0.997925
      9          6           0       -1.915323   -0.153578    0.140051
     10          1           0       -0.520851    1.382453   -1.210432
     11          1           0       -0.524232    1.126048    0.627601
     12          1           0       -2.464923   -0.937750   -0.789998
     13          1           0       -2.650309    0.294083    0.384013
     14          1           0       -1.904250   -0.620290    0.988917
 ---------------------------------------------------------------------

 SCF Done:  E(RB2PLYPD3) =  -157.712505530     A.U. after   12 cycles
 E2(B2PLYPD3) =    -0.2535498485D+00 E(B2PLYPD3) =    -0.15796605537840D+03

 The electronic state is 1-A.
 Alpha  occ. eigenvalues --  -10.63267 -10.62698 -10.62213 -10.59468  -0.96300
 Alpha  occ. eigenvalues --   -0.86675  -0.77272  -0.67862  -0.56394  -0.51436
 Alpha  occ. eigenvalues --   -0.50542  -0.46510  -0.42756  -0.41742  -0.37364
 Alpha  occ. eigenvalues --   -0.36587  -0.32741
 Alpha virt. eigenvalues --    0.01351   0.05518   0.06151   0.06660   0.10070
 Alpha virt. eigenvalues --    0.10397   0.12309   0.12667   0.13294   0.14845
 Alpha virt. eigenvalues --    0.15792   0.16732   0.18293   0.19583   0.21381

 Mulliken charges:
               1
     1  C   -0.366302
     2  C   -0.007587
     3  H    0.062384
     4  H   -0.061465
     5  H    0.295506
     6  C   -0.091752
     7  H    0.010067
     8  H    0.067075
     9  C   -0.167202
    10  H    0.028688
    11  H    0.096199
    12  H    0.002117
    13  H    0.077917
    14  H    0.054355
 Sum of Mulliken charges =   0.00000

 Dipole moment (field-independent basis, Debye):
    X=             -0.3385    Y=             -0.2381    Z=             -0.6707  Tot=              0.7881
 Quadrupole moment (field-independent basis, Debye-Ang):
   XX=            -30.6177   YY=            -30.1174   ZZ=            -28.7544
   XY=             -2.4250   XZ=             -3.4282   YZ=             -0.3700

 Normal termination of Gaussian 09 at Wed Aug 26 14:09:05 2020.
