 Gaussian 09, Revision D.01,
 Gaussian 09:  ES64L-G09RevD.01 24-Apr-2013

 --------------------
 #p B2PLYPD3/Def2QZVP
 --------------------

 ----------
 butane_opt
 ----------
 Symbolic Z-matrix:
 Charge =  0 Multiplicity = 1

                         Standard orientation:
 ---------------------------------------------------------------------
 Center     Atomic      Atomic             Coordinates (Angstroms)
 Number     Number       Type             X           Y           Z
 ---------------------------------------------------------------------
      1          6           0       -1.959111    0.085449   -0.051770
      2          6           0       -0.628466   -0.463823    0.109869
      3          1           0       -2.761459   -0.692014   -0.408986
      4          1           0       -1.957380    0.451209   -0.771284
      5          1           0       -2.249026    0.873952    0.909452
      6          6           0        0.572495    0.583696   -0.020869
      7          1           0       -0.481928   -1.073006   -0.640069
      8          1           0       -0.454178   -1.163493    1.081240
      9          6           0        1.958381   -0.150246   -0.033368
     10          1           0        0.627808    1.361023    0.835618
     11          1           0        0.351903    1.046548   -0.878134
     12          1           0        2.290557   -0.764681    0.901694
     13          1           0        2.752974    0.486153   -0.158949
     14          1           0        2.220934   -0.856152   -0.893756
 ---------------------------------------------------------------------

 SCF Done:  E(RB2PLYPD3) =  -157.961576141     A.U. after   11 cycles
 E2(B2PLYPD3) =    -0.2474305457D+00 E(B2PLYPD3) =    -0.15820900668682D+03

 The electronic state is 1-A.
 Alpha  occ. eigenvalues --  -10.61530 -10.60699 -10.60122 -10.58947  -0.92334
 Alpha  occ. eigenvalues --   -0.84519  -0.74217  -0.68084  -0.54315  -0.50492
 Alpha  occ. eigenvalues --   -0.48320  -0.46600  -0.42483  -0.40923  -0.40111
 Alpha  occ. eigenvalues --   -0.37945  -0.35997
 Alpha virt. eigenvalues --    0.05458   0.06494   0.08385   0.08798   0.10752
 Alpha virt. eigenvalues --    0.11604   0.12750   0.13279   0.14698   0.15173
 Alpha virt. eigenvalues --    0.15982   0.16802   0.19151   0.19506   0.21685

 Mulliken charges:
               1
     1  C   -0.347400
     2  C   -0.026459
     3  H    0.036415
     4  H    0.221534
     5  H    0.042218
     6  C   -0.065948
     7  H    0.067257
     8  H    0.014320
     9  C   -0.122522
    10  H    0.024483
    11  H    0.060424
    12  H    0.035499
    13  H    0.044651
    14  H    0.015528
 Sum of Mulliken charges =   0.00000

 Dipole moment (field-independent basis, Debye):
    X=              0.1904    Y=              0.1624    Z=             -0.6349  Tot=              0.6825
 Quadrupole moment (field-independent basis, Debye-Ang):
   XX=            -29.3834   YY=            -29.1468   ZZ=            -28.0298
   XY=              0.0712   XZ=              1.0765   YZ=              0.4240

 Normal termination of Gaussian 09 at Wed Aug 26 12:29:15 2020.
