 Gaussian 09, Revision D.01,
 Gaussian 09:  ES64L-G09RevD.01 24-Apr-2013

 --------------------
 #p B2PLYPD3/Def2QZVP
 --------------------

 ----------
 butane_opt
 ----------
 Symbolic Z-matrix:
 Charge =  0 Multiplicity = 1

                         Standard orientation:
 ---------------------------------------------------------------------
 Center     Atomic      Atomic             Coordinates (Angstroms)
 Number     Number       Type             X           Y           Z
 ---------------------------------------------------------------------
      1          6           0        1.963247    0.082538   -0.194243
      2          6           0        0.630395   -0.407598    0.149724
      3          1           0        3.021040   -0.879950   -0.167203
      4          1           0        2.212533    0.436597    0.518073
      5          1           0        1.894924    0.945099   -1.208478
      6          6           0       -0.546502    0.643942    0.243150
      7          1           0        0.792997   -1.210668    1.261372
      8          1           0        0.364787   -0.898430   -0.554663
      9          6           0       -2.015384   -0.221131   -0.120058
     10          1           0       -0.586027    1.044548   -0.280946
     11          1           0       -0.610943    1.268768    1.066903
     12          1           0       -1.943660   -0.964035   -1.017307
     13          1           0       -2.801131    0.461677   -0.759056
     14          1           0       -2.535056   -0.790109    0.669862
 ---------------------------------------------------------------------

 SCF Done:  E(RB2PLYPD3) =  -157.568936419     A.U. after   11 cycles
 E2(B2PLYPD3) =    -0.2509072362D+00 E(B2PLYPD3) =    -0.15781984365533D+03

 The electronic state is 1-A.
 Alpha  occ. eigenvalues --  -10.63412 -10.62164 -10.61548 -10.59242  -0.93707
 Alpha  occ. eigenvalues --   -0.85663  -0.74215  -0.71858  -0.55790  -0.48948
 Alpha  occ. eigenvalues --   -0.47673  -0.46680  -0.44422  -0.39983  -0.39032
 Alpha  occ. eigenvalues --   -0.36948  -0.35299
 Alpha virt. eigenvalues --    0.03977   0.05912   0.06919   0.08660   0.10132
 Alpha virt. eigenvalues --    0.11472   0.11637   0.12749   0.14214   0.15146
 Alpha virt. eigenvalues --    0.15257   0.16577   0.18619   0.18958   0.20694

 Mulliken charges:
               1
     1  C   -0.279633
     2  C   -0.055055
     3  H    0.014653
     4  H    0.189921
     5  H    0.031554
     6  C   -0.622689
     7  H   -0.002822
     8  H    0.147508
     9  C   -0.152751
    10  H    0.534072
    11  H    0.075104
    12  H    0.027991
    13  H    0.023609
    14  H    0.068536
 Sum of Mulliken charges =   0.00000

 Dipole moment (field-independent basis, Debye):
    X=             -0.1820    Y=              0.4616    Z=             -0.0196  Tot=              0.4966
 Quadrupole moment (field-independent basis, Debye-Ang):
   XX=            -30.7753   YY=            -28.8536   ZZ=            -28.3755
   XY=              0.4017   XZ=              1.4986   YZ=             -0.1807

 Normal termination of Gaussian 09 at Wed Aug 26 19:26:03 2020.
