 Gaussian 09, Revision D.01,
 Gaussian 09:  ES64L-G09RevD.01 24-Apr-2013

 --------------------
 #p B2PLYPD3/Def2QZVP
 --------------------

 ----------
 butane_opt
 ----------
 Symbolic Z-matrix:
 Charge =  0 Multiplicity = 1

                         Standard orientation:
 ---------------------------------------------------------------------
 Center     Atomic      Atomic             Coordinates (Angstroms)
 Number     Number       Type             X           Y           Z
 ---------------------------------------------------------------------
      1          6           0       -2.020798   -0.110580   -0.084909
      2          6           0       -0.521678    0.618420    0.154236
      3          1           0       -2.654763    0.439912   -0.665204
      4          1           0       -2.503599   -1.293904    1.125178
      5          1           0       -2.148048   -0.567239   -0.825348
      6          6           0        0.613778   -0.430375    0.078514
      7          1           0       -0.512829    1.261282    0.922246
      8          1           0       -0.183398    1.418068   -0.776782
      9          6           0        1.944560   -0.010974   -0.055555
     10          1           0        0.500752   -1.356586   -0.925781
     11          1           0        0.360490   -0.933632    0.902338
     12          1           0        1.852750    0.571246   -0.879951
     13          1           0        2.813148   -0.612434   -0.384078
     14          1           0        2.380322    0.674344    0.953671
 ---------------------------------------------------------------------

 SCF Done:  E(RB2PLYPD3) =  -157.806298205     A.U. after   11 cycles
 E2(B2PLYPD3) =    -0.2549839302D+00 E(B2PLYPD3) =    -0.15806128213507D+03

 The electronic state is 1-A.
 Alpha  occ. eigenvalues --  -10.64602 -10.63476 -10.62237 -10.60941  -0.92515
 Alpha  occ. eigenvalues --   -0.86145  -0.77429  -0.67483  -0.54006  -0.51202
 Alpha  occ. eigenvalues --   -0.47913  -0.44544  -0.43761  -0.41588  -0.36111
 Alpha  occ. eigenvalues --   -0.34560  -0.34331
 Alpha virt. eigenvalues --    0.00338   0.05159   0.06813   0.07315   0.09772
 Alpha virt. eigenvalues --    0.10344   0.11471   0.12863   0.13862   0.15543
 Alpha virt. eigenvalues --    0.15682   0.17177   0.18359   0.18584   0.19868

 Mulliken charges:
               1
     1  C   -0.227915
     2  C   -0.044217
     3  H    0.058009
     4  H    0.002039
     5  H    0.145049
     6  C   -0.021678
     7  H    0.077880
     8  H   -0.020518
     9  C   -0.143090
    10  H   -0.009572
    11  H    0.062114
    12  H    0.060326
    13  H    0.056516
    14  H    0.005058
 Sum of Mulliken charges =   0.00000

 Dipole moment (field-independent basis, Debye):
    X=              0.3289    Y=              0.1773    Z=             -0.6695  Tot=              0.7667
 Quadrupole moment (field-independent basis, Debye-Ang):
   XX=            -30.5763   YY=            -30.3382   ZZ=            -28.4261
   XY=             -0.1927   XZ=              1.5848   YZ=              0.1248

 Normal termination of Gaussian 09 at Wed Aug 26 12:46:00 2020.
