 Gaussian 09, Revision D.01,
 Gaussian 09:  ES64L-G09RevD.01 24-Apr-2013

 --------------------
 #p B2PLYPD3/Def2QZVP
 --------------------

 ----------
 butane_opt
 ----------
 Symbolic Z-matrix:
 Charge =  0 Multiplicity = 1

                         Standard orientation:
 ---------------------------------------------------------------------
 Center     Atomic      Atomic             Coordinates (Angstroms)
 Number     Number       Type             X           Y           Z
 ---------------------------------------------------------------------
      1          6           0       -1.961770    0.112306   -0.219333
      2          6           0       -0.525779   -0.430637    0.294647
      3          1           0       -2.794923   -0.876584   -0.603298
      4          1           0       -1.769656    0.185838   -0.933982
      5          1           0       -2.117470    1.198205    0.697521
      6          6           0        0.595164    0.512954    0.090093
      7          1           0       -0.322778   -0.784132   -0.231294
      8          1           0       -0.692236   -1.296538    1.394022
      9          6           0        1.947922   -0.154476   -0.151516
     10          1           0        0.466851    1.519939    1.075208
     11          1           0        0.433063    1.033022   -0.830076
     12          1           0        2.075227   -0.708017    0.763188
     13          1           0        2.639908    0.461574   -0.479291
     14          1           0        1.748793   -0.974189   -0.935345
 ---------------------------------------------------------------------

 SCF Done:  E(RB2PLYPD3) =  -157.465357943     A.U. after   12 cycles
 E2(B2PLYPD3) =    -0.2539480231D+00 E(B2PLYPD3) =    -0.15771930596596D+03

 The electronic state is 1-A.
 Alpha  occ. eigenvalues --  -10.64018 -10.62705 -10.60552 -10.59970  -0.96760
 Alpha  occ. eigenvalues --   -0.85895  -0.78120  -0.67576  -0.54994  -0.53737
 Alpha  occ. eigenvalues --   -0.47807  -0.46148  -0.42607  -0.40823  -0.38973
 Alpha  occ. eigenvalues --   -0.35318  -0.34797
 Alpha virt. eigenvalues --    0.03436   0.06192   0.06798   0.07107   0.09543
 Alpha virt. eigenvalues --    0.10966   0.11830   0.12378   0.13174   0.15117
 Alpha virt. eigenvalues --    0.16015   0.16699   0.18125   0.18628   0.19392

 Mulliken charges:
               1
     1  C   -0.503793
     2  C   -0.744859
     3  H    0.029916
     4  H    0.402500
     5  H    0.073020
     6  C   -0.024361
     7  H    0.666257
     8  H    0.036838
     9  C   -0.142747
    10  H   -0.022151
    11  H    0.054274
    12  H    0.073917
    13  H    0.072173
    14  H    0.029016
 Sum of Mulliken charges =   0.00000

 Dipole moment (field-independent basis, Debye):
    X=              0.6757    Y=             -0.2758    Z=             -1.0227  Tot=              1.2564
 Quadrupole moment (field-independent basis, Debye-Ang):
   XX=            -31.1123   YY=            -29.7492   ZZ=            -28.3525
   XY=              0.5654   XZ=             -0.0817   YZ=              0.3404

 Normal termination of Gaussian 09 at Wed Aug 26 13:30:00 2020.
