 Gaussian 09, Revision D.01,
 Gaussian 09:  ES64L-G09RevD.01 24-Apr-2013

 --------------------
 #p B2PLYPD3/Def2QZVP
 --------------------

 ----------
 butane_opt
 ----------
 Symbolic Z-matrix:
 Charge =  0 Multiplicity = 1

                         Standard orientation:
 ---------------------------------------------------------------------
 Center     Atomic      Atomic             Coordinates (Angstroms)
 Number     Number       Type             X           Y           Z
 ---------------------------------------------------------------------
      1          6           0       -1.924592   -0.147065    0.017510
      2          6           0       -0.555172    0.552176   -0.027919
      3          1           0       -2.581574    0.525429    0.034761
      4          1           0       -2.152964   -0.806275    0.953896
      5          1           0       -2.069733   -0.608301   -0.760152
      6          6           0        0.557258   -0.501225    0.002211
      7          1           0       -0.377093    1.083102    0.727136
      8          1           0       -0.443474    1.371407   -1.085471
      9          6           0        1.901516    0.113350    0.002346
     10          1           0        0.376809   -1.201320   -0.908849
     11          1           0        0.473283   -1.133133    0.942957
     12          1           0        1.873874    0.440950   -0.667339
     13          1           0        2.799970   -0.760526   -0.336263
     14          1           0        2.226841    0.985250    1.134435
 ---------------------------------------------------------------------

 SCF Done:  E(RB2PLYPD3) =  -157.797879736     A.U. after   11 cycles
 E2(B2PLYPD3) =    -0.2491545250D+00 E(B2PLYPD3) =    -0.15804703426067D+03

 The electronic state is 1-A.
 Alpha  occ. eigenvalues --  -10.61621 -10.61470 -10.61103 -10.57139  -0.93236
 Alpha  occ. eigenvalues --   -0.86593  -0.75858  -0.67233  -0.55010  -0.49557
 Alpha  occ. eigenvalues --   -0.48975  -0.47577  -0.43120  -0.41436  -0.39234
 Alpha  occ. eigenvalues --   -0.37056  -0.35800
 Alpha virt. eigenvalues --    0.04666   0.06250   0.07081   0.07524   0.10414
 Alpha virt. eigenvalues --    0.11265   0.12695   0.13274   0.14831   0.15488
 Alpha virt. eigenvalues --    0.15543   0.16531   0.19082   0.19521   0.21317

 Mulliken charges:
               1
     1  C   -0.146842
     2  C   -0.075584
     3  H    0.054584
     4  H    0.028967
     5  H    0.067430
     6  C    0.001403
     7  H    0.085513
     8  H   -0.014525
     9  C   -0.510115
    10  H    0.023622
    11  H    0.037228
    12  H    0.382156
    13  H    0.034343
    14  H    0.031821
 Sum of Mulliken charges =   0.00000

 Dipole moment (field-independent basis, Debye):
    X=             -0.5319    Y=              0.0265    Z=             -0.1650  Tot=              0.5575
 Quadrupole moment (field-independent basis, Debye-Ang):
   XX=            -30.2438   YY=            -29.3258   ZZ=            -27.8623
   XY=              0.0132   XZ=             -0.4801   YZ=              0.6049

 Normal termination of Gaussian 09 at Wed Aug 26 22:48:36 2020.
