 Gaussian 09, Revision D.01,
 Gaussian 09:  ES64L-G09RevD.01 24-Apr-2013

 --------------------
 #p B2PLYPD3/Def2QZVP
 --------------------

 ----------
 butane_opt
 ----------
 Symbolic Z-matrix:
 Charge =  0 Multiplicity = 1

                         Standard orientation:
 ---------------------------------------------------------------------
 Center     Atomic      Atomic             Coordinates (Angstroms)
 Number     Number       Type             X           Y           Z
 ---------------------------------------------------------------------
      1          6           0        1.936765   -0.165600    0.166260
      2          6           0        0.452422    0.521642   -0.034473
      3          1           0        2.672654    0.748998   -0.360442
      4          1           0        2.047209   -0.288166   -0.583786
      5          1           0        2.123684   -1.233539    1.153305
      6          6           0       -0.539145   -0.492688   -0.241510
      7          1           0        0.481263    1.475452   -0.953011
      8          1           0        0.364761    0.981428    0.652789
      9          6           0       -1.823129    0.069226    0.123940
     10          1           0       -0.563504   -0.862464    0.357132
     11          1           0       -0.375999   -1.097299   -1.234777
     12          1           0       -1.950080    0.880791    1.226914
     13          1           0       -2.582244   -0.753991    0.107103
     14          1           0       -2.379216    0.553309   -0.450526
 ---------------------------------------------------------------------

 SCF Done:  E(RB2PLYPD3) =  -157.450216345     A.U. after   11 cycles
 E2(B2PLYPD3) =    -0.2538992761D+00 E(B2PLYPD3) =    -0.15770411562065D+03

 The electronic state is 1-A.
 Alpha  occ. eigenvalues --  -10.61458 -10.60782 -10.60003 -10.56983  -0.97732
 Alpha  occ. eigenvalues --   -0.86773  -0.77146  -0.72817  -0.58138  -0.50523
 Alpha  occ. eigenvalues --   -0.49153  -0.45382  -0.41518  -0.39460  -0.38380
 Alpha  occ. eigenvalues --   -0.36485  -0.34738
 Alpha virt. eigenvalues --    0.03468   0.05192   0.06158   0.07792   0.10356
 Alpha virt. eigenvalues --    0.11329   0.11704   0.13395   0.14078   0.14903
 Alpha virt. eigenvalues --    0.15622   0.16546   0.18682   0.19425   0.22366

 Mulliken charges:
               1
     1  C   -0.542265
     2  C   -0.125751
     3  H    0.010135
     4  H    0.400657
     5  H    0.077946
     6  C   -0.573209
     7  H   -0.013539
     8  H    0.195387
     9  C   -0.135194
    10  H    0.553399
    11  H    0.070873
    12  H    0.019344
    13  H    0.014954
    14  H    0.047263
 Sum of Mulliken charges =   0.00000

 Dipole moment (field-independent basis, Debye):
    X=             -0.5691    Y=             -0.4804    Z=             -0.4432  Tot=              0.8667
 Quadrupole moment (field-independent basis, Debye-Ang):
   XX=            -30.8462   YY=            -28.5780   ZZ=            -28.1179
   XY=             -0.8873   XZ=             -0.5787   YZ=             -0.4474

 Normal termination of Gaussian 09 at Wed Aug 26 15:42:27 2020.
