 Gaussian 09, Revision D.01,
 Gaussian 09:  ES64L-G09RevD.01 24-Apr-2013

 --------------------
 #p B2PLYPD3/Def2QZVP
 --------------------

 ----------
 butane_opt
 ----------
 Symbolic Z-matrix:
 Charge =  0 Multiplicity = 1

                         Standard orientation:
 ---------------------------------------------------------------------
 Center     Atomic      Atomic             Coordinates (Angstroms)
 Number     Number       Type             X           Y           Z
 ---------------------------------------------------------------------
      1          6           0        1.838890   -0.055619    0.152212
      2          6           0        0.569610    0.451370   -0.274086
      3          1           0        2.634063    0.748961   -0.201524
      4          1           0        1.974938   -0.490248   -0.416155
      5          1           0        2.217443   -0.948391    1.388751
      6          6           0       -0.481925   -0.553931   -0.138727
      7          1           0        0.346732    1.151072   -1.179536
      8          1           0        0.301265    1.099267    0.624773
      9          6           0       -1.925487    0.120926    0.180641
     10          1           0       -0.082297   -0.990723    0.555640
     11          1           0       -0.558448   -1.289801   -0.840207
     12          1           0       -2.071196    1.292166    1.281356
     13          1           0       -2.633793   -0.730629   -0.204015
     14          1           0       -2.135232    0.381850   -0.529325
 ---------------------------------------------------------------------

 SCF Done:  E(RB2PLYPD3) =  -157.535574299     A.U. after   12 cycles
 E2(B2PLYPD3) =    -0.2557845377D+00 E(B2PLYPD3) =    -0.15779135883715D+03

 The electronic state is 1-A.
 Alpha  occ. eigenvalues --  -10.61864 -10.60843 -10.60418 -10.57963  -0.96089
 Alpha  occ. eigenvalues --   -0.87491  -0.78938  -0.68827  -0.55201  -0.50514
 Alpha  occ. eigenvalues --   -0.49601  -0.43798  -0.41151  -0.40298  -0.38620
 Alpha  occ. eigenvalues --   -0.36422  -0.34290
 Alpha virt. eigenvalues --    0.02162   0.02749   0.06353   0.07523   0.10046
 Alpha virt. eigenvalues --    0.10848   0.12190   0.13056   0.13485   0.15276
 Alpha virt. eigenvalues --    0.16049   0.16750   0.17804   0.19289   0.20887

 Mulliken charges:
               1
     1  C   -0.583396
     2  C   -0.010482
     3  H    0.056556
     4  H    0.422019
     5  H    0.042179
     6  C   -0.056882
     7  H    0.036535
     8  H    0.032786
     9  C   -0.408532
    10  H    0.091118
    11  H    0.011128
    12  H    0.052826
    13  H    0.015716
    14  H    0.298430
 Sum of Mulliken charges =   0.00000

 Dipole moment (field-independent basis, Debye):
    X=              0.1911    Y=             -0.1656    Z=             -1.0311  Tot=              1.0617
 Quadrupole moment (field-independent basis, Debye-Ang):
   XX=            -30.8674   YY=            -28.5758   ZZ=            -28.4770
   XY=             -0.9188   XZ=              1.0906   YZ=              0.4448

 Normal termination of Gaussian 09 at Wed Aug 26 18:41:55 2020.
