 Gaussian 09, Revision D.01,
 Gaussian 09:  ES64L-G09RevD.01 24-Apr-2013

 --------------------
 #p B2PLYPD3/Def2QZVP
 --------------------

 ----------
 butane_opt
 ----------
 Symbolic Z-matrix:
 Charge =  0 Multiplicity = 1

                         Standard orientation:
 ---------------------------------------------------------------------
 Center     Atomic      Atomic             Coordinates (Angstroms)
 Number     Number       Type             X           Y           Z
 ---------------------------------------------------------------------
      1          6           0        1.929997   -0.148547    0.145196
      2          6           0        0.489197    0.611982   -0.161148
      3          1           0        2.545732    0.306058    0.803470
      4          1           0        2.481934   -0.711361   -0.885685
      5          1           0        1.824765   -0.775962    0.906816
      6          6           0       -0.561522   -0.379761   -0.300176
      7          1           0        0.694644    1.495538   -0.991611
      8          1           0        0.077125    0.857613    0.665027
      9          6           0       -1.899866   -0.000974    0.165737
     10          1           0       -0.192148   -1.383648    0.658728
     11          1           0       -0.569358   -0.970792   -1.204074
     12          1           0       -1.843257    0.751520    1.267978
     13          1           0       -2.643389   -0.689669    0.177377
     14          1           0       -2.122885    0.624502   -0.495679
 ---------------------------------------------------------------------

 SCF Done:  E(RB2PLYPD3) =  -157.914581042     A.U. after   11 cycles
 E2(B2PLYPD3) =    -0.2517796816D+00 E(B2PLYPD3) =    -0.15816636072350D+03

 The electronic state is 1-A.
 Alpha  occ. eigenvalues --  -10.63217 -10.61472 -10.60382 -10.59856  -0.93972
 Alpha  occ. eigenvalues --   -0.84142  -0.76571  -0.65590  -0.55601  -0.52339
 Alpha  occ. eigenvalues --   -0.47835  -0.46147  -0.41630  -0.40751  -0.39862
 Alpha  occ. eigenvalues --   -0.38003  -0.32099
 Alpha virt. eigenvalues --    0.05004   0.06427   0.07051   0.08139   0.10198
 Alpha virt. eigenvalues --    0.11650   0.12275   0.13146   0.13735   0.14998
 Alpha virt. eigenvalues --    0.16400   0.17174   0.18513   0.19259   0.21226

 Mulliken charges:
               1
     1  C   -0.153750
     2  C   -0.120779
     3  H    0.043151
     4  H    0.040203
     5  H    0.064781
     6  C   -0.020206
     7  H    0.038153
     8  H    0.105946
     9  C   -0.155635
    10  H   -0.039361
    11  H    0.042167
    12  H    0.007485
    13  H    0.064245
    14  H    0.083601
 Sum of Mulliken charges =   0.00000

 Dipole moment (field-independent basis, Debye):
    X=             -0.3938    Y=              0.1865    Z=             -0.1650  Tot=              0.4659
 Quadrupole moment (field-independent basis, Debye-Ang):
   XX=            -29.1500   YY=            -30.3496   ZZ=            -27.9024
   XY=              0.0328   XZ=              1.3223   YZ=              0.1941

 Normal termination of Gaussian 09 at Wed Aug 26 22:07:22 2020.
