 Gaussian 09, Revision D.01,
 Gaussian 09:  ES64L-G09RevD.01 24-Apr-2013

 --------------------
 #p B2PLYPD3/Def2QZVP
 --------------------

 ----------
 butane_opt
 ----------
 Symbolic Z-matrix:
 Charge =  0 Multiplicity = 1

                         Standard orientation:
 ---------------------------------------------------------------------
 Center     Atomic      Atomic             Coordinates (Angstroms)
 Number     Number       Type             X           Y           Z
 ---------------------------------------------------------------------
      1          6           0       -1.973268    0.073587    0.019902
      2          6           0       -0.571308   -0.529189    0.005340
      3          1           0       -2.864664   -0.918730   -0.315862
      4          1           0       -2.031444    0.386668   -0.631385
      5          1           0       -2.330679    0.960148    0.993027
      6          6           0        0.553191    0.629046    0.039294
      7          1           0       -0.429756   -1.295793   -0.967342
      8          1           0       -0.450562   -0.936730    0.785692
      9          6           0        1.993248   -0.109238    0.035407
     10          1           0        0.186093    1.188588    0.908651
     11          1           0        0.471773    1.516235   -1.081359
     12          1           0        2.910989   -1.165762    1.060275
     13          1           0        2.714476    0.402018   -0.588341
     14          1           0        1.812601   -0.521874   -0.763019
 ---------------------------------------------------------------------

 SCF Done:  E(RB2PLYPD3) =  -157.599820067     A.U. after   12 cycles
 E2(B2PLYPD3) =    -0.2573618317D+00 E(B2PLYPD3) =    -0.15785718189830D+03

 The electronic state is 1-A.
 Alpha  occ. eigenvalues --  -10.66876 -10.63678 -10.61643 -10.61370  -0.92314
 Alpha  occ. eigenvalues --   -0.85748  -0.76739  -0.67880  -0.53091  -0.48555
 Alpha  occ. eigenvalues --   -0.45848  -0.45154  -0.41660  -0.40244  -0.39744
 Alpha  occ. eigenvalues --   -0.35399  -0.35024
 Alpha virt. eigenvalues --   -0.00267   0.04317   0.05605   0.06975   0.09823
 Alpha virt. eigenvalues --    0.10884   0.11260   0.12228   0.13671   0.15762
 Alpha virt. eigenvalues --    0.15822   0.16860   0.17597   0.18040   0.19216

 Mulliken charges:
               1
     1  C   -0.539683
     2  C   -0.073009
     3  H    0.023603
     4  H    0.404721
     5  H    0.048669
     6  C   -0.071529
     7  H    0.015909
     8  H    0.151440
     9  C   -0.252792
    10  H    0.063516
    11  H    0.006790
    12  H    0.030702
    13  H    0.051492
    14  H    0.140169
 Sum of Mulliken charges =   0.00000

 Dipole moment (field-independent basis, Debye):
    X=             -0.0583    Y=              0.1130    Z=             -0.6559  Tot=              0.6681
 Quadrupole moment (field-independent basis, Debye-Ang):
   XX=            -31.8522   YY=            -30.0200   ZZ=            -28.3871
   XY=             -1.2797   XZ=             -0.9115   YZ=              0.1467

 Normal termination of Gaussian 09 at Wed Aug 26 10:31:58 2020.
