 Gaussian 09, Revision D.01,
 Gaussian 09:  ES64L-G09RevD.01 24-Apr-2013

 --------------------
 #p B2PLYPD3/Def2QZVP
 --------------------

 ----------
 butane_opt
 ----------
 Symbolic Z-matrix:
 Charge =  0 Multiplicity = 1

                         Standard orientation:
 ---------------------------------------------------------------------
 Center     Atomic      Atomic             Coordinates (Angstroms)
 Number     Number       Type             X           Y           Z
 ---------------------------------------------------------------------
      1          6           0       -1.984145   -0.156805   -0.091799
      2          6           0       -0.506090    0.573492    0.018744
      3          1           0       -2.717219    0.672692    0.071865
      4          1           0       -1.994931   -0.670260    0.811091
      5          1           0       -2.195719   -0.918625   -0.958214
      6          6           0        0.558246   -0.464013    0.128081
      7          1           0       -0.614277    1.305788    0.928081
      8          1           0       -0.221501    1.044323   -0.779991
      9          6           0        1.937437    0.061609   -0.063050
     10          1           0        0.437189   -1.092257   -0.674900
     11          1           0        0.517533   -1.325853    1.113927
     12          1           0        1.897879    0.728258   -1.012901
     13          1           0        2.702661   -0.668416   -0.307611
     14          1           0        2.155695    0.838653    0.856798
 ---------------------------------------------------------------------

 SCF Done:  E(RB2PLYPD3) =  -158.048724570     A.U. after   11 cycles
 E2(B2PLYPD3) =    -0.2490059868D+00 E(B2PLYPD3) =    -0.15829773055708D+03

 The electronic state is 1-A.
 Alpha  occ. eigenvalues --  -10.61845 -10.61433 -10.61132 -10.61042  -0.91923
 Alpha  occ. eigenvalues --   -0.82071  -0.72871  -0.66050  -0.53737  -0.50348
 Alpha  occ. eigenvalues --   -0.48297  -0.46003  -0.42434  -0.41245  -0.39201
 Alpha  occ. eigenvalues --   -0.37397  -0.35659
 Alpha virt. eigenvalues --    0.05614   0.06643   0.07730   0.08236   0.10965
 Alpha virt. eigenvalues --    0.11619   0.12549   0.13841   0.14347   0.14567
 Alpha virt. eigenvalues --    0.15492   0.16230   0.19450   0.19939   0.21142

 Mulliken charges:
               1
     1  C   -0.182080
     2  C   -0.058235
     3  H    0.044875
     4  H    0.071925
     5  H    0.044735
     6  C   -0.036469
     7  H    0.020658
     8  H    0.076783
     9  C   -0.153471
    10  H    0.057509
    11  H   -0.010436
    12  H    0.023727
    13  H    0.062144
    14  H    0.038335
 Sum of Mulliken charges =   0.00000

 Dipole moment (field-independent basis, Debye):
    X=              0.0077    Y=             -0.0312    Z=             -0.3286  Tot=              0.3302
 Quadrupole moment (field-independent basis, Debye-Ang):
   XX=            -30.4531   YY=            -28.9731   ZZ=            -28.6708
   XY=             -0.6723   XZ=             -0.9278   YZ=              0.7658

 Normal termination of Gaussian 09 at Wed Aug 26 14:52:56 2020.
