 Gaussian 09, Revision D.01,
 Gaussian 09:  ES64L-G09RevD.01 24-Apr-2013

 --------------------
 #p B2PLYPD3/Def2QZVP
 --------------------

 ----------
 butane_opt
 ----------
 Symbolic Z-matrix:
 Charge =  0 Multiplicity = 1

                         Standard orientation:
 ---------------------------------------------------------------------
 Center     Atomic      Atomic             Coordinates (Angstroms)
 Number     Number       Type             X           Y           Z
 ---------------------------------------------------------------------
      1          6           0        1.927063   -0.171942   -0.052937
      2          6           0        0.528951    0.575369    0.056192
      3          1           0        2.791372    0.658868   -0.212076
      4          1           0        2.077352   -0.955280   -0.935476
      5          1           0        2.199640   -0.750634    0.779654
      6          6           0       -0.596590   -0.484723    0.136161
      7          1           0        0.334998    1.207129   -0.825847
      8          1           0        0.462852    1.353841    0.986894
      9          6           0       -1.892462    0.077522   -0.140207
     10          1           0       -0.710728   -1.239968    1.217608
     11          1           0       -0.254081   -0.967944   -0.599089
     12          1           0       -2.220072    0.933558    0.889827
     13          1           0       -2.684728   -0.708319   -0.367725
     14          1           0       -1.798383    0.491392   -0.929023
 ---------------------------------------------------------------------

 SCF Done:  E(RB2PLYPD3) =  -157.976435953     A.U. after   11 cycles
 E2(B2PLYPD3) =    -0.2498776626D+00 E(B2PLYPD3) =    -0.15822631361584D+03

 The electronic state is 1-A.
 Alpha  occ. eigenvalues --  -10.63270 -10.62464 -10.60702 -10.60390  -0.92963
 Alpha  occ. eigenvalues --   -0.83080  -0.72722  -0.66536  -0.54932  -0.49746
 Alpha  occ. eigenvalues --   -0.48884  -0.45056  -0.43214  -0.40000  -0.38852
 Alpha  occ. eigenvalues --   -0.37515  -0.35677
 Alpha virt. eigenvalues --    0.05028   0.06279   0.07463   0.08330   0.10802
 Alpha virt. eigenvalues --    0.10980   0.12650   0.12801   0.14212   0.14756
 Alpha virt. eigenvalues --    0.15943   0.16249   0.19171   0.19984   0.20848

 Mulliken charges:
               1
     1  C   -0.149741
     2  C   -0.033693
     3  H    0.033925
     4  H    0.022683
     5  H    0.068676
     6  C   -0.080089
     7  H    0.043775
     8  H    0.019449
     9  C   -0.195634
    10  H    0.008789
    11  H    0.095026
    12  H    0.020487
    13  H    0.043778
    14  H    0.102569
 Sum of Mulliken charges =   0.00000

 Dipole moment (field-independent basis, Debye):
    X=              0.1410    Y=             -0.1400    Z=             -0.5610  Tot=              0.5951
 Quadrupole moment (field-independent basis, Debye-Ang):
   XX=            -30.7207   YY=            -29.3414   ZZ=            -28.5799
   XY=              0.1975   XZ=              0.6325   YZ=              0.1390

 Normal termination of Gaussian 09 at Wed Aug 26 20:10:48 2020.
