 Gaussian 09, Revision D.01,
 Gaussian 09:  ES64L-G09RevD.01 24-Apr-2013

 --------------------
 #p B2PLYPD3/Def2QZVP
 --------------------

 ----------
 butane_opt
 ----------
 Symbolic Z-matrix:
 Charge =  0 Multiplicity = 1

                         Standard orientation:
 ---------------------------------------------------------------------
 Center     Atomic      Atomic             Coordinates (Angstroms)
 Number     Number       Type             X           Y           Z
 ---------------------------------------------------------------------
      1          6           0        1.892566    0.090577   -0.072343
      2          6           0        0.524222   -0.521429    0.117574
      3          1           0        2.630576   -0.671383   -0.474967
      4          1           0        2.431531    1.137512    0.956419
      5          1           0        1.813838    0.593015   -0.944610
      6          6           0       -0.581024    0.499156   -0.023025
      7          1           0        0.405425   -1.227584    1.211571
      8          1           0        0.229697   -1.106643   -0.631809
      9          6           0       -1.867227   -0.092824   -0.024983
     10          1           0       -0.406452    0.937739   -0.835546
     11          1           0       -0.646868    1.371143    0.921491
     12          1           0       -2.004599   -0.791498   -0.936499
     13          1           0       -2.483696    0.710964   -0.140034
     14          1           0       -1.780674   -0.806138    0.890646
 ---------------------------------------------------------------------

 SCF Done:  E(RB2PLYPD3) =  -157.948023672     A.U. after   11 cycles
 E2(B2PLYPD3) =    -0.2514389143D+00 E(B2PLYPD3) =    -0.15819946258583D+03

 The electronic state is 1-A.
 Alpha  occ. eigenvalues --  -10.63751 -10.62114 -10.59843 -10.59769  -0.94517
 Alpha  occ. eigenvalues --   -0.84843  -0.72371  -0.66696  -0.54994  -0.52746
 Alpha  occ. eigenvalues --   -0.49293  -0.46109  -0.41624  -0.39996  -0.37847
 Alpha  occ. eigenvalues --   -0.36917  -0.35785
 Alpha virt. eigenvalues --    0.03721   0.05977   0.07483   0.07751   0.09491
 Alpha virt. eigenvalues --    0.11082   0.12536   0.12764   0.13597   0.15327
 Alpha virt. eigenvalues --    0.15657   0.16476   0.19117   0.20045   0.20687

 Mulliken charges:
               1
     1  C   -0.172698
     2  C   -0.064661
     3  H    0.047497
     4  H    0.024361
     5  H    0.064029
     6  C   -0.039947
     7  H    0.001805
     8  H    0.090412
     9  C   -0.151922
    10  H    0.072080
    11  H   -0.006265
    12  H    0.009708
    13  H    0.064690
    14  H    0.060912
 Sum of Mulliken charges =   0.00000

 Dipole moment (field-independent basis, Debye):
    X=             -0.1893    Y=             -0.0322    Z=             -0.9757  Tot=              0.9944
 Quadrupole moment (field-independent basis, Debye-Ang):
   XX=            -31.5690   YY=            -29.4631   ZZ=            -28.5573
   XY=             -0.8596   XZ=             -0.6252   YZ=              0.1404

 Normal termination of Gaussian 09 at Wed Aug 26 18:39:44 2020.
