 Gaussian 09, Revision D.01,
 Gaussian 09:  ES64L-G09RevD.01 24-Apr-2013

 --------------------
 #p B2PLYPD3/Def2QZVP
 --------------------

 ----------
 butane_opt
 ----------
 Symbolic Z-matrix:
 Charge =  0 Multiplicity = 1

                         Standard orientation:
 ---------------------------------------------------------------------
 Center     Atomic      Atomic             Coordinates (Angstroms)
 Number     Number       Type             X           Y           Z
 ---------------------------------------------------------------------
      1          6           0        2.092886    0.146240    0.021460
      2          6           0        0.531721   -0.568397    0.017246
      3          1           0        2.775157   -0.549669   -0.574752
      4          1           0        2.442308    1.409259    1.174843
      5          1           0        2.005950    0.295446   -0.489619
      6          6           0       -0.580570    0.424437   -0.122389
      7          1           0        0.098850   -1.374041    1.033124
      8          1           0        0.505145   -1.179655   -0.687969
      9          6           0       -1.948267   -0.028646    0.051437
     10          1           0       -0.753424    1.247856   -1.121947
     11          1           0       -0.583722    0.945084    0.656879
     12          1           0       -2.030468   -0.792867   -0.923794
     13          1           0       -2.769855    0.830689   -0.034801
     14          1           0       -2.264561   -0.673904    1.161510
 ---------------------------------------------------------------------

 SCF Done:  E(RB2PLYPD3) =  -157.097588896     A.U. after   12 cycles
 E2(B2PLYPD3) =    -0.2584832313D+00 E(B2PLYPD3) =    -0.15735607212715D+03

 The electronic state is 1-A.
 Alpha  occ. eigenvalues --  -10.65385 -10.64651 -10.64072 -10.60859  -0.95065
 Alpha  occ. eigenvalues --   -0.90143  -0.76493  -0.66236  -0.52788  -0.49999
 Alpha  occ. eigenvalues --   -0.48134  -0.45778  -0.40868  -0.39032  -0.37547
 Alpha  occ. eigenvalues --   -0.35971  -0.35519
 Alpha virt. eigenvalues --   -0.00293   0.05138   0.05935   0.06664   0.09637
 Alpha virt. eigenvalues --    0.10319   0.11214   0.12168   0.13373   0.14446
 Alpha virt. eigenvalues --    0.15610   0.16722   0.16881   0.18818   0.20189

 Mulliken charges:
               1
     1  C   -0.958157
     2  C   -0.071900
     3  H    0.068489
     4  H    0.058103
     5  H    0.805877
     6  C   -0.067131
     7  H    0.014273
     8  H    0.098391
     9  C   -0.173579
    10  H    0.007408
    11  H    0.109747
    12  H    0.025380
    13  H    0.058783
    14  H    0.024316
 Sum of Mulliken charges =   0.00000

 Dipole moment (field-independent basis, Debye):
    X=             -0.0913    Y=              0.3911    Z=             -0.6307  Tot=              0.7477
 Quadrupole moment (field-independent basis, Debye-Ang):
   XX=            -31.3504   YY=            -29.3310   ZZ=            -28.4623
   XY=             -0.7340   XZ=             -2.0430   YZ=              1.3497

 Normal termination of Gaussian 09 at Wed Aug 26 11:54:27 2020.
