 Gaussian 09, Revision D.01,
 Gaussian 09:  ES64L-G09RevD.01 24-Apr-2013

 --------------------
 #p B2PLYPD3/Def2QZVP
 --------------------

 ----------
 butane_opt
 ----------
 Symbolic Z-matrix:
 Charge =  0 Multiplicity = 1

                         Standard orientation:
 ---------------------------------------------------------------------
 Center     Atomic      Atomic             Coordinates (Angstroms)
 Number     Number       Type             X           Y           Z
 ---------------------------------------------------------------------
      1          6           0        1.981325   -0.196644    0.099993
      2          6           0        0.570536    0.663565   -0.099040
      3          1           0        2.677138    0.507387    0.285346
      4          1           0        2.491834   -0.654091   -0.739875
      5          1           0        2.206828   -1.147824    0.979377
      6          6           0       -0.640168   -0.498123   -0.263689
      7          1           0        0.662022    1.250604   -0.781443
      8          1           0        0.299198    1.344037    0.885970
      9          6           0       -1.989809    0.051267    0.148980
     10          1           0       -0.392908   -1.006232    0.486034
     11          1           0       -0.583907   -0.951145   -1.042841
     12          1           0       -1.994469    0.384500    1.088437
     13          1           0       -2.756536   -0.782076    0.299402
     14          1           0       -2.140506    0.934458   -0.777864
 ---------------------------------------------------------------------

 SCF Done:  E(RB2PLYPD3) =  -157.937388284     A.U. after   11 cycles
 E2(B2PLYPD3) =    -0.2486463569D+00 E(B2PLYPD3) =    -0.15818603464124D+03

 The electronic state is 1-A.
 Alpha  occ. eigenvalues --  -10.62293 -10.61661 -10.61072 -10.57250  -0.90344
 Alpha  occ. eigenvalues --   -0.82636  -0.73477  -0.70399  -0.56045  -0.49265
 Alpha  occ. eigenvalues --   -0.47035  -0.46421  -0.43780  -0.41749  -0.38989
 Alpha  occ. eigenvalues --   -0.36669  -0.34840
 Alpha virt. eigenvalues --    0.05370   0.06084   0.08439   0.09113   0.10902
 Alpha virt. eigenvalues --    0.11498   0.12274   0.13536   0.13973   0.14715
 Alpha virt. eigenvalues --    0.16098   0.16559   0.18726   0.20025   0.21223

 Mulliken charges:
               1
     1  C   -0.155184
     2  C   -0.084428
     3  H    0.054267
     4  H    0.034060
     5  H    0.017695
     6  C   -0.122711
     7  H    0.096514
     8  H    0.017587
     9  C   -0.147309
    10  H    0.089665
    11  H    0.076862
    12  H    0.061856
    13  H    0.031024
    14  H    0.030102
 Sum of Mulliken charges =   0.00000

 Dipole moment (field-independent basis, Debye):
    X=              0.3016    Y=             -0.0468    Z=             -0.0830  Tot=              0.3163
 Quadrupole moment (field-independent basis, Debye-Ang):
   XX=            -30.1209   YY=            -28.4935   ZZ=            -28.0506
   XY=              0.8718   XZ=             -1.4312   YZ=             -0.4041

 Normal termination of Gaussian 09 at Wed Aug 26 11:57:55 2020.
