 Gaussian 09, Revision D.01,
 Gaussian 09:  ES64L-G09RevD.01 24-Apr-2013

 --------------------
 #p B2PLYPD3/Def2QZVP
 --------------------

 ----------
 butane_opt
 ----------
 Symbolic Z-matrix:
 Charge =  0 Multiplicity = 1

                         Standard orientation:
 ---------------------------------------------------------------------
 Center     Atomic      Atomic             Coordinates (Angstroms)
 Number     Number       Type             X           Y           Z
 ---------------------------------------------------------------------
      1          6           0        2.043012   -0.143384    0.093311
      2          6           0        0.496551    0.592066   -0.096400
      3          1           0        2.660911    0.284275    0.244676
      4          1           0        2.047887   -0.677384   -0.812594
      5          1           0        2.207847   -0.788484    0.898756
      6          6           0       -0.645485   -0.456709   -0.303099
      7          1           0        0.684635    1.226572   -0.768969
      8          1           0        0.275958    1.167730    1.038483
      9          6           0       -1.881678    0.069856    0.164164
     10          1           0       -0.608414   -1.199146    0.417113
     11          1           0       -0.708249   -0.948557   -1.095990
     12          1           0       -1.501421    0.254762    0.897253
     13          1           0       -2.565618   -0.666651    0.887692
     14          1           0       -2.567935    0.975907   -0.854275
 ---------------------------------------------------------------------

 SCF Done:  E(RB2PLYPD3) =  -157.712973230     A.U. after   11 cycles
 E2(B2PLYPD3) =    -0.2509296694D+00 E(B2PLYPD3) =    -0.15796390289895D+03

 The electronic state is 1-A.
 Alpha  occ. eigenvalues --  -10.62982 -10.61351 -10.58758 -10.56406  -0.95349
 Alpha  occ. eigenvalues --   -0.86578  -0.76545  -0.70557  -0.55310  -0.53103
 Alpha  occ. eigenvalues --   -0.50312  -0.46256  -0.43970  -0.42377  -0.39053
 Alpha  occ. eigenvalues --   -0.35363  -0.33914
 Alpha virt. eigenvalues --    0.04270   0.06172   0.07408   0.08175   0.09978
 Alpha virt. eigenvalues --    0.10780   0.12230   0.13976   0.14369   0.15405
 Alpha virt. eigenvalues --    0.16553   0.18050   0.18442   0.19334   0.21430

 Mulliken charges:
               1
     1  C   -0.361885
     2  C   -0.069828
     3  H    0.245254
     4  H    0.061258
     5  H    0.025903
     6  C   -0.051251
     7  H    0.084495
     8  H   -0.000032
     9  C   -0.311773
    10  H    0.060197
    11  H    0.049161
    12  H    0.221719
    13  H    0.023736
    14  H    0.023046
 Sum of Mulliken charges =   0.00000

 Dipole moment (field-independent basis, Debye):
    X=              0.7280    Y=             -0.3415    Z=              0.1324  Tot=              0.8149
 Quadrupole moment (field-independent basis, Debye-Ang):
   XX=            -30.9164   YY=            -29.4048   ZZ=            -27.0310
   XY=              1.0805   XZ=             -0.0905   YZ=             -0.7877

 Normal termination of Gaussian 09 at Wed Aug 26 19:41:45 2020.
