 Gaussian 09, Revision D.01,
 Gaussian 09:  ES64L-G09RevD.01 24-Apr-2013

 --------------------
 #p B2PLYPD3/Def2QZVP
 --------------------

 ----------
 butane_opt
 ----------
 Symbolic Z-matrix:
 Charge =  0 Multiplicity = 1

                         Standard orientation:
 ---------------------------------------------------------------------
 Center     Atomic      Atomic             Coordinates (Angstroms)
 Number     Number       Type             X           Y           Z
 ---------------------------------------------------------------------
      1          6           0       -2.003658   -0.185973    0.073531
      2          6           0       -0.515117    0.520240   -0.258330
      3          1           0       -2.792352    0.487924    0.811192
      4          1           0       -1.536507   -0.805791    1.016526
      5          1           0       -2.300991   -0.754089   -0.791214
      6          6           0        0.608078   -0.396351   -0.143779
      7          1           0       -0.553098    1.184548    0.689452
      8          1           0       -0.486238    1.217999   -1.058985
      9          6           0        1.886310    0.075549    0.126119
     10          1           0        0.741402   -1.231659   -1.030214
     11          1           0        0.408354   -0.990783    0.639818
     12          1           0        2.304146    0.800120   -0.736059
     13          1           0        2.687697   -0.931535    0.445465
     14          1           0        1.673908    0.942473    1.228771
 ---------------------------------------------------------------------

 SCF Done:  E(RB2PLYPD3) =  -157.960939159     A.U. after   11 cycles
 E2(B2PLYPD3) =    -0.2545574554D+00 E(B2PLYPD3) =    -0.15821549661400D+03

 The electronic state is 1-A.
 Alpha  occ. eigenvalues --  -10.65855 -10.64406 -10.61967 -10.60256  -0.93529
 Alpha  occ. eigenvalues --   -0.81894  -0.70811  -0.65253  -0.54565  -0.49952
 Alpha  occ. eigenvalues --   -0.48418  -0.47749  -0.41048  -0.39140  -0.38135
 Alpha  occ. eigenvalues --   -0.35738  -0.34212
 Alpha virt. eigenvalues --    0.04482   0.05552   0.06663   0.08199   0.10055
 Alpha virt. eigenvalues --    0.10601   0.11460   0.12211   0.13525   0.14217
 Alpha virt. eigenvalues --    0.15590   0.16868   0.18090   0.18850   0.20959

 Mulliken charges:
               1
     1  C   -0.194097
     2  C   -0.061100
     3  H    0.055937
     4  H    0.035634
     5  H    0.082098
     6  C    0.008725
     7  H    0.029126
     8  H    0.050170
     9  C   -0.184119
    10  H   -0.000169
    11  H    0.070074
    12  H    0.052256
    13  H    0.056088
    14  H   -0.000624
 Sum of Mulliken charges =   0.00000

 Dipole moment (field-independent basis, Debye):
    X=             -0.2128    Y=             -0.2284    Z=             -0.1388  Tot=              0.3416
 Quadrupole moment (field-independent basis, Debye-Ang):
   XX=            -31.6769   YY=            -29.9201   ZZ=            -28.9852
   XY=             -1.2887   XZ=             -1.0042   YZ=             -0.1974

 Normal termination of Gaussian 09 at Wed Aug 26 11:40:36 2020.
