 Gaussian 09, Revision D.01,
 Gaussian 09:  ES64L-G09RevD.01 24-Apr-2013

 --------------------
 #p B2PLYPD3/Def2QZVP
 --------------------

 ----------
 butane_opt
 ----------
 Symbolic Z-matrix:
 Charge =  0 Multiplicity = 1

                         Standard orientation:
 ---------------------------------------------------------------------
 Center     Atomic      Atomic             Coordinates (Angstroms)
 Number     Number       Type             X           Y           Z
 ---------------------------------------------------------------------
      1          6           0        1.956431   -0.163087   -0.160179
      2          6           0        0.494400    0.600618    0.207252
      3          1           0        2.540210    0.235028   -0.843558
      4          1           0        1.781187   -0.879168   -0.903834
      5          1           0        2.851116   -0.749969    0.985157
      6          6           0       -0.563653   -0.373275    0.310352
      7          1           0        0.363301    1.128987   -0.771468
      8          1           0        0.381249    1.614986    0.990828
      9          6           0       -1.887630    0.049510   -0.235063
     10          1           0       -0.850902   -0.923441    1.262007
     11          1           0       -0.250925   -1.248284   -0.633691
     12          1           0       -2.148249    0.563107    0.287280
     13          1           0       -2.815461   -0.868485    0.015733
     14          1           0       -1.848810    0.444646   -1.122622
 ---------------------------------------------------------------------

 SCF Done:  E(RB2PLYPD3) =  -157.793407278     A.U. after   11 cycles
 E2(B2PLYPD3) =    -0.2536963458D+00 E(B2PLYPD3) =    -0.15804710362348D+03

 The electronic state is 1-A.
 Alpha  occ. eigenvalues --  -10.65319 -10.63717 -10.62901 -10.57290  -0.93315
 Alpha  occ. eigenvalues --   -0.84564  -0.76423  -0.65887  -0.56341  -0.49943
 Alpha  occ. eigenvalues --   -0.48265  -0.47114  -0.41369  -0.40576  -0.39258
 Alpha  occ. eigenvalues --   -0.34895  -0.34326
 Alpha virt. eigenvalues --    0.04238   0.04823   0.06620   0.07499   0.09923
 Alpha virt. eigenvalues --    0.10319   0.12039   0.12698   0.14857   0.15440
 Alpha virt. eigenvalues --    0.16166   0.16369   0.17990   0.18612   0.20089

 Mulliken charges:
               1
     1  C   -0.155073
     2  C   -0.067273
     3  H    0.066345
     4  H    0.069951
     5  H    0.010875
     6  C   -0.011751
     7  H    0.037974
     8  H    0.028972
     9  C   -0.369695
    10  H    0.053556
    11  H   -0.002214
    12  H    0.264853
    13  H    0.020308
    14  H    0.053172
 Sum of Mulliken charges =   0.00000

 Dipole moment (field-independent basis, Debye):
    X=             -0.4446    Y=              0.6688    Z=             -0.5589  Tot=              0.9784
 Quadrupole moment (field-independent basis, Debye-Ang):
   XX=            -31.2041   YY=            -30.1309   ZZ=            -27.9057
   XY=             -0.5458   XZ=             -2.4704   YZ=             -0.2251

 Normal termination of Gaussian 09 at Wed Aug 26 23:08:12 2020.
