 Gaussian 09, Revision D.01,
 Gaussian 09:  ES64L-G09RevD.01 24-Apr-2013

 --------------------
 #p B2PLYPD3/Def2QZVP
 --------------------

 ----------
 butane_opt
 ----------
 Symbolic Z-matrix:
 Charge =  0 Multiplicity = 1

                         Standard orientation:
 ---------------------------------------------------------------------
 Center     Atomic      Atomic             Coordinates (Angstroms)
 Number     Number       Type             X           Y           Z
 ---------------------------------------------------------------------
      1          6           0        2.022498    0.088722   -0.218364
      2          6           0        0.599925   -0.422032    0.281046
      3          1           0        2.790297   -0.720962   -0.689214
      4          1           0        2.414124    0.837792    0.635157
      5          1           0        1.365728    0.526296   -0.979453
      6          6           0       -0.530053    0.512481    0.095642
      7          1           0        0.532424   -1.323958    1.594486
      8          1           0        0.443533   -0.874453   -0.317113
      9          6           0       -1.993042   -0.155925   -0.217721
     10          1           0       -0.521775    0.895692   -0.680916
     11          1           0       -0.584683    1.554846    1.233439
     12          1           0       -2.029195   -0.936193   -1.065799
     13          1           0       -2.645805    0.648559   -0.134611
     14          1           0       -2.360618   -0.747088    0.760404
 ---------------------------------------------------------------------

 SCF Done:  E(RB2PLYPD3) =  -157.724690527     A.U. after   11 cycles
 E2(B2PLYPD3) =    -0.2553994111D+00 E(B2PLYPD3) =    -0.15798008993796D+03

 The electronic state is 1-A.
 Alpha  occ. eigenvalues --  -10.64053 -10.63752 -10.62901 -10.62223  -0.95754
 Alpha  occ. eigenvalues --   -0.83862  -0.73624  -0.69340  -0.54792  -0.50413
 Alpha  occ. eigenvalues --   -0.49885  -0.46419  -0.42023  -0.40424  -0.38980
 Alpha  occ. eigenvalues --   -0.35235  -0.33184
 Alpha virt. eigenvalues --    0.03217   0.06159   0.06267   0.06692   0.10415
 Alpha virt. eigenvalues --    0.11201   0.11335   0.12538   0.13658   0.14092
 Alpha virt. eigenvalues --    0.15684   0.16067   0.17212   0.19218   0.20013

 Mulliken charges:
               1
     1  C   -0.159481
     2  C   -0.424114
     3  H    0.062505
     4  H    0.065517
     5  H    0.060945
     6  C   -0.194285
     7  H   -0.029943
     8  H    0.420796
     9  C   -0.155619
    10  H    0.206971
    11  H   -0.019494
    12  H    0.055158
    13  H    0.078938
    14  H    0.032105
 Sum of Mulliken charges =   0.00000

 Dipole moment (field-independent basis, Debye):
    X=             -0.1958    Y=             -0.0860    Z=             -1.2261  Tot=              1.2447
 Quadrupole moment (field-independent basis, Debye-Ang):
   XX=            -29.3239   YY=            -30.6780   ZZ=            -29.6659
   XY=             -0.6409   XZ=              0.1414   YZ=              1.4008

 Normal termination of Gaussian 09 at Wed Aug 26 13:33:01 2020.
