 Gaussian 09, Revision D.01,
 Gaussian 09:  ES64L-G09RevD.01 24-Apr-2013

 --------------------
 #p B2PLYPD3/Def2QZVP
 --------------------

 ----------
 butane_opt
 ----------
 Symbolic Z-matrix:
 Charge =  0 Multiplicity = 1

                         Standard orientation:
 ---------------------------------------------------------------------
 Center     Atomic      Atomic             Coordinates (Angstroms)
 Number     Number       Type             X           Y           Z
 ---------------------------------------------------------------------
      1          6           0       -1.989437   -0.085701    0.164636
      2          6           0       -0.562379    0.404619   -0.393181
      3          1           0       -2.937665    0.976019    0.671038
      4          1           0       -1.793817   -0.408261    1.024569
      5          1           0       -2.581968   -0.848684   -0.547798
      6          6           0        0.574305   -0.577819   -0.053137
      7          1           0       -0.337778    1.126806    0.329989
      8          1           0       -0.650945    1.047371   -1.419242
      9          6           0        2.022519    0.163109    0.144929
     10          1           0        0.703268   -1.376239   -0.755163
     11          1           0        0.075291   -1.150018    1.063192
     12          1           0        2.209980    0.468850   -0.773067
     13          1           0        2.761810   -0.640956    0.010401
     14          1           0        2.281781    1.379854    1.216601
 ---------------------------------------------------------------------

 SCF Done:  E(RB2PLYPD3) =  -157.869373296     A.U. after   11 cycles
 E2(B2PLYPD3) =    -0.2562204553D+00 E(B2PLYPD3) =    -0.15812559375177D+03

 The electronic state is 1-A.
 Alpha  occ. eigenvalues --  -10.65613 -10.64893 -10.63820 -10.62677  -0.90275
 Alpha  occ. eigenvalues --   -0.82513  -0.73202  -0.66169  -0.53354  -0.47462
 Alpha  occ. eigenvalues --   -0.46856  -0.45839  -0.40956  -0.39626  -0.37373
 Alpha  occ. eigenvalues --   -0.36809  -0.35195
 Alpha virt. eigenvalues --    0.01935   0.04302   0.06822   0.07240   0.09286
 Alpha virt. eigenvalues --    0.10223   0.11308   0.13022   0.13293   0.14671
 Alpha virt. eigenvalues --    0.15497   0.15827   0.17966   0.19063   0.19320

 Mulliken charges:
               1
     1  C   -0.197238
     2  C   -0.069895
     3  H   -0.010011
     4  H    0.110529
     5  H    0.055956
     6  C   -0.047943
     7  H    0.075631
     8  H    0.033866
     9  C   -0.193941
    10  H    0.055290
    11  H    0.005081
    12  H    0.093568
    13  H    0.048763
    14  H    0.040342
 Sum of Mulliken charges =   0.00000

 Dipole moment (field-independent basis, Debye):
    X=              0.6568    Y=             -0.4382    Z=             -0.5156  Tot=              0.9430
 Quadrupole moment (field-independent basis, Debye-Ang):
   XX=            -31.9071   YY=            -29.7154   ZZ=            -29.1766
   XY=              0.5250   XZ=             -1.4358   YZ=              1.0260

 Normal termination of Gaussian 09 at Wed Aug 26 11:27:40 2020.
