 Gaussian 09, Revision D.01,
 Gaussian 09:  ES64L-G09RevD.01 24-Apr-2013

 --------------------
 #p B2PLYPD3/Def2QZVP
 --------------------

 ----------
 butane_opt
 ----------
 Symbolic Z-matrix:
 Charge =  0 Multiplicity = 1

                         Standard orientation:
 ---------------------------------------------------------------------
 Center     Atomic      Atomic             Coordinates (Angstroms)
 Number     Number       Type             X           Y           Z
 ---------------------------------------------------------------------
      1          6           0       -1.907021   -0.095626    0.010081
      2          6           0       -0.620796    0.391272   -0.018815
      3          1           0       -2.880769    0.916187   -0.055983
      4          1           0       -1.877353   -0.583049    0.839317
      5          1           0       -1.990803   -0.488042   -0.644710
      6          6           0        0.502026   -0.569814    0.086889
      7          1           0       -0.411010    0.911595    0.578736
      8          1           0       -0.176817    1.352721   -1.274107
      9          6           0        1.974004    0.165214   -0.019644
     10          1           0        0.290372   -1.244220   -0.818334
     11          1           0        0.395401   -1.213299    1.106302
     12          1           0        1.847720    0.325697   -0.499816
     13          1           0        2.645082   -0.682635   -0.836674
     14          1           0        2.468900    1.358766    1.254202
 ---------------------------------------------------------------------

 SCF Done:  E(RB2PLYPD3) =  -156.777615791     A.U. after   13 cycles
 E2(B2PLYPD3) =    -0.2596910871D+00 E(B2PLYPD3) =    -0.15703730687853D+03

 The electronic state is 1-A.
 Alpha  occ. eigenvalues --  -10.67650 -10.64793 -10.61331 -10.58557  -0.97918
 Alpha  occ. eigenvalues --   -0.91863  -0.80009  -0.69817  -0.58538  -0.52988
 Alpha  occ. eigenvalues --   -0.49243  -0.46059  -0.42721  -0.41296  -0.37461
 Alpha  occ. eigenvalues --   -0.35792  -0.32459
 Alpha virt. eigenvalues --   -0.02509   0.03428   0.05418   0.05778   0.09190
 Alpha virt. eigenvalues --    0.09982   0.11502   0.11926   0.13630   0.15181
 Alpha virt. eigenvalues --    0.15625   0.16129   0.17306   0.18746   0.19607

 Mulliken charges:
               1
     1  C   -0.358365
     2  C   -0.181462
     3  H    0.028090
     4  H    0.090720
     5  H    0.276666
     6  C    0.013915
     7  H    0.221547
     8  H   -0.091433
     9  C   -1.056339
    10  H    0.031886
    11  H    0.020680
    12  H    0.889822
    13  H    0.052230
    14  H    0.062043
 Sum of Mulliken charges =   0.00000

 Dipole moment (field-independent basis, Debye):
    X=             -0.5431    Y=             -0.5331    Z=              0.4982  Tot=              0.9096
 Quadrupole moment (field-independent basis, Debye-Ang):
   XX=            -31.7431   YY=            -30.0122   ZZ=            -28.1767
   XY=              1.4365   XZ=             -0.6363   YZ=              2.1672

 Normal termination of Gaussian 09 at Wed Aug 26 20:34:34 2020.
