 Gaussian 09, Revision D.01,
 Gaussian 09:  ES64L-G09RevD.01 24-Apr-2013

 --------------------
 #p B2PLYPD3/Def2QZVP
 --------------------

 ----------
 butane_opt
 ----------
 Symbolic Z-matrix:
 Charge =  0 Multiplicity = 1

                         Standard orientation:
 ---------------------------------------------------------------------
 Center     Atomic      Atomic             Coordinates (Angstroms)
 Number     Number       Type             X           Y           Z
 ---------------------------------------------------------------------
      1          6           0        1.863719    0.070552    0.112873
      2          6           0        0.569323   -0.450123   -0.075854
      3          1           0        2.741068   -0.741094   -0.087776
      4          1           0        2.130459    0.877569    1.153241
      5          1           0        2.052706    0.395477   -0.620447
      6          6           0       -0.504224    0.564710   -0.208252
      7          1           0        0.135450   -1.105398    0.842900
      8          1           0        0.423959   -1.031018   -0.909545
      9          6           0       -1.876482   -0.120373    0.075932
     10          1           0       -0.333855    1.144383   -1.180003
     11          1           0       -0.502729    1.052318    0.423095
     12          1           0       -2.609671   -0.857125   -0.897295
     13          1           0       -2.583221    0.620617    0.865499
     14          1           0       -1.768185   -0.744321    0.982138
 ---------------------------------------------------------------------

 SCF Done:  E(RB2PLYPD3) =  -157.795113316     A.U. after   11 cycles
 E2(B2PLYPD3) =    -0.2520393789D+00 E(B2PLYPD3) =    -0.15804715269440D+03

 The electronic state is 1-A.
 Alpha  occ. eigenvalues --  -10.65295 -10.60073 -10.59910 -10.58457  -0.95381
 Alpha  occ. eigenvalues --   -0.86105  -0.72471  -0.69207  -0.56880  -0.49830
 Alpha  occ. eigenvalues --   -0.48542  -0.47809  -0.42235  -0.39811  -0.38810
 Alpha  occ. eigenvalues --   -0.36216  -0.35138
 Alpha virt. eigenvalues --    0.04559   0.05467   0.07641   0.08360   0.09665
 Alpha virt. eigenvalues --    0.10690   0.12131   0.13126   0.14597   0.14934
 Alpha virt. eigenvalues --    0.15822   0.16306   0.18711   0.19506   0.20988

 Mulliken charges:
               1
     1  C   -0.313863
     2  C    0.013397
     3  H    0.029319
     4  H    0.040565
     5  H    0.197574
     6  C   -0.269571
     7  H    0.002402
     8  H    0.062384
     9  C   -0.183936
    10  H    0.032175
    11  H    0.266998
    12  H    0.042981
    13  H    0.016709
    14  H    0.062866
 Sum of Mulliken charges =   0.00000

 Dipole moment (field-independent basis, Debye):
    X=              0.4285    Y=              0.1734    Z=             -0.1312  Tot=              0.4805
 Quadrupole moment (field-independent basis, Debye-Ang):
   XX=            -31.4455   YY=            -29.9184   ZZ=            -27.5808
   XY=              0.9467   XZ=             -1.7702   YZ=              0.9885

 Normal termination of Gaussian 09 at Wed Aug 26 11:40:16 2020.
