 Gaussian 09, Revision D.01,
 Gaussian 09:  ES64L-G09RevD.01 24-Apr-2013

 --------------------
 #p B2PLYPD3/Def2QZVP
 --------------------

 ----------
 butane_opt
 ----------
 Symbolic Z-matrix:
 Charge =  0 Multiplicity = 1

                         Standard orientation:
 ---------------------------------------------------------------------
 Center     Atomic      Atomic             Coordinates (Angstroms)
 Number     Number       Type             X           Y           Z
 ---------------------------------------------------------------------
      1          6           0       -1.983426    0.085902    0.093737
      2          6           0       -0.565827   -0.617313   -0.007427
      3          1           0       -2.581087   -0.375825   -0.922013
      4          1           0       -1.904222    0.169960   -0.482550
      5          1           0       -2.510699    1.553651    1.452154
      6          6           0        0.613271    0.531791   -0.209930
      7          1           0       -0.403892   -1.279183   -0.863756
      8          1           0       -0.569158   -1.222435    0.694330
      9          6           0        1.956911   -0.130353    0.106099
     10          1           0        0.457298    1.324449    0.704582
     11          1           0        0.520785    1.285166   -1.215780
     12          1           0        1.997792   -1.082656    1.433683
     13          1           0        2.818620    0.775479   -0.152747
     14          1           0        2.048991   -0.368768   -0.542772
 ---------------------------------------------------------------------

 SCF Done:  E(RB2PLYPD3) =  -156.874679207     A.U. after   15 cycles
 E2(B2PLYPD3) =    -0.2683993468D+00 E(B2PLYPD3) =    -0.15714307855407D+03

 The electronic state is 1-A.
 Alpha  occ. eigenvalues --  -10.65425 -10.63993 -10.62844 -10.62022  -0.97669
 Alpha  occ. eigenvalues --   -0.91076  -0.79023  -0.68645  -0.52921  -0.49342
 Alpha  occ. eigenvalues --   -0.47039  -0.44642  -0.39219  -0.37769  -0.36569
 Alpha  occ. eigenvalues --   -0.35372  -0.31158
 Alpha virt. eigenvalues --   -0.06324   0.01525   0.03928   0.05802   0.08495
 Alpha virt. eigenvalues --    0.09892   0.11169   0.11832   0.13467   0.15100
 Alpha virt. eigenvalues --    0.15652   0.16547   0.17562   0.18753   0.19385

 Mulliken charges:
               1
     1  C   -0.988701
     2  C   -0.046552
     3  H    0.041447
     4  H    0.844593
     5  H    0.049497
     6  C   -0.044828
     7  H    0.020566
     8  H    0.088672
     9  C   -0.648828
    10  H    0.031569
    11  H    0.038969
    12  H    0.062080
    13  H    0.043558
    14  H    0.507958
 Sum of Mulliken charges =   0.00000

 Dipole moment (field-independent basis, Debye):
    X=              0.6968    Y=              0.1171    Z=             -1.2207  Tot=              1.4104
 Quadrupole moment (field-independent basis, Debye-Ang):
   XX=            -34.7405   YY=            -29.1169   ZZ=            -27.0697
   XY=             -1.4900   XZ=              0.8124   YZ=              0.1272

 Normal termination of Gaussian 09 at Wed Aug 26 19:56:33 2020.
