 Gaussian 09, Revision D.01,
 Gaussian 09:  ES64L-G09RevD.01 24-Apr-2013

 --------------------
 #p B2PLYPD3/Def2QZVP
 --------------------

 ----------
 butane_opt
 ----------
 Symbolic Z-matrix:
 Charge =  0 Multiplicity = 1

                         Standard orientation:
 ---------------------------------------------------------------------
 Center     Atomic      Atomic             Coordinates (Angstroms)
 Number     Number       Type             X           Y           Z
 ---------------------------------------------------------------------
      1          6           0       -1.992904   -0.144348    0.053023
      2          6           0       -0.562459    0.527977   -0.049019
      3          1           0       -2.742126    0.633992   -0.127514
      4          1           0       -2.162276   -0.587597    0.901592
      5          1           0       -1.992939   -0.775147   -0.806708
      6          6           0        0.611629   -0.513594    0.016655
      7          1           0       -0.419988    0.983197    0.687609
      8          1           0       -0.467126    1.233154   -0.912892
      9          6           0        1.937915    0.128932    0.020902
     10          1           0        0.373676   -1.187751   -0.889466
     11          1           0        0.491302   -1.100974    0.930504
     12          1           0        2.047946    0.540323   -0.722943
     13          1           0        2.721624   -0.655122   -0.249346
     14          1           0        2.184817    0.922121    0.939800
 ---------------------------------------------------------------------

 SCF Done:  E(RB2PLYPD3) =  -157.987672692     A.U. after   11 cycles
 E2(B2PLYPD3) =    -0.2461369394D+00 E(B2PLYPD3) =    -0.15823380963125D+03

 The electronic state is 1-A.
 Alpha  occ. eigenvalues --  -10.60757 -10.58802 -10.58360 -10.58110  -0.91821
 Alpha  occ. eigenvalues --   -0.84778  -0.74822  -0.68003  -0.55471  -0.50327
 Alpha  occ. eigenvalues --   -0.48077  -0.47767  -0.43737  -0.42726  -0.38990
 Alpha  occ. eigenvalues --   -0.38593  -0.35481
 Alpha virt. eigenvalues --    0.05749   0.06849   0.08456   0.08802   0.10951
 Alpha virt. eigenvalues --    0.12126   0.13016   0.13631   0.15119   0.15383
 Alpha virt. eigenvalues --    0.16037   0.16732   0.19244   0.19717   0.21822

 Mulliken charges:
               1
     1  C   -0.144242
     2  C   -0.147306
     3  H    0.036331
     4  H    0.061831
     5  H    0.044888
     6  C   -0.013565
     7  H    0.118578
     8  H    0.023602
     9  C   -0.231616
    10  H    0.014436
    11  H    0.038668
    12  H    0.128944
    13  H    0.032175
    14  H    0.037276
 Sum of Mulliken charges =   0.00000

 Dipole moment (field-independent basis, Debye):
    X=              0.0092    Y=              0.2192    Z=             -0.0781  Tot=              0.2328
 Quadrupole moment (field-independent basis, Debye-Ang):
   XX=            -29.7183   YY=            -28.8385   ZZ=            -27.5078
   XY=              0.1093   XZ=             -0.8814   YZ=              0.1414

 Normal termination of Gaussian 09 at Wed Aug 26 10:23:02 2020.
