 Gaussian 09, Revision D.01,
 Gaussian 09:  ES64L-G09RevD.01 24-Apr-2013

 --------------------
 #p B2PLYPD3/Def2QZVP
 --------------------

 ----------
 butane_opt
 ----------
 Symbolic Z-matrix:
 Charge =  0 Multiplicity = 1

                         Standard orientation:
 ---------------------------------------------------------------------
 Center     Atomic      Atomic             Coordinates (Angstroms)
 Number     Number       Type             X           Y           Z
 ---------------------------------------------------------------------
      1          6           0       -2.015977   -0.000331   -0.128786
      2          6           0       -0.638194   -0.384059    0.243682
      3          1           0       -2.752103   -0.767889   -0.360287
      4          1           0       -1.653540    0.599464   -1.081464
      5          1           0       -2.395880    0.761055    0.716478
      6          6           0        0.514415    0.578711   -0.031678
      7          1           0       -0.528026   -1.215036   -0.533076
      8          1           0       -0.410058   -0.965705    1.236853
      9          6           0        2.030082   -0.116237   -0.041837
     10          1           0        0.348005    1.430419    0.803417
     11          1           0        0.506767    1.133204   -0.833011
     12          1           0        2.224537   -0.635335    0.856795
     13          1           0        2.834852    0.479210   -0.001784
     14          1           0        2.483491   -1.287890   -1.052214
 ---------------------------------------------------------------------

 SCF Done:  E(RB2PLYPD3) =  -157.966911512     A.U. after   11 cycles
 E2(B2PLYPD3) =    -0.2522083900D+00 E(B2PLYPD3) =    -0.15821911990227D+03

 The electronic state is 1-A.
 Alpha  occ. eigenvalues --  -10.64107 -10.63058 -10.62531 -10.62164  -0.91211
 Alpha  occ. eigenvalues --   -0.82638  -0.73905  -0.66317  -0.53045  -0.51583
 Alpha  occ. eigenvalues --   -0.48844  -0.45003  -0.42955  -0.40338  -0.38330
 Alpha  occ. eigenvalues --   -0.36113  -0.34412
 Alpha virt. eigenvalues --    0.03227   0.05440   0.07655   0.08220   0.10025
 Alpha virt. eigenvalues --    0.10959   0.12062   0.13007   0.13816   0.14502
 Alpha virt. eigenvalues --    0.15367   0.16363   0.18862   0.19354   0.20713

 Mulliken charges:
               1
     1  C   -0.165161
     2  C   -0.007280
     3  H    0.073666
     4  H    0.050793
     5  H    0.026951
     6  C   -0.052952
     7  H    0.027656
     8  H    0.024676
     9  C   -0.150808
    10  H    0.006314
    11  H    0.061808
    12  H    0.047814
    13  H    0.067285
    14  H   -0.010760
 Sum of Mulliken charges =   0.00000

 Dipole moment (field-independent basis, Debye):
    X=             -0.1479    Y=              0.2839    Z=              0.3088  Tot=              0.4448
 Quadrupole moment (field-independent basis, Debye-Ang):
   XX=            -29.6577   YY=            -29.6664   ZZ=            -29.6079
   XY=              1.6663   XZ=              1.1022   YZ=             -0.1434

 Normal termination of Gaussian 09 at Wed Aug 26 19:12:14 2020.
