 Gaussian 09, Revision D.01,
 Gaussian 09:  ES64L-G09RevD.01 24-Apr-2013

 --------------------
 #p B2PLYPD3/Def2QZVP
 --------------------

 ----------
 butane_opt
 ----------
 Symbolic Z-matrix:
 Charge =  0 Multiplicity = 1

                         Standard orientation:
 ---------------------------------------------------------------------
 Center     Atomic      Atomic             Coordinates (Angstroms)
 Number     Number       Type             X           Y           Z
 ---------------------------------------------------------------------
      1          6           0        1.940332    0.058042   -0.176915
      2          6           0        0.494605   -0.488570    0.108534
      3          1           0        2.756178   -0.667527   -0.072660
      4          1           0        2.039164    0.489374    0.534075
      5          1           0        1.747341    0.897967   -1.031089
      6          6           0       -0.504721    0.534578    0.220027
      7          1           0        0.540878   -1.070115    1.005313
      8          1           0        0.348388   -0.909940   -0.531894
      9          6           0       -1.930546   -0.158747   -0.182466
     10          1           0       -0.347864    1.023986   -0.382032
     11          1           0       -0.412456    1.531501    1.261902
     12          1           0       -1.781106   -0.464043   -0.860898
     13          1           0       -2.668504    0.518352   -0.626746
     14          1           0       -2.220041   -1.021375    0.888953
 ---------------------------------------------------------------------

 SCF Done:  E(RB2PLYPD3) =  -157.565569721     A.U. after   11 cycles
 E2(B2PLYPD3) =    -0.2491682673D+00 E(B2PLYPD3) =    -0.15781473798828D+03

 The electronic state is 1-A.
 Alpha  occ. eigenvalues --  -10.60537 -10.60379 -10.58163 -10.56405  -0.96104
 Alpha  occ. eigenvalues --   -0.86465  -0.78503  -0.72889  -0.57281  -0.50830
 Alpha  occ. eigenvalues --   -0.49476  -0.47963  -0.43904  -0.40754  -0.39820
 Alpha  occ. eigenvalues --   -0.37171  -0.36011
 Alpha virt. eigenvalues --    0.04525   0.06395   0.07767   0.08355   0.10738
 Alpha virt. eigenvalues --    0.11312   0.12524   0.13301   0.14550   0.14975
 Alpha virt. eigenvalues --    0.16187   0.17435   0.18426   0.19575   0.20803

 Mulliken charges:
               1
     1  C   -0.296045
     2  C   -0.284211
     3  H    0.047634
     4  H    0.198145
     5  H    0.030085
     6  C   -0.268127
     7  H    0.033702
     8  H    0.290644
     9  C   -0.475567
    10  H    0.280826
    11  H   -0.004407
    12  H    0.343689
    13  H    0.051720
    14  H    0.051912
 Sum of Mulliken charges =   0.00000

 Dipole moment (field-independent basis, Debye):
    X=              0.1864    Y=             -0.1714    Z=             -0.5793  Tot=              0.6322
 Quadrupole moment (field-independent basis, Debye-Ang):
   XX=            -30.0577   YY=            -28.7883   ZZ=            -27.7833
   XY=             -0.5979   XZ=              2.3161   YZ=             -1.0064

 Normal termination of Gaussian 09 at Wed Aug 26 13:43:35 2020.
