 Gaussian 09, Revision D.01,
 Gaussian 09:  ES64L-G09RevD.01 24-Apr-2013

 --------------------
 #p B2PLYPD3/Def2QZVP
 --------------------

 ----------
 butane_opt
 ----------
 Symbolic Z-matrix:
 Charge =  0 Multiplicity = 1

                         Standard orientation:
 ---------------------------------------------------------------------
 Center     Atomic      Atomic             Coordinates (Angstroms)
 Number     Number       Type             X           Y           Z
 ---------------------------------------------------------------------
      1          6           0       -2.014070    0.177770   -0.143059
      2          6           0       -0.535980   -0.622973    0.041471
      3          1           0       -2.836223   -0.463635    0.102863
      4          1           0       -2.103787    1.130922   -1.097579
      5          1           0       -2.397530    0.585196    0.636661
      6          6           0        0.642534    0.452005    0.234998
      7          1           0       -0.367147   -0.996559   -0.739789
      8          1           0       -0.752421   -1.325638    0.850747
      9          6           0        1.945723   -0.116590   -0.150876
     10          1           0        0.654192    1.416361    1.494760
     11          1           0        0.449600    0.826893   -0.250956
     12          1           0        2.467567   -1.093829    0.745875
     13          1           0        2.997207    0.977139   -0.635598
     14          1           0        1.659297   -0.398124   -1.002188
 ---------------------------------------------------------------------

 SCF Done:  E(RB2PLYPD3) =  -157.439687436     A.U. after   12 cycles
 E2(B2PLYPD3) =    -0.2555454642D+00 E(B2PLYPD3) =    -0.15769523290030D+03

 The electronic state is 1-A.
 Alpha  occ. eigenvalues --  -10.66240 -10.62129 -10.62092 -10.62033  -0.96283
 Alpha  occ. eigenvalues --   -0.84824  -0.76225  -0.72978  -0.55255  -0.50139
 Alpha  occ. eigenvalues --   -0.47734  -0.46751  -0.42626  -0.40247  -0.38137
 Alpha  occ. eigenvalues --   -0.35937  -0.33645
 Alpha virt. eigenvalues --    0.02090   0.04906   0.05934   0.07478   0.08544
 Alpha virt. eigenvalues --    0.10007   0.11344   0.13369   0.13578   0.14181
 Alpha virt. eigenvalues --    0.15154   0.16900   0.18219   0.18599   0.19355

 Mulliken charges:
               1
     1  C   -0.174751
     2  C   -0.096876
     3  H    0.034429
     4  H    0.029834
     5  H    0.072606
     6  C   -0.698806
     7  H    0.147250
     8  H    0.044752
     9  C   -0.169891
    10  H   -0.014487
    11  H    0.644125
    12  H    0.057560
    13  H   -0.000071
    14  H    0.124327
 Sum of Mulliken charges =   0.00000

 Dipole moment (field-independent basis, Debye):
    X=             -0.8410    Y=             -0.7040    Z=             -0.2792  Tot=              1.1318
 Quadrupole moment (field-independent basis, Debye-Ang):
   XX=            -31.2009   YY=            -29.5359   ZZ=            -29.1989
   XY=             -0.6693   XZ=             -1.8795   YZ=             -1.5198

 Normal termination of Gaussian 09 at Wed Aug 26 11:53:23 2020.
