 Gaussian 09, Revision D.01,
 Gaussian 09:  ES64L-G09RevD.01 24-Apr-2013

 --------------------
 #p B2PLYPD3/Def2QZVP
 --------------------

 ----------
 butane_opt
 ----------
 Symbolic Z-matrix:
 Charge =  0 Multiplicity = 1

                         Standard orientation:
 ---------------------------------------------------------------------
 Center     Atomic      Atomic             Coordinates (Angstroms)
 Number     Number       Type             X           Y           Z
 ---------------------------------------------------------------------
      1          6           0       -1.987660    0.078763    0.128505
      2          6           0       -0.596149   -0.493421   -0.232878
      3          1           0       -2.766034   -0.755093    0.279071
      4          1           0       -2.054156    0.496926   -0.665575
      5          1           0       -1.953074    0.678815    1.198085
      6          6           0        0.505798    0.654107   -0.162946
      7          1           0       -0.788329   -0.860614   -1.021720
      8          1           0       -0.297259   -1.289593    0.664498
      9          6           0        2.047521   -0.120547    0.133438
     10          1           0        0.276571    0.917722    0.613359
     11          1           0        0.523740    1.445206   -0.937208
     12          1           0        1.938000   -0.681109    0.964218
     13          1           0        2.603214    0.276354    0.710296
     14          1           0        2.700267   -0.942031   -1.001739
 ---------------------------------------------------------------------

 SCF Done:  E(RB2PLYPD3) =  -157.793817622     A.U. after   11 cycles
 E2(B2PLYPD3) =    -0.2505877092D+00 E(B2PLYPD3) =    -0.15804440533125D+03

 The electronic state is 1-A.
 Alpha  occ. eigenvalues --  -10.61591 -10.60956 -10.60302 -10.59834  -0.92182
 Alpha  occ. eigenvalues --   -0.85000  -0.77576  -0.69130  -0.56178  -0.51172
 Alpha  occ. eigenvalues --   -0.47604  -0.46123  -0.41307  -0.40674  -0.38550
 Alpha  occ. eigenvalues --   -0.37548  -0.35007
 Alpha virt. eigenvalues --    0.04417   0.05828   0.08182   0.08768   0.09916
 Alpha virt. eigenvalues --    0.11264   0.11947   0.12729   0.14542   0.15447
 Alpha virt. eigenvalues --    0.16179   0.17552   0.18421   0.18744   0.20792

 Mulliken charges:
               1
     1  C   -0.202776
     2  C   -0.088884
     3  H    0.041923
     4  H    0.118251
     5  H    0.027680
     6  C   -0.246143
     7  H    0.098100
     8  H    0.015160
     9  C   -0.234308
    10  H    0.219607
    11  H    0.051399
    12  H    0.060245
    13  H    0.116472
    14  H    0.023273
 Sum of Mulliken charges =   0.00000

 Dipole moment (field-independent basis, Debye):
    X=             -0.3882    Y=              0.1966    Z=              0.3809  Tot=              0.5783
 Quadrupole moment (field-independent basis, Debye-Ang):
   XX=            -30.9597   YY=            -29.6536   ZZ=            -26.7910
   XY=              0.6151   XZ=              1.9275   YZ=             -0.0668

 Normal termination of Gaussian 09 at Wed Aug 26 22:12:16 2020.
