 Gaussian 09, Revision D.01,
 Gaussian 09:  ES64L-G09RevD.01 24-Apr-2013

 --------------------
 #p B2PLYPD3/Def2QZVP
 --------------------

 ----------
 butane_opt
 ----------
 Symbolic Z-matrix:
 Charge =  0 Multiplicity = 1

                         Standard orientation:
 ---------------------------------------------------------------------
 Center     Atomic      Atomic             Coordinates (Angstroms)
 Number     Number       Type             X           Y           Z
 ---------------------------------------------------------------------
      1          6           0       -1.949816    0.051749   -0.191520
      2          6           0       -0.638550   -0.461829    0.184889
      3          1           0       -2.758441   -0.604580   -0.470835
      4          1           0       -1.772686    0.489777   -0.973251
      5          1           0       -2.302231    0.846744    0.662071
      6          6           0        0.546557    0.582995    0.140589
      7          1           0       -0.328275   -0.731510   -0.327901
      8          1           0       -0.946417   -1.224529    1.208650
      9          6           0        2.041144   -0.233450   -0.114585
     10          1           0        0.582421    1.287761    1.148178
     11          1           0        0.230374    1.152323   -0.764598
     12          1           0        2.244818   -0.569424    0.643081
     13          1           0        2.841882    0.673342   -0.385330
     14          1           0        2.212546   -0.956694   -0.856306
 ---------------------------------------------------------------------

 SCF Done:  E(RB2PLYPD3) =  -157.633795852     A.U. after   11 cycles
 E2(B2PLYPD3) =    -0.2491506621D+00 E(B2PLYPD3) =    -0.15788294651419D+03

 The electronic state is 1-A.
 Alpha  occ. eigenvalues --  -10.64730 -10.60068 -10.58330 -10.58262  -0.95105
 Alpha  occ. eigenvalues --   -0.83859  -0.77190  -0.68597  -0.55937  -0.51525
 Alpha  occ. eigenvalues --   -0.49855  -0.45730  -0.43489  -0.42730  -0.38870
 Alpha  occ. eigenvalues --   -0.36621  -0.35360
 Alpha virt. eigenvalues --    0.05478   0.06579   0.07862   0.08784   0.11313
 Alpha virt. eigenvalues --    0.11708   0.12470   0.12788   0.14332   0.15113
 Alpha virt. eigenvalues --    0.16331   0.16893   0.18702   0.19583   0.21004

 Mulliken charges:
               1
     1  C   -0.116904
     2  C   -0.694532
     3  H    0.043911
     4  H    0.073011
     5  H    0.033040
     6  C   -0.068253
     7  H    0.612830
     8  H    0.030328
     9  C   -0.247530
    10  H    0.038598
    11  H    0.055807
    12  H    0.161606
    13  H    0.030528
    14  H    0.047560
 Sum of Mulliken charges =   0.00000

 Dipole moment (field-independent basis, Debye):
    X=              0.1388    Y=             -0.1800    Z=             -0.4762  Tot=              0.5276
 Quadrupole moment (field-independent basis, Debye-Ang):
   XX=            -29.0038   YY=            -29.1932   ZZ=            -27.9442
   XY=             -0.1826   XZ=              0.2791   YZ=              0.4265

 Normal termination of Gaussian 09 at Wed Aug 26 15:31:59 2020.
