 Gaussian 09, Revision D.01,
 Gaussian 09:  ES64L-G09RevD.01 24-Apr-2013

 --------------------
 #p B2PLYPD3/Def2QZVP
 --------------------

 ----------
 butane_opt
 ----------
 Symbolic Z-matrix:
 Charge =  0 Multiplicity = 1

                         Standard orientation:
 ---------------------------------------------------------------------
 Center     Atomic      Atomic             Coordinates (Angstroms)
 Number     Number       Type             X           Y           Z
 ---------------------------------------------------------------------
      1          6           0        1.897143    0.073641   -0.143771
      2          6           0        0.586174   -0.385609    0.143514
      3          1           0        2.596032   -0.722589   -0.099858
      4          1           0        2.026733    0.543989    0.606697
      5          1           0        1.914821    0.571573   -1.040524
      6          6           0       -0.541187    0.530789    0.187100
      7          1           0        0.657988   -1.048120    1.206068
      8          1           0        0.677992   -0.998543   -0.710979
      9          6           0       -1.935870   -0.220579   -0.207370
     10          1           0       -0.227572    0.868443   -0.562959
     11          1           0       -0.610063    1.744725    1.178251
     12          1           0       -1.719897   -0.342994   -0.832446
     13          1           0       -2.805054    0.573731   -0.646406
     14          1           0       -2.548541   -1.179662    1.025319
 ---------------------------------------------------------------------

 SCF Done:  E(RB2PLYPD3) =  -157.490919849     A.U. after   12 cycles
 E2(B2PLYPD3) =    -0.2559457279D+00 E(B2PLYPD3) =    -0.15774686557644D+03

 The electronic state is 1-A.
 Alpha  occ. eigenvalues --  -10.63901 -10.63272 -10.61195 -10.56500  -0.97427
 Alpha  occ. eigenvalues --   -0.89464  -0.78804  -0.66398  -0.58401  -0.52287
 Alpha  occ. eigenvalues --   -0.49741  -0.48054  -0.42339  -0.40408  -0.37496
 Alpha  occ. eigenvalues --   -0.34746  -0.33878
 Alpha virt. eigenvalues --    0.01777   0.04673   0.06004   0.07112   0.08825
 Alpha virt. eigenvalues --    0.10541   0.11560   0.12993   0.14361   0.15141
 Alpha virt. eigenvalues --    0.15896   0.16779   0.18216   0.19166   0.20092

 Mulliken charges:
               1
     1  C   -0.165556
     2  C   -0.041482
     3  H    0.050941
     4  H    0.100706
     5  H    0.040338
     6  C   -0.175582
     7  H   -0.005776
     8  H    0.043911
     9  C   -0.719749
    10  H    0.190222
    11  H   -0.003900
    12  H    0.582612
    13  H    0.054076
    14  H    0.049237
 Sum of Mulliken charges =   0.00000

 Dipole moment (field-independent basis, Debye):
    X=              0.6931    Y=             -0.0539    Z=             -0.9611  Tot=              1.1862
 Quadrupole moment (field-independent basis, Debye-Ang):
   XX=            -29.9072   YY=            -30.5659   ZZ=            -27.8898
   XY=             -0.7681   XZ=              0.0946   YZ=             -0.6033

 Normal termination of Gaussian 09 at Wed Aug 26 16:24:54 2020.
