 Gaussian 09, Revision D.01,
 Gaussian 09:  ES64L-G09RevD.01 24-Apr-2013

 --------------------
 #p B2PLYPD3/Def2QZVP
 --------------------

 ----------
 butane_opt
 ----------
 Symbolic Z-matrix:
 Charge =  0 Multiplicity = 1

                         Standard orientation:
 ---------------------------------------------------------------------
 Center     Atomic      Atomic             Coordinates (Angstroms)
 Number     Number       Type             X           Y           Z
 ---------------------------------------------------------------------
      1          6           0       -1.961350    0.107397    0.015549
      2          6           0       -0.499968   -0.605770    0.041360
      3          1           0       -2.574576   -0.424619   -0.721897
      4          1           0       -1.738534    0.134070   -0.478814
      5          1           0       -2.469308    1.598431    1.360129
      6          6           0        0.525040    0.479206   -0.134592
      7          1           0       -0.336310   -1.578218   -0.852400
      8          1           0       -0.435427   -1.064934    0.927732
      9          6           0        1.952860   -0.083396    0.133870
     10          1           0        0.453788    0.829810    0.531859
     11          1           0        0.459340    1.421423   -1.464271
     12          1           0        1.797336   -0.659759    1.015500
     13          1           0        2.631026    0.780106   -0.120840
     14          1           0        2.113168   -0.420933   -0.534118
 ---------------------------------------------------------------------

 SCF Done:  E(RB2PLYPD3) =  -156.747950293     A.U. after   14 cycles
 E2(B2PLYPD3) =    -0.2637310920D+00 E(B2PLYPD3) =    -0.15701168138486D+03

 The electronic state is 1-A.
 Alpha  occ. eigenvalues --  -10.65053 -10.64006 -10.61802 -10.57591  -0.99403
 Alpha  occ. eigenvalues --   -0.92901  -0.80685  -0.70681  -0.56204  -0.52636
 Alpha  occ. eigenvalues --   -0.48327  -0.45941  -0.40680  -0.39465  -0.38858
 Alpha  occ. eigenvalues --   -0.35543  -0.32443
 Alpha virt. eigenvalues --   -0.05740   0.03075   0.05697   0.06520   0.09839
 Alpha virt. eigenvalues --    0.10098   0.11693   0.12230   0.14331   0.15119
 Alpha virt. eigenvalues --    0.15575   0.17098   0.17368   0.18879   0.19993

 Mulliken charges:
               1
     1  C   -1.016798
     2  C   -0.045969
     3  H    0.054963
     4  H    0.888640
     5  H    0.032097
     6  C   -0.474716
     7  H    0.017225
     8  H    0.073778
     9  C   -0.413130
    10  H    0.449730
    11  H   -0.009468
    12  H    0.086386
    13  H    0.054989
    14  H    0.302272
 Sum of Mulliken charges =   0.00000

 Dipole moment (field-independent basis, Debye):
    X=              0.9392    Y=             -0.4309    Z=             -0.2453  Tot=              1.0621
 Quadrupole moment (field-independent basis, Debye-Ang):
   XX=            -32.2011   YY=            -29.5192   ZZ=            -27.3694
   XY=             -0.3651   XZ=              0.8146   YZ=              0.9462

 Normal termination of Gaussian 09 at Wed Aug 26 20:00:47 2020.
