 Gaussian 09, Revision D.01,
 Gaussian 09:  ES64L-G09RevD.01 24-Apr-2013

 --------------------
 #p B2PLYPD3/Def2QZVP
 --------------------

 ----------
 butane_opt
 ----------
 Symbolic Z-matrix:
 Charge =  0 Multiplicity = 1

                         Standard orientation:
 ---------------------------------------------------------------------
 Center     Atomic      Atomic             Coordinates (Angstroms)
 Number     Number       Type             X           Y           Z
 ---------------------------------------------------------------------
      1          6           0        1.970819    0.140575   -0.108001
      2          6           0        0.561111   -0.571830    0.094224
      3          1           0        2.700090   -0.526595   -0.071015
      4          1           0        2.338510    0.576350    0.700807
      5          1           0        2.140144    0.905434   -1.015928
      6          6           0       -0.613507    0.486975    0.144273
      7          1           0        0.416233   -1.180988    0.952906
      8          1           0        0.301065   -1.084858   -0.768802
      9          6           0       -1.910279   -0.097781   -0.117214
     10          1           0       -0.607772    0.925467   -0.567289
     11          1           0       -0.568207    1.385112    1.197038
     12          1           0       -1.952655   -0.564071   -0.895176
     13          1           0       -2.604788    0.682721   -0.392620
     14          1           0       -2.211485   -0.866208    0.780388
 ---------------------------------------------------------------------

 SCF Done:  E(RB2PLYPD3) =  -157.928862184     A.U. after   11 cycles
 E2(B2PLYPD3) =    -0.2470872022D+00 E(B2PLYPD3) =    -0.15817594938583D+03

 The electronic state is 1-A.
 Alpha  occ. eigenvalues --  -10.60846 -10.59365 -10.59054 -10.58473  -0.93440
 Alpha  occ. eigenvalues --   -0.85028  -0.75258  -0.69288  -0.54826  -0.49864
 Alpha  occ. eigenvalues --   -0.48916  -0.48166  -0.43243  -0.41617  -0.39246
 Alpha  occ. eigenvalues --   -0.38211  -0.35362
 Alpha virt. eigenvalues --    0.05603   0.06727   0.07853   0.08829   0.11061
 Alpha virt. eigenvalues --    0.12051   0.12485   0.13935   0.14661   0.15409
 Alpha virt. eigenvalues --    0.16137   0.16786   0.19324   0.19801   0.21536

 Mulliken charges:
               1
     1  C   -0.127270
     2  C   -0.058189
     3  H    0.037027
     4  H    0.037538
     5  H    0.033678
     6  C   -0.212260
     7  H    0.051495
     8  H    0.055902
     9  C   -0.161306
    10  H    0.212764
    11  H   -0.001519
    12  H    0.071550
    13  H    0.036528
    14  H    0.024063
 Sum of Mulliken charges =   0.00000

 Dipole moment (field-independent basis, Debye):
    X=              0.2085    Y=             -0.1893    Z=             -0.5327  Tot=              0.6026
 Quadrupole moment (field-independent basis, Debye-Ang):
   XX=            -28.9554   YY=            -29.0401   ZZ=            -27.8851
   XY=             -0.1409   XZ=              1.7613   YZ=             -0.8721

 Normal termination of Gaussian 09 at Wed Aug 26 22:34:32 2020.
