 Gaussian 09, Revision D.01,
 Gaussian 09:  ES64L-G09RevD.01 24-Apr-2013

 --------------------
 #p B2PLYPD3/Def2QZVP
 --------------------

 ----------
 butane_opt
 ----------
 Symbolic Z-matrix:
 Charge =  0 Multiplicity = 1

                         Standard orientation:
 ---------------------------------------------------------------------
 Center     Atomic      Atomic             Coordinates (Angstroms)
 Number     Number       Type             X           Y           Z
 ---------------------------------------------------------------------
      1          6           0       -1.915091   -0.163668   -0.143234
      2          6           0       -0.600313    0.532300    0.066523
      3          1           0       -2.629311    0.396288   -0.620074
      4          1           0       -2.465513   -1.045281    1.125218
      5          1           0       -1.819373   -0.393282   -0.709671
      6          6           0        0.601546   -0.386312    0.110751
      7          1           0       -0.454878    1.595009    1.265023
      8          1           0       -0.313894    0.773435   -0.482320
      9          6           0        1.944572    0.058590   -0.107825
     10          1           0        0.292938   -1.200973   -0.915010
     11          1           0        0.692544   -1.080609    1.193744
     12          1           0        1.890162    0.725299   -1.098771
     13          1           0        2.857806   -0.712729    0.035312
     14          1           0        1.765226    0.697383    0.649264
 ---------------------------------------------------------------------

 SCF Done:  E(RB2PLYPD3) =  -157.129230720     A.U. after   12 cycles
 E2(B2PLYPD3) =    -0.2573232605D+00 E(B2PLYPD3) =    -0.15738655398047D+03

 The electronic state is 1-A.
 Alpha  occ. eigenvalues --  -10.65641 -10.62733 -10.61799 -10.61520  -0.99648
 Alpha  occ. eigenvalues --   -0.91191  -0.82199  -0.64136  -0.56281  -0.53122
 Alpha  occ. eigenvalues --   -0.49832  -0.48747  -0.43892  -0.38813  -0.38254
 Alpha  occ. eigenvalues --   -0.35524  -0.32584
 Alpha virt. eigenvalues --    0.02101   0.04644   0.05259   0.07437   0.08573
 Alpha virt. eigenvalues --    0.09934   0.11799   0.12554   0.14402   0.14783
 Alpha virt. eigenvalues --    0.15751   0.16404   0.17779   0.19008   0.20144

 Mulliken charges:
               1
     1  C   -0.702691
     2  C   -0.663439
     3  H    0.069735
     4  H    0.042070
     5  H    0.614303
     6  C   -0.010401
     7  H   -0.034104
     8  H    0.657649
     9  C   -0.150877
    10  H   -0.028271
    11  H    0.018103
    12  H    0.024487
    13  H    0.081698
    14  H    0.081740
 Sum of Mulliken charges =   0.00000

 Dipole moment (field-independent basis, Debye):
    X=              0.2050    Y=             -0.0767    Z=             -0.7796  Tot=              0.8097
 Quadrupole moment (field-independent basis, Debye-Ang):
   XX=            -28.7168   YY=            -31.5757   ZZ=            -28.3128
   XY=             -0.7286   XZ=              1.6491   YZ=             -1.2326

 Normal termination of Gaussian 09 at Wed Aug 26 18:53:42 2020.
