 Gaussian 09, Revision D.01,
 Gaussian 09:  ES64L-G09RevD.01 24-Apr-2013

 --------------------
 #p B2PLYPD3/Def2QZVP
 --------------------

 ----------
 butane_opt
 ----------
 Symbolic Z-matrix:
 Charge =  0 Multiplicity = 1

                         Standard orientation:
 ---------------------------------------------------------------------
 Center     Atomic      Atomic             Coordinates (Angstroms)
 Number     Number       Type             X           Y           Z
 ---------------------------------------------------------------------
      1          6           0        2.014017    0.125808   -0.173177
      2          6           0        0.503390   -0.596715    0.268156
      3          1           0        2.811570   -0.741329   -0.466893
      4          1           0        2.402821    1.076690    0.839279
      5          1           0        1.794711    0.677935   -1.051480
      6          6           0       -0.550886    0.519247    0.048631
      7          1           0        0.313113   -1.390667    1.446387
      8          1           0        0.552857   -0.884049   -0.395955
      9          6           0       -1.927937   -0.121650   -0.154791
     10          1           0       -0.398782    0.861904   -0.752648
     11          1           0       -0.637987    1.485634    0.939648
     12          1           0       -2.171398   -0.950277   -1.250018
     13          1           0       -2.679255    0.655220    0.280332
     14          1           0       -2.219153   -0.351200    0.478439
 ---------------------------------------------------------------------

 SCF Done:  E(RB2PLYPD3) =  -157.480101340     A.U. after   11 cycles
 E2(B2PLYPD3) =    -0.2557419140D+00 E(B2PLYPD3) =    -0.15773584325364D+03

 The electronic state is 1-A.
 Alpha  occ. eigenvalues --  -10.65613 -10.61766 -10.61382 -10.59730  -0.94195
 Alpha  occ. eigenvalues --   -0.87003  -0.75537  -0.70297  -0.54018  -0.49266
 Alpha  occ. eigenvalues --   -0.47593  -0.44897  -0.41834  -0.39469  -0.39160
 Alpha  occ. eigenvalues --   -0.35790  -0.33594
 Alpha virt. eigenvalues --    0.04174   0.05067   0.06349   0.07264   0.10139
 Alpha virt. eigenvalues --    0.10450   0.11172   0.12614   0.14355   0.14892
 Alpha virt. eigenvalues --    0.15766   0.16110   0.18189   0.18740   0.19330

 Mulliken charges:
               1
     1  C   -0.201870
     2  C   -0.592467
     3  H    0.052255
     4  H    0.026698
     5  H    0.081431
     6  C   -0.075796
     7  H    0.051751
     8  H    0.542541
     9  C   -0.512073
    10  H    0.158626
    11  H    0.010609
    12  H    0.058004
    13  H    0.016880
    14  H    0.383412
 Sum of Mulliken charges =   0.00000

 Dipole moment (field-independent basis, Debye):
    X=             -0.3898    Y=             -0.3010    Z=             -0.2753  Tot=              0.5642
 Quadrupole moment (field-independent basis, Debye-Ang):
   XX=            -31.4893   YY=            -29.5754   ZZ=            -27.7921
   XY=             -0.2177   XZ=             -2.5067   YZ=              0.7944

 Normal termination of Gaussian 09 at Wed Aug 26 23:38:48 2020.
