 Gaussian 09, Revision D.01,
 Gaussian 09:  ES64L-G09RevD.01 24-Apr-2013

 --------------------
 #p B2PLYPD3/Def2QZVP
 --------------------

 ----------
 butane_opt
 ----------
 Symbolic Z-matrix:
 Charge =  0 Multiplicity = 1

                         Standard orientation:
 ---------------------------------------------------------------------
 Center     Atomic      Atomic             Coordinates (Angstroms)
 Number     Number       Type             X           Y           Z
 ---------------------------------------------------------------------
      1          6           0        1.956616    0.136570    0.007587
      2          6           0        0.521246   -0.545859    0.064375
      3          1           0        2.762777   -0.575651   -0.424009
      4          1           0        2.378000    1.038659    1.016842
      5          1           0        1.856024    0.501962   -0.694097
      6          6           0       -0.571236    0.423213   -0.055866
      7          1           0        0.410712   -1.132259    0.867061
      8          1           0        0.278178   -1.204634   -0.845169
      9          6           0       -1.922469   -0.052432    0.011639
     10          1           0       -0.358483    1.216657   -1.093341
     11          1           0       -0.567764    1.131143    0.774322
     12          1           0       -2.077241   -0.657680   -0.811332
     13          1           0       -2.659854    0.706019    0.073516
     14          1           0       -1.927293   -0.793168    0.969794
 ---------------------------------------------------------------------

 SCF Done:  E(RB2PLYPD3) =  -157.915548424     A.U. after   11 cycles
 E2(B2PLYPD3) =    -0.2493877303D+00 E(B2PLYPD3) =    -0.15816493615477D+03

 The electronic state is 1-A.
 Alpha  occ. eigenvalues --  -10.61573 -10.60835 -10.60684 -10.59929  -0.93457
 Alpha  occ. eigenvalues --   -0.85621  -0.75345  -0.65745  -0.55316  -0.50677
 Alpha  occ. eigenvalues --   -0.48403  -0.47218  -0.42340  -0.40971  -0.39811
 Alpha  occ. eigenvalues --   -0.37274  -0.35324
 Alpha virt. eigenvalues --    0.05397   0.05973   0.07441   0.07865   0.10477
 Alpha virt. eigenvalues --    0.11148   0.12740   0.13003   0.14400   0.15481
 Alpha virt. eigenvalues --    0.15973   0.16227   0.19144   0.19803   0.21220

 Mulliken charges:
               1
     1  C   -0.404980
     2  C   -0.025831
     3  H    0.042976
     4  H    0.043558
     5  H    0.286419
     6  C   -0.013618
     7  H    0.054917
     8  H    0.014951
     9  C   -0.141759
    10  H   -0.022641
    11  H    0.027065
    12  H    0.046866
    13  H    0.065020
    14  H    0.027055
 Sum of Mulliken charges =   0.00000

 Dipole moment (field-independent basis, Debye):
    X=             -0.2869    Y=             -0.0676    Z=             -0.1617  Tot=              0.3362
 Quadrupole moment (field-independent basis, Debye-Ang):
   XX=            -29.8772   YY=            -29.4044   ZZ=            -28.4348
   XY=             -0.2880   XZ=             -0.6047   YZ=              0.5525

 Normal termination of Gaussian 09 at Wed Aug 26 15:42:46 2020.
