 Gaussian 09, Revision D.01,
 Gaussian 09:  ES64L-G09RevD.01 24-Apr-2013

 --------------------
 #p B2PLYPD3/Def2QZVP
 --------------------

 ----------
 butane_opt
 ----------
 Symbolic Z-matrix:
 Charge =  0 Multiplicity = 1

                         Standard orientation:
 ---------------------------------------------------------------------
 Center     Atomic      Atomic             Coordinates (Angstroms)
 Number     Number       Type             X           Y           Z
 ---------------------------------------------------------------------
      1          6           0       -2.037322    0.127301   -0.104279
      2          6           0       -0.509850   -0.639267    0.020573
      3          1           0       -2.759501   -0.636197    0.496906
      4          1           0       -2.736780    1.314039   -1.176002
      5          1           0       -1.695458    0.235500    0.445218
      6          6           0        0.610549    0.525785    0.223680
      7          1           0       -0.319403   -0.962757   -0.518158
      8          1           0       -0.319976   -1.371032    0.832431
      9          6           0        1.944119   -0.010369   -0.179441
     10          1           0        0.540027    1.449397    1.349133
     11          1           0        0.296574    0.891406   -0.454118
     12          1           0        2.258747   -0.763894    0.625568
     13          1           0        2.624401    0.597791   -0.210645
     14          1           0        2.066393   -0.774955   -1.153532
 ---------------------------------------------------------------------

 SCF Done:  E(RB2PLYPD3) =  -157.111710119     A.U. after   12 cycles
 E2(B2PLYPD3) =    -0.2574635658D+00 E(B2PLYPD3) =    -0.15736917368440D+03

 The electronic state is 1-A.
 Alpha  occ. eigenvalues --  -10.62472 -10.61679 -10.60669 -10.60478  -0.96105
 Alpha  occ. eigenvalues --   -0.87879  -0.80448  -0.72772  -0.54842  -0.50683
 Alpha  occ. eigenvalues --   -0.49030  -0.45368  -0.43208  -0.38961  -0.37745
 Alpha  occ. eigenvalues --   -0.35739  -0.35266
 Alpha virt. eigenvalues --   -0.00874   0.04991   0.05800   0.07662   0.10349
 Alpha virt. eigenvalues --    0.11142   0.12146   0.12885   0.14536   0.15014
 Alpha virt. eigenvalues --    0.15681   0.16228   0.17652   0.19227   0.19965

 Mulliken charges:
               1
     1  C   -0.781796
     2  C   -0.641116
     3  H    0.067853
     4  H    0.077113
     5  H    0.612411
     6  C   -0.284213
     7  H    0.565893
     8  H    0.078008
     9  C   -0.136006
    10  H    0.023185
    11  H    0.282405
    12  H    0.025285
    13  H    0.085293
    14  H    0.025686
 Sum of Mulliken charges =   0.00000

 Dipole moment (field-independent basis, Debye):
    X=              0.7181    Y=              0.0084    Z=              0.0398  Tot=              0.7193
 Quadrupole moment (field-independent basis, Debye-Ang):
   XX=            -29.8254   YY=            -28.2287   ZZ=            -28.5060
   XY=             -0.8529   XZ=             -0.3439   YZ=             -1.0701

 Normal termination of Gaussian 09 at Wed Aug 26 11:06:48 2020.
