 Gaussian 09, Revision D.01,
 Gaussian 09:  ES64L-G09RevD.01 24-Apr-2013

 --------------------
 #p B2PLYPD3/Def2QZVP
 --------------------

 ----------
 butane_opt
 ----------
 Symbolic Z-matrix:
 Charge =  0 Multiplicity = 1

                         Standard orientation:
 ---------------------------------------------------------------------
 Center     Atomic      Atomic             Coordinates (Angstroms)
 Number     Number       Type             X           Y           Z
 ---------------------------------------------------------------------
      1          6           0       -1.887037    0.034949   -0.179617
      2          6           0       -0.668757   -0.486522    0.142447
      3          1           0       -2.597736   -0.770270   -0.056474
      4          1           0       -2.149405    0.899116   -1.232687
      5          1           0       -2.083487    0.773284    0.677910
      6          6           0        0.494240    0.595439    0.114368
      7          1           0       -0.737394   -0.892246   -0.547233
      8          1           0       -0.627960   -1.395868    1.430245
      9          6           0        2.013143   -0.189931   -0.084246
     10          1           0        0.456931    1.539359    1.122508
     11          1           0        0.475409    1.075559   -0.668682
     12          1           0        2.308100   -0.469801    0.510337
     13          1           0        2.695469    0.559298   -0.009449
     14          1           0        2.550539   -1.042043   -1.184187
 ---------------------------------------------------------------------

 SCF Done:  E(RB2PLYPD3) =  -157.521691246     A.U. after   12 cycles
 E2(B2PLYPD3) =    -0.2554597028D+00 E(B2PLYPD3) =    -0.15777715094904D+03

 The electronic state is 1-A.
 Alpha  occ. eigenvalues --  -10.64534 -10.62673 -10.61293 -10.59568  -0.96379
 Alpha  occ. eigenvalues --   -0.87431  -0.77002  -0.68070  -0.55466  -0.49538
 Alpha  occ. eigenvalues --   -0.47411  -0.45679  -0.43161  -0.38537  -0.37965
 Alpha  occ. eigenvalues --   -0.37107  -0.33540
 Alpha virt. eigenvalues --    0.02402   0.03985   0.05524   0.07082   0.10583
 Alpha virt. eigenvalues --    0.11107   0.11574   0.12822   0.13411   0.14560
 Alpha virt. eigenvalues --    0.15787   0.15962   0.18590   0.19712   0.20429

 Mulliken charges:
               1
     1  C   -0.177111
     2  C   -0.306496
     3  H    0.076505
     4  H    0.036470
     5  H    0.030130
     6  C   -0.096063
     7  H    0.344533
     8  H   -0.005194
     9  C   -0.480616
    10  H    0.016935
    11  H    0.138448
    12  H    0.349719
    13  H    0.047143
    14  H    0.025598
 Sum of Mulliken charges =   0.00000

 Dipole moment (field-independent basis, Debye):
    X=             -0.0998    Y=              0.3341    Z=             -0.1055  Tot=              0.3643
 Quadrupole moment (field-independent basis, Debye-Ang):
   XX=            -29.2901   YY=            -29.2005   ZZ=            -29.1102
   XY=              0.7938   XZ=              1.1915   YZ=              0.0637

 Normal termination of Gaussian 09 at Wed Aug 26 22:21:44 2020.
