 Gaussian 09, Revision D.01,
 Gaussian 09:  ES64L-G09RevD.01 24-Apr-2013

 --------------------
 #p B2PLYPD3/Def2QZVP
 --------------------

 ----------
 butane_opt
 ----------
 Symbolic Z-matrix:
 Charge =  0 Multiplicity = 1

                         Standard orientation:
 ---------------------------------------------------------------------
 Center     Atomic      Atomic             Coordinates (Angstroms)
 Number     Number       Type             X           Y           Z
 ---------------------------------------------------------------------
      1          6           0        1.964875   -0.111931   -0.002484
      2          6           0        0.532894    0.546544    0.019950
      3          1           0        2.710777    0.586040   -0.143147
      4          1           0        2.056733   -0.648933   -0.823125
      5          1           0        2.264061   -0.893331    1.059253
      6          6           0       -0.563573   -0.537592   -0.007088
      7          1           0        0.545385    1.252082   -0.919199
      8          1           0        0.475857    1.089332    0.793816
      9          6           0       -1.994987    0.104885    0.017858
     10          1           0       -0.520703   -1.018303    0.702601
     11          1           0       -0.359178   -1.275211   -0.933798
     12          1           0       -1.957276    0.783514    0.932272
     13          1           0       -2.725275   -0.605980   -0.058926
     14          1           0       -2.125631    0.719353   -0.779159
 ---------------------------------------------------------------------

 SCF Done:  E(RB2PLYPD3) =  -157.998362033     A.U. after   11 cycles
 E2(B2PLYPD3) =    -0.2460325821D+00 E(B2PLYPD3) =    -0.15824439461468D+03

 The electronic state is 1-A.
 Alpha  occ. eigenvalues --  -10.60418 -10.60268 -10.59111 -10.58852  -0.91400
 Alpha  occ. eigenvalues --   -0.83488  -0.74334  -0.69455  -0.54635  -0.50554
 Alpha  occ. eigenvalues --   -0.48224  -0.46686  -0.43562  -0.42024  -0.38952
 Alpha  occ. eigenvalues --   -0.38155  -0.36919
 Alpha virt. eigenvalues --    0.05718   0.06720   0.08291   0.08745   0.10833
 Alpha virt. eigenvalues --    0.12221   0.12683   0.13775   0.14873   0.15333
 Alpha virt. eigenvalues --    0.15628   0.16514   0.19473   0.20096   0.21720

 Mulliken charges:
               1
     1  C   -0.145865
     2  C   -0.044411
     3  H    0.045911
     4  H    0.060643
     5  H    0.005897
     6  C   -0.154092
     7  H    0.010023
     8  H    0.068594
     9  C   -0.141867
    10  H    0.147522
    11  H    0.006906
    12  H    0.039238
    13  H    0.050050
    14  H    0.051450
 Sum of Mulliken charges =   0.00000

 Dipole moment (field-independent basis, Debye):
    X=             -0.1069    Y=              0.1687    Z=             -0.1255  Tot=              0.2358
 Quadrupole moment (field-independent basis, Debye-Ang):
   XX=            -29.6583   YY=            -28.6421   ZZ=            -28.0445
   XY=              0.8731   XZ=             -0.5057   YZ=             -0.0197

 Normal termination of Gaussian 09 at Wed Aug 26 14:55:59 2020.
