 Gaussian 09, Revision D.01,
 Gaussian 09:  ES64L-G09RevD.01 24-Apr-2013

 --------------------
 #p B2PLYPD3/Def2QZVP
 --------------------

 ----------
 butane_opt
 ----------
 Symbolic Z-matrix:
 Charge =  0 Multiplicity = 1

                         Standard orientation:
 ---------------------------------------------------------------------
 Center     Atomic      Atomic             Coordinates (Angstroms)
 Number     Number       Type             X           Y           Z
 ---------------------------------------------------------------------
      1          6           0        1.883550    0.038517    0.151314
      2          6           0        0.547247   -0.441650   -0.219520
      3          1           0        2.816702   -0.821999   -0.033490
      4          1           0        1.902595    0.753338    1.310588
      5          1           0        2.014456    0.804740   -0.750218
      6          6           0       -0.452615    0.566313    0.012181
      7          1           0        0.388039   -1.058547    0.483089
      8          1           0        0.375249   -1.199813   -1.298813
      9          6           0       -1.929609   -0.105949    0.078999
     10          1           0       -0.753022    1.484081   -1.036141
     11          1           0       -0.201163    0.938574    0.825896
     12          1           0       -1.753468   -0.401560   -0.521315
     13          1           0       -2.597848    0.355974   -0.292917
     14          1           0       -2.482981   -1.198176    1.175483
 ---------------------------------------------------------------------

 SCF Done:  E(RB2PLYPD3) =  -157.552897910     A.U. after   12 cycles
 E2(B2PLYPD3) =    -0.2555551877D+00 E(B2PLYPD3) =    -0.15780845309727D+03

 The electronic state is 1-A.
 Alpha  occ. eigenvalues --  -10.65829 -10.63655 -10.61389 -10.58476  -0.96510
 Alpha  occ. eigenvalues --   -0.88872  -0.75301  -0.66857  -0.55408  -0.51811
 Alpha  occ. eigenvalues --   -0.48872  -0.43948  -0.43225  -0.39854  -0.38996
 Alpha  occ. eigenvalues --   -0.37124  -0.33825
 Alpha virt. eigenvalues --    0.03223   0.04525   0.04908   0.06769   0.10433
 Alpha virt. eigenvalues --    0.10765   0.11627   0.12420   0.12678   0.14918
 Alpha virt. eigenvalues --    0.15281   0.16963   0.18582   0.19574   0.20278

 Mulliken charges:
               1
     1  C   -0.184549
     2  C   -0.075327
     3  H    0.052125
     4  H    0.043701
     5  H    0.045312
     6  C   -0.064597
     7  H    0.121271
     8  H    0.008888
     9  C   -0.630428
    10  H   -0.010130
    11  H    0.118792
    12  H    0.506780
    13  H    0.066094
    14  H    0.002067
 Sum of Mulliken charges =   0.00000

 Dipole moment (field-independent basis, Debye):
    X=              0.2690    Y=             -0.0996    Z=             -0.3321  Tot=              0.4389
 Quadrupole moment (field-independent basis, Debye-Ang):
   XX=            -31.2458   YY=            -30.0814   ZZ=            -28.6430
   XY=             -0.9852   XZ=              1.6337   YZ=              0.2276

 Normal termination of Gaussian 09 at Wed Aug 26 15:44:32 2020.
