 Gaussian 09, Revision D.01,
 Gaussian 09:  ES64L-G09RevD.01 24-Apr-2013

 --------------------
 #p B2PLYPD3/Def2QZVP
 --------------------

 ----------
 butane_opt
 ----------
 Symbolic Z-matrix:
 Charge =  0 Multiplicity = 1

                         Standard orientation:
 ---------------------------------------------------------------------
 Center     Atomic      Atomic             Coordinates (Angstroms)
 Number     Number       Type             X           Y           Z
 ---------------------------------------------------------------------
      1          6           0       -1.962306    0.121030   -0.038931
      2          6           0       -0.620611   -0.480947    0.079903
      3          1           0       -2.836046   -0.768948   -0.084619
      4          1           0       -2.005527    0.725362   -0.906269
      5          1           0       -2.162198    0.757740    0.749411
      6          6           0        0.587686    0.516852    0.044781
      7          1           0       -0.488551   -1.329479   -0.835858
      8          1           0       -0.568515   -0.995558    0.893678
      9          6           0        1.998993   -0.145966   -0.062721
     10          1           0        0.488581    1.314561    0.992431
     11          1           0        0.422032    1.185051   -0.836948
     12          1           0        2.398719   -0.868667    0.953812
     13          1           0        2.702905    0.553213   -0.248417
     14          1           0        2.026028   -0.639094   -0.815417
 ---------------------------------------------------------------------

 SCF Done:  E(RB2PLYPD3) =  -158.018128670     A.U. after   11 cycles
 E2(B2PLYPD3) =    -0.2473569385D+00 E(B2PLYPD3) =    -0.15826548560800D+03

 The electronic state is 1-A.
 Alpha  occ. eigenvalues --  -10.63216 -10.60623 -10.60164 -10.59524  -0.90938
 Alpha  occ. eigenvalues --   -0.84650  -0.73512  -0.66759  -0.53544  -0.50211
 Alpha  occ. eigenvalues --   -0.48142  -0.47197  -0.43235  -0.41449  -0.39262
 Alpha  occ. eigenvalues --   -0.37542  -0.36188
 Alpha virt. eigenvalues --    0.05558   0.06471   0.07523   0.08734   0.10660
 Alpha virt. eigenvalues --    0.11613   0.12801   0.13186   0.14928   0.15137
 Alpha virt. eigenvalues --    0.15823   0.16128   0.19353   0.19956   0.21405

 Mulliken charges:
               1
     1  C   -0.146822
     2  C   -0.037530
     3  H    0.032351
     4  H    0.048326
     5  H    0.054062
     6  C   -0.040321
     7  H   -0.010298
     8  H    0.073351
     9  C   -0.170998
    10  H    0.006454
    11  H    0.028001
    12  H    0.020501
    13  H    0.047451
    14  H    0.095471
 Sum of Mulliken charges =   0.00000

 Dipole moment (field-independent basis, Debye):
    X=              0.1093    Y=              0.1775    Z=             -0.1704  Tot=              0.2693
 Quadrupole moment (field-independent basis, Debye-Ang):
   XX=            -29.5739   YY=            -29.0894   ZZ=            -28.4354
   XY=              0.1267   XZ=             -0.9239   YZ=             -0.3237

 Normal termination of Gaussian 09 at Wed Aug 26 10:25:46 2020.
