 Gaussian 09, Revision D.01,
 Gaussian 09:  ES64L-G09RevD.01 24-Apr-2013

 --------------------
 #p B2PLYPD3/Def2QZVP
 --------------------

 ----------
 butane_opt
 ----------
 Symbolic Z-matrix:
 Charge =  0 Multiplicity = 1

                         Standard orientation:
 ---------------------------------------------------------------------
 Center     Atomic      Atomic             Coordinates (Angstroms)
 Number     Number       Type             X           Y           Z
 ---------------------------------------------------------------------
      1          6           0       -1.933329   -0.030773   -0.068017
      2          6           0       -0.542322    0.376476    0.054802
      3          1           0       -2.788818    0.817783    0.125764
      4          1           0       -1.707679   -0.808211    0.905312
      5          1           0       -2.045408   -0.643588   -0.978280
      6          6           0        0.505464   -0.580461    0.117256
      7          1           0       -0.608176    0.974194    0.909980
      8          1           0       -0.522300    1.183680   -0.921034
      9          6           0        1.941517    0.125472   -0.086558
     10          1           0        0.280424   -1.166842   -0.682453
     11          1           0        0.452389   -0.990925    0.850477
     12          1           0        1.780027    0.694948   -0.847014
     13          1           0        2.728738   -0.379070   -0.485526
     14          1           0        2.602823    0.973747    1.017877
 ---------------------------------------------------------------------

 SCF Done:  E(RB2PLYPD3) =  -157.888507436     A.U. after   11 cycles
 E2(B2PLYPD3) =    -0.2509642233D+00 E(B2PLYPD3) =    -0.15813947165930D+03

 The electronic state is 1-A.
 Alpha  occ. eigenvalues --  -10.63149 -10.62159 -10.60650 -10.58440  -0.95440
 Alpha  occ. eigenvalues --   -0.84231  -0.75998  -0.66071  -0.58605  -0.51015
 Alpha  occ. eigenvalues --   -0.49586  -0.47450  -0.43216  -0.41815  -0.39177
 Alpha  occ. eigenvalues --   -0.36691  -0.32773
 Alpha virt. eigenvalues --    0.04608   0.05129   0.08098   0.08282   0.10068
 Alpha virt. eigenvalues --    0.10592   0.12111   0.12695   0.13984   0.15555
 Alpha virt. eigenvalues --    0.15824   0.16473   0.19341   0.19556   0.21382

 Mulliken charges:
               1
     1  C   -0.155036
     2  C    0.005939
     3  H    0.070026
     4  H    0.000987
     5  H    0.050038
     6  C   -0.151479
     7  H    0.050817
     8  H   -0.038816
     9  C   -0.166277
    10  H    0.050709
    11  H    0.150667
    12  H    0.085681
    13  H    0.046947
    14  H   -0.000200
 Sum of Mulliken charges =   0.00000

 Dipole moment (field-independent basis, Debye):
    X=             -0.1650    Y=             -0.2838    Z=             -0.4236  Tot=              0.5359
 Quadrupole moment (field-independent basis, Debye-Ang):
   XX=            -30.4174   YY=            -30.0730   ZZ=            -28.4023
   XY=             -1.8067   XZ=             -0.4974   YZ=              0.5799

 Normal termination of Gaussian 09 at Wed Aug 26 23:15:19 2020.
