 Gaussian 09, Revision D.01,
 Gaussian 09:  ES64L-G09RevD.01 24-Apr-2013

 --------------------
 #p B2PLYPD3/Def2QZVP
 --------------------

 ----------
 butane_opt
 ----------
 Symbolic Z-matrix:
 Charge =  0 Multiplicity = 1

                         Standard orientation:
 ---------------------------------------------------------------------
 Center     Atomic      Atomic             Coordinates (Angstroms)
 Number     Number       Type             X           Y           Z
 ---------------------------------------------------------------------
      1          6           0       -1.882212    0.076795   -0.156602
      2          6           0       -0.622341   -0.494758    0.175030
      3          1           0       -2.863328   -0.827968   -0.197385
      4          1           0       -2.083136    0.638970   -0.966317
      5          1           0       -2.035878    0.793408    0.673193
      6          6           0        0.526292    0.581366   -0.011697
      7          1           0       -0.372077   -0.776186   -0.269372
      8          1           0       -0.760059   -1.290083    1.264969
      9          6           0        1.964503   -0.154528   -0.082098
     10          1           0        0.448590    1.452444    0.962450
     11          1           0        0.375641    1.147726   -0.783666
     12          1           0        2.278923   -0.335154    0.633200
     13          1           0        2.654631    0.379681    0.336591
     14          1           0        2.439238   -1.236089   -1.201459
 ---------------------------------------------------------------------

 SCF Done:  E(RB2PLYPD3) =  -157.200984966     A.U. after   12 cycles
 E2(B2PLYPD3) =    -0.2540778968D+00 E(B2PLYPD3) =    -0.15745506286283D+03

 The electronic state is 1-A.
 Alpha  occ. eigenvalues --  -10.64156 -10.61089 -10.60745 -10.59680  -0.96648
 Alpha  occ. eigenvalues --   -0.92507  -0.78073  -0.73154  -0.56084  -0.50588
 Alpha  occ. eigenvalues --   -0.48576  -0.45202  -0.41989  -0.39354  -0.37921
 Alpha  occ. eigenvalues --   -0.36594  -0.33545
 Alpha virt. eigenvalues --    0.02370   0.04645   0.06985   0.07531   0.09960
 Alpha virt. eigenvalues --    0.11491   0.12170   0.12600   0.14872   0.14885
 Alpha virt. eigenvalues --    0.15977   0.16770   0.18333   0.19053   0.20711

 Mulliken charges:
               1
     1  C   -0.095667
     2  C   -0.816368
     3  H    0.009689
     4  H    0.051288
     5  H    0.054785
     6  C   -0.040617
     7  H    0.731623
     8  H    0.052797
     9  C   -0.442082
    10  H   -0.014675
    11  H    0.095448
    12  H    0.291370
    13  H    0.084424
    14  H    0.037985
 Sum of Mulliken charges =   0.00000

 Dipole moment (field-independent basis, Debye):
    X=              0.4846    Y=              0.3041    Z=              0.2315  Tot=              0.6171
 Quadrupole moment (field-independent basis, Debye-Ang):
   XX=            -29.4408   YY=            -29.2043   ZZ=            -28.1984
   XY=             -0.6332   XZ=              2.2809   YZ=              0.4352

 Normal termination of Gaussian 09 at Wed Aug 26 21:28:05 2020.
