 Gaussian 09, Revision D.01,
 Gaussian 09:  ES64L-G09RevD.01 24-Apr-2013

 --------------------
 #p B2PLYPD3/Def2QZVP
 --------------------

 ----------
 butane_opt
 ----------
 Symbolic Z-matrix:
 Charge =  0 Multiplicity = 1

                         Standard orientation:
 ---------------------------------------------------------------------
 Center     Atomic      Atomic             Coordinates (Angstroms)
 Number     Number       Type             X           Y           Z
 ---------------------------------------------------------------------
      1          6           0       -1.888402    0.063855   -0.004714
      2          6           0       -0.572812   -0.457823    0.008913
      3          1           0       -2.715169   -0.652728   -0.414954
      4          1           0       -1.740402    0.284344   -0.633977
      5          1           0       -2.207950    1.094591    1.140835
      6          6           0        0.513478    0.583595   -0.066419
      7          1           0       -0.490503   -1.061844   -0.779693
      8          1           0       -0.386288   -1.219480    0.944157
      9          6           0        1.959644   -0.149308    0.048851
     10          1           0        0.201582    1.060250    0.702262
     11          1           0        0.482113    1.199409   -0.939305
     12          1           0        2.117554   -0.839107    0.978771
     13          1           0        2.713717    0.591877   -0.117509
     14          1           0        1.953895   -0.699231   -0.800366
 ---------------------------------------------------------------------

 SCF Done:  E(RB2PLYPD3) =  -157.704320137     A.U. after   11 cycles
 E2(B2PLYPD3) =    -0.2501421478D+00 E(B2PLYPD3) =    -0.15795446228465D+03

 The electronic state is 1-A.
 Alpha  occ. eigenvalues --  -10.60371 -10.60304 -10.59936 -10.59334  -0.97561
 Alpha  occ. eigenvalues --   -0.86261  -0.75327  -0.68121  -0.56099  -0.50394
 Alpha  occ. eigenvalues --   -0.49407  -0.47676  -0.43159  -0.41188  -0.39279
 Alpha  occ. eigenvalues --   -0.36573  -0.35684
 Alpha virt. eigenvalues --    0.04042   0.06224   0.07434   0.08033   0.10688
 Alpha virt. eigenvalues --    0.11228   0.12859   0.13127   0.14594   0.15344
 Alpha virt. eigenvalues --    0.15899   0.16749   0.18750   0.19522   0.21092

 Mulliken charges:
               1
     1  C   -0.722495
     2  C    0.005910
     3  H    0.071672
     4  H    0.558993
     5  H    0.017934
     6  C   -0.075567
     7  H    0.042232
     8  H    0.002568
     9  C   -0.169396
    10  H    0.077015
    11  H    0.030674
    12  H    0.054117
    13  H    0.045466
    14  H    0.060878
 Sum of Mulliken charges =   0.00000

 Dipole moment (field-independent basis, Debye):
    X=              0.2931    Y=             -0.0859    Z=             -0.8296  Tot=              0.8840
 Quadrupole moment (field-independent basis, Debye-Ang):
   XX=            -30.5148   YY=            -29.1885   ZZ=            -27.7049
   XY=              0.6132   XZ=              0.7965   YZ=              0.3209

 Normal termination of Gaussian 09 at Wed Aug 26 10:48:48 2020.
