 Gaussian 09, Revision D.01,
 Gaussian 09:  ES64L-G09RevD.01 24-Apr-2013

 --------------------
 #p B2PLYPD3/Def2QZVP
 --------------------

 ----------
 butane_opt
 ----------
 Symbolic Z-matrix:
 Charge =  0 Multiplicity = 1

                         Standard orientation:
 ---------------------------------------------------------------------
 Center     Atomic      Atomic             Coordinates (Angstroms)
 Number     Number       Type             X           Y           Z
 ---------------------------------------------------------------------
      1          6           0       -1.946309    0.093093   -0.017670
      2          6           0       -0.582188   -0.504642   -0.005227
      3          1           0       -2.726239   -0.747943    0.264093
      4          1           0       -2.277900    0.927816   -0.971710
      5          1           0       -1.933921    0.617424    0.856093
      6          6           0        0.564335    0.598739    0.006742
      7          1           0       -0.650549   -1.148665   -0.903267
      8          1           0       -0.581924   -1.153567    0.836799
      9          6           0        1.993160   -0.179515   -0.039859
     10          1           0        0.509044    1.365412    1.027058
     11          1           0        0.301088    1.010982   -0.757848
     12          1           0        2.241852   -0.811389    0.900460
     13          1           0        2.782258    0.552833   -0.069093
     14          1           0        2.162298   -0.658949   -0.846503
 ---------------------------------------------------------------------

 SCF Done:  E(RB2PLYPD3) =  -158.004485555     A.U. after   11 cycles
 E2(B2PLYPD3) =    -0.2484596501D+00 E(B2PLYPD3) =    -0.15825294520489D+03

 The electronic state is 1-A.
 Alpha  occ. eigenvalues --  -10.61846 -10.61416 -10.60353 -10.59619  -0.90965
 Alpha  occ. eigenvalues --   -0.83237  -0.73947  -0.66640  -0.54320  -0.49172
 Alpha  occ. eigenvalues --   -0.47594  -0.46755  -0.42707  -0.41429  -0.39301
 Alpha  occ. eigenvalues --   -0.37302  -0.35818
 Alpha virt. eigenvalues --    0.05502   0.06470   0.07935   0.08763   0.10648
 Alpha virt. eigenvalues --    0.11646   0.12611   0.13890   0.14350   0.14991
 Alpha virt. eigenvalues --    0.15539   0.16379   0.18815   0.20298   0.21647

 Mulliken charges:
               1
     1  C   -0.167616
     2  C   -0.027406
     3  H    0.038543
     4  H    0.022889
     5  H    0.060829
     6  C   -0.140222
     7  H    0.031015
     8  H    0.041804
     9  C   -0.135171
    10  H    0.017618
    11  H    0.122698
    12  H    0.040505
    13  H    0.028998
    14  H    0.065515
 Sum of Mulliken charges =   0.00000

 Dipole moment (field-independent basis, Debye):
    X=              0.2293    Y=             -0.1052    Z=              0.0126  Tot=              0.2526
 Quadrupole moment (field-independent basis, Debye-Ang):
   XX=            -30.1729   YY=            -29.0804   ZZ=            -27.9722
   XY=              0.3240   XZ=             -0.5390   YZ=             -0.4198

 Normal termination of Gaussian 09 at Wed Aug 26 10:04:55 2020.
