 Gaussian 09, Revision D.01,
 Gaussian 09:  ES64L-G09RevD.01 24-Apr-2013

 --------------------
 #p B2PLYPD3/Def2QZVP
 --------------------

 ----------
 butane_opt
 ----------
 Symbolic Z-matrix:
 Charge =  0 Multiplicity = 1

                         Standard orientation:
 ---------------------------------------------------------------------
 Center     Atomic      Atomic             Coordinates (Angstroms)
 Number     Number       Type             X           Y           Z
 ---------------------------------------------------------------------
      1          6           0       -2.045022   -0.147316   -0.044555
      2          6           0       -0.516168    0.535779    0.002356
      3          1           0       -2.904673    0.610352   -0.194951
      4          1           0       -2.200118   -0.759168    0.847535
      5          1           0       -2.324377   -0.966401   -0.822110
      6          6           0        0.672274   -0.466451    0.220501
      7          1           0       -0.430968    1.568729    0.863635
      8          1           0       -0.632570    1.079456   -0.981538
      9          6           0        1.915309    0.072667   -0.141043
     10          1           0        0.591853   -1.002264   -0.399125
     11          1           0        0.625026   -1.189722    1.189215
     12          1           0        1.710838    0.317834   -0.869354
     13          1           0        2.753023   -0.841553   -0.691344
     14          1           0        2.653608    1.214659    0.834485
 ---------------------------------------------------------------------

 SCF Done:  E(RB2PLYPD3) =  -157.735637181     A.U. after   12 cycles
 E2(B2PLYPD3) =    -0.2544581128D+00 E(B2PLYPD3) =    -0.15799009529417D+03

 The electronic state is 1-A.
 Alpha  occ. eigenvalues --  -10.65940 -10.63574 -10.62870 -10.60265  -0.96677
 Alpha  occ. eigenvalues --   -0.82820  -0.73939  -0.68284  -0.54853  -0.50669
 Alpha  occ. eigenvalues --   -0.48230  -0.44264  -0.43630  -0.39531  -0.38460
 Alpha  occ. eigenvalues --   -0.36665  -0.34301
 Alpha virt. eigenvalues --    0.02395   0.05525   0.06938   0.07326   0.08259
 Alpha virt. eigenvalues --    0.10907   0.11921   0.12587   0.13608   0.14867
 Alpha virt. eigenvalues --    0.15194   0.16528   0.18560   0.19085   0.19836

 Mulliken charges:
               1
     1  C   -0.144062
     2  C   -0.057467
     3  H    0.050362
     4  H    0.050895
     5  H    0.026939
     6  C   -0.231397
     7  H    0.018401
     8  H    0.032460
     9  C   -0.402694
    10  H    0.269099
    11  H    0.041019
    12  H    0.322424
    13  H    0.019673
    14  H    0.004347
 Sum of Mulliken charges =   0.00000

 Dipole moment (field-independent basis, Debye):
    X=             -0.7011    Y=             -0.5674    Z=             -0.8276  Tot=              1.2241
 Quadrupole moment (field-independent basis, Debye-Ang):
   XX=            -31.9154   YY=            -29.2065   ZZ=            -29.0907
   XY=             -0.6296   XZ=             -0.3270   YZ=              0.1094

 Normal termination of Gaussian 09 at Wed Aug 26 14:06:36 2020.
