 Gaussian 09, Revision D.01,
 Gaussian 09:  ES64L-G09RevD.01 24-Apr-2013

 --------------------
 #p B2PLYPD3/Def2QZVP
 --------------------

 ----------
 butane_opt
 ----------
 Symbolic Z-matrix:
 Charge =  0 Multiplicity = 1

                         Standard orientation:
 ---------------------------------------------------------------------
 Center     Atomic      Atomic             Coordinates (Angstroms)
 Number     Number       Type             X           Y           Z
 ---------------------------------------------------------------------
      1          6           0       -1.869330   -0.031306    0.117765
      2          6           0       -0.676284    0.456499   -0.183666
      3          1           0       -2.630425    0.625723    0.131511
      4          1           0       -2.131405   -0.683495    1.165590
      5          1           0       -1.893420   -0.594630   -0.743891
      6          6           0        0.503622   -0.626030    0.069640
      7          1           0       -0.370103    0.951834    0.344304
      8          1           0       -0.710779    1.235371   -1.239866
      9          6           0        1.952074    0.138185    0.035291
     10          1           0        0.391150   -1.289079   -0.795093
     11          1           0        0.347269   -1.017473    0.801033
     12          1           0        2.004037    0.290211   -0.517382
     13          1           0        2.780139   -0.613856   -0.605291
     14          1           0        2.753052    1.471305    1.224899
 ---------------------------------------------------------------------

 SCF Done:  E(RB2PLYPD3) =  -157.088167460     A.U. after   13 cycles
 E2(B2PLYPD3) =    -0.2574543748D+00 E(B2PLYPD3) =    -0.15734562183519D+03

 The electronic state is 1-A.
 Alpha  occ. eigenvalues --  -10.65373 -10.61099 -10.58711 -10.58355  -0.96471
 Alpha  occ. eigenvalues --   -0.90897  -0.79983  -0.71823  -0.57880  -0.52497
 Alpha  occ. eigenvalues --   -0.49333  -0.47278  -0.43905  -0.40065  -0.36677
 Alpha  occ. eigenvalues --   -0.35341  -0.33545
 Alpha virt. eigenvalues --   -0.03384   0.04838   0.06480   0.06914   0.09623
 Alpha virt. eigenvalues --    0.11067   0.12306   0.12756   0.14484   0.15460
 Alpha virt. eigenvalues --    0.15828   0.16707   0.18206   0.18811   0.20210

 Mulliken charges:
               1
     1  C   -0.110854
     2  C   -0.335808
     3  H    0.049850
     4  H    0.016059
     5  H    0.052866
     6  C   -0.093803
     7  H    0.295911
     8  H    0.011859
     9  C   -0.891435
    10  H    0.039745
    11  H    0.175969
    12  H    0.735141
    13  H    0.029383
    14  H    0.025118
 Sum of Mulliken charges =   0.00000

 Dipole moment (field-independent basis, Debye):
    X=             -0.7159    Y=              0.0523    Z=             -0.5107  Tot=              0.8809
 Quadrupole moment (field-independent basis, Debye-Ang):
   XX=            -31.2486   YY=            -29.0745   ZZ=            -27.8824
   XY=             -0.0414   XZ=             -1.7002   YZ=              0.6638

 Normal termination of Gaussian 09 at Wed Aug 26 23:33:52 2020.
