 Gaussian 09, Revision D.01,
 Gaussian 09:  ES64L-G09RevD.01 24-Apr-2013

 --------------------
 #p B2PLYPD3/Def2QZVP
 --------------------

 ----------
 butane_opt
 ----------
 Symbolic Z-matrix:
 Charge =  0 Multiplicity = 1

                         Standard orientation:
 ---------------------------------------------------------------------
 Center     Atomic      Atomic             Coordinates (Angstroms)
 Number     Number       Type             X           Y           Z
 ---------------------------------------------------------------------
      1          6           0       -1.868938    0.084090    0.064268
      2          6           0       -0.580456   -0.481941   -0.030464
      3          1           0       -2.725306   -0.710891   -0.443282
      4          1           0       -1.899626    0.209251   -0.445510
      5          1           0       -2.262077    1.246589    1.241822
      6          6           0        0.539486    0.527477   -0.135008
      7          1           0       -0.527748   -1.175534   -0.907647
      8          1           0       -0.504168   -1.147048    0.885706
      9          6           0        1.939429   -0.110696    0.060498
     10          1           0        0.433750    1.142429    0.609641
     11          1           0        0.237784    1.336571   -1.124609
     12          1           0        2.263404   -0.980184    1.146894
     13          1           0        2.712557    0.654277   -0.028642
     14          1           0        2.094305   -0.689040   -0.690136
 ---------------------------------------------------------------------

 SCF Done:  E(RB2PLYPD3) =  -157.096814204     A.U. after   13 cycles
 E2(B2PLYPD3) =    -0.2554595341D+00 E(B2PLYPD3) =    -0.15735227373783D+03

 The electronic state is 1-A.
 Alpha  occ. eigenvalues --  -10.64028 -10.62193 -10.62145 -10.61204  -0.97846
 Alpha  occ. eigenvalues --   -0.87601  -0.76147  -0.68226  -0.55025  -0.50022
 Alpha  occ. eigenvalues --   -0.48744  -0.45378  -0.42096  -0.40161  -0.38405
 Alpha  occ. eigenvalues --   -0.36227  -0.34976
 Alpha virt. eigenvalues --    0.01403   0.04624   0.05142   0.07114   0.09921
 Alpha virt. eigenvalues --    0.10716   0.11836   0.12539   0.13821   0.15103
 Alpha virt. eigenvalues --    0.15970   0.16059   0.18455   0.19188   0.20659

 Mulliken charges:
               1
     1  C   -0.981505
     2  C    0.070717
     3  H    0.045388
     4  H    0.780137
     5  H    0.035115
     6  C   -0.068109
     7  H    0.020265
     8  H    0.036300
     9  C   -0.162839
    10  H    0.074617
    11  H    0.003589
    12  H    0.023669
    13  H    0.050959
    14  H    0.071698
 Sum of Mulliken charges =   0.00000

 Dipole moment (field-independent basis, Debye):
    X=              0.3674    Y=              0.0747    Z=             -0.6683  Tot=              0.7663
 Quadrupole moment (field-independent basis, Debye-Ang):
   XX=            -30.8376   YY=            -28.9737   ZZ=            -28.4911
   XY=             -0.1118   XZ=              0.9204   YZ=              0.8784

 Normal termination of Gaussian 09 at Wed Aug 26 21:03:14 2020.
