 Gaussian 09, Revision D.01,
 Gaussian 09:  ES64L-G09RevD.01 24-Apr-2013

 --------------------
 #p B2PLYPD3/Def2QZVP
 --------------------

 ----------
 butane_opt
 ----------
 Symbolic Z-matrix:
 Charge =  0 Multiplicity = 1

                         Standard orientation:
 ---------------------------------------------------------------------
 Center     Atomic      Atomic             Coordinates (Angstroms)
 Number     Number       Type             X           Y           Z
 ---------------------------------------------------------------------
      1          6           0        1.965188   -0.056827    0.095070
      2          6           0        0.619034    0.410158   -0.253112
      3          1           0        2.832947    0.734084   -0.182435
      4          1           0        1.972868   -0.320069   -0.456101
      5          1           0        2.081894   -0.870922    1.343715
      6          6           0       -0.569682   -0.608256    0.016437
      7          1           0        0.840596    0.907889   -1.186997
      8          1           0        0.655912    1.200887    0.665453
      9          6           0       -2.034941    0.217983    0.111345
     10          1           0       -0.258623   -1.183164    1.001606
     11          1           0       -0.481100   -1.376291   -0.849697
     12          1           0       -2.643328    1.611491    1.010322
     13          1           0       -2.967726   -0.864193   -0.672971
     14          1           0       -1.911034    0.381939   -0.491333
 ---------------------------------------------------------------------

 SCF Done:  E(RB2PLYPD3) =  -156.954858734     A.U. after   13 cycles
 E2(B2PLYPD3) =    -0.2639695165D+00 E(B2PLYPD3) =    -0.15721882825061D+03

 The electronic state is 1-A.
 Alpha  occ. eigenvalues --  -10.66517 -10.66359 -10.62736 -10.60743  -0.96576
 Alpha  occ. eigenvalues --   -0.89869  -0.76782  -0.66910  -0.54848  -0.49338
 Alpha  occ. eigenvalues --   -0.47221  -0.44987  -0.40169  -0.39853  -0.38204
 Alpha  occ. eigenvalues --   -0.33705  -0.33676
 Alpha virt. eigenvalues --   -0.03230   0.03505   0.04657   0.06507   0.09034
 Alpha virt. eigenvalues --    0.09108   0.10537   0.11894   0.13394   0.14476
 Alpha virt. eigenvalues --    0.15597   0.15920   0.16919   0.18040   0.19848

 Mulliken charges:
               1
     1  C   -0.858463
     2  C   -0.007030
     3  H    0.081398
     4  H    0.666274
     5  H    0.036062
     6  C   -0.021327
     7  H    0.047647
     8  H    0.028665
     9  C   -0.811547
    10  H    0.043089
    11  H    0.048049
    12  H    0.085944
    13  H   -0.023427
    14  H    0.684666
 Sum of Mulliken charges =   0.00000

 Dipole moment (field-independent basis, Debye):
    X=              0.8859    Y=              0.4044    Z=             -0.8267  Tot=              1.2774
 Quadrupole moment (field-independent basis, Debye-Ang):
   XX=            -33.6062   YY=            -29.0428   ZZ=            -28.2223
   XY=             -1.4424   XZ=             -0.7778   YZ=              0.6276

 Normal termination of Gaussian 09 at Wed Aug 26 16:31:11 2020.
