 Gaussian 09, Revision D.01,
 Gaussian 09:  ES64L-G09RevD.01 24-Apr-2013

 --------------------
 #p B2PLYPD3/Def2QZVP
 --------------------

 ----------
 butane_opt
 ----------
 Symbolic Z-matrix:
 Charge =  0 Multiplicity = 1

                         Standard orientation:
 ---------------------------------------------------------------------
 Center     Atomic      Atomic             Coordinates (Angstroms)
 Number     Number       Type             X           Y           Z
 ---------------------------------------------------------------------
      1          6           0        1.882368    0.069797    0.126953
      2          6           0        0.617915   -0.395147   -0.147056
      3          1           0        2.621582   -0.659588   -0.079319
      4          1           0        1.479491    1.038786    1.271104
      5          1           0        2.107262    0.104995   -0.322677
      6          6           0       -0.496472    0.506239   -0.197798
      7          1           0        0.395380   -1.033822    0.754470
      8          1           0        0.739243   -0.949545   -0.901774
      9          6           0       -1.995203   -0.115123    0.078904
     10          1           0       -0.146436    1.309666   -1.050827
     11          1           0       -0.124505    0.972727    0.506437
     12          1           0       -2.394837   -0.760928   -0.669689
     13          1           0       -2.774700    0.531062    0.317510
     14          1           0       -1.954131   -0.947951    1.008748
 ---------------------------------------------------------------------

 SCF Done:  E(RB2PLYPD3) =  -156.958346709     A.U. after   12 cycles
 E2(B2PLYPD3) =    -0.2544390547D+00 E(B2PLYPD3) =    -0.15721278576398D+03

 The electronic state is 1-A.
 Alpha  occ. eigenvalues --  -10.62748 -10.62353 -10.60349 -10.57311  -1.01197
 Alpha  occ. eigenvalues --   -0.89621  -0.78572  -0.70093  -0.58489  -0.52430
 Alpha  occ. eigenvalues --   -0.48451  -0.45519  -0.42227  -0.41720  -0.38937
 Alpha  occ. eigenvalues --   -0.36790  -0.33439
 Alpha virt. eigenvalues --    0.03105   0.05601   0.06264   0.08379   0.10138
 Alpha virt. eigenvalues --    0.11376   0.12881   0.13879   0.14345   0.14823
 Alpha virt. eigenvalues --    0.15876   0.16672   0.18620   0.20095   0.21883

 Mulliken charges:
               1
     1  C   -0.930992
     2  C    0.092391
     3  H    0.005931
     4  H    0.041416
     5  H    0.749890
     6  C   -0.122179
     7  H    0.019128
     8  H    0.011691
     9  C   -0.122456
    10  H    0.008095
    11  H    0.121424
    12  H    0.044009
    13  H    0.062235
    14  H    0.019417
 Sum of Mulliken charges =   0.00000

 Dipole moment (field-independent basis, Debye):
    X=              0.0424    Y=             -0.3100    Z=             -0.5104  Tot=              0.5987
 Quadrupole moment (field-independent basis, Debye-Ang):
   XX=            -27.3967   YY=            -29.6047   ZZ=            -28.6421
   XY=             -0.5944   XZ=             -2.3221   YZ=              0.9382

 Normal termination of Gaussian 09 at Wed Aug 26 15:56:22 2020.
