 Gaussian 09, Revision D.01,
 Gaussian 09:  ES64L-G09RevD.01 24-Apr-2013

 --------------------
 #p B2PLYPD3/Def2QZVP
 --------------------

 ----------
 butane_opt
 ----------
 Symbolic Z-matrix:
 Charge =  0 Multiplicity = 1

                         Standard orientation:
 ---------------------------------------------------------------------
 Center     Atomic      Atomic             Coordinates (Angstroms)
 Number     Number       Type             X           Y           Z
 ---------------------------------------------------------------------
      1          6           0       -1.950678   -0.186605   -0.176773
      2          6           0       -0.492607    0.581480    0.098605
      3          1           0       -2.817920    0.590649   -0.124748
      4          1           0       -2.120196   -0.512475    0.665173
      5          1           0       -1.869628   -0.958356   -0.873271
      6          6           0        0.551044   -0.383407    0.286944
      7          1           0       -0.507975    1.210747    0.791858
      8          1           0       -0.066225    0.897521   -0.829914
      9          6           0        1.888630    0.026464   -0.206982
     10          1           0        0.376388   -0.879000   -0.322532
     11          1           0        0.574609   -1.219166    1.515675
     12          1           0        1.497741    0.255296   -1.004758
     13          1           0        2.669818   -0.709036   -0.635579
     14          1           0        2.285056    1.096225    0.807339
 ---------------------------------------------------------------------

 SCF Done:  E(RB2PLYPD3) =  -157.766229657     A.U. after   11 cycles
 E2(B2PLYPD3) =    -0.2518713408D+00 E(B2PLYPD3) =    -0.15801810099796D+03

 The electronic state is 1-A.
 Alpha  occ. eigenvalues --  -10.62976 -10.60266 -10.59694 -10.59604  -0.97940
 Alpha  occ. eigenvalues --   -0.85105  -0.76395  -0.69571  -0.57012  -0.51411
 Alpha  occ. eigenvalues --   -0.50400  -0.47365  -0.45376  -0.40753  -0.39247
 Alpha  occ. eigenvalues --   -0.35695  -0.33936
 Alpha virt. eigenvalues --    0.03852   0.06360   0.06764   0.08305   0.09965
 Alpha virt. eigenvalues --    0.10854   0.12114   0.13328   0.14592   0.14957
 Alpha virt. eigenvalues --    0.15957   0.16852   0.18133   0.19477   0.20946

 Mulliken charges:
               1
     1  C   -0.202925
     2  C   -0.062408
     3  H    0.035242
     4  H    0.106391
     5  H    0.060265
     6  C   -0.303166
     7  H    0.074826
     8  H    0.047817
     9  C   -0.209607
    10  H    0.301590
    11  H   -0.036370
    12  H    0.115950
    13  H    0.062051
    14  H    0.010344
 Sum of Mulliken charges =   0.00000

 Dipole moment (field-independent basis, Debye):
    X=             -0.4951    Y=             -0.1889    Z=             -0.7772  Tot=              0.9406
 Quadrupole moment (field-independent basis, Debye-Ang):
   XX=            -30.3714   YY=            -29.8667   ZZ=            -28.5510
   XY=             -0.9647   XZ=             -2.0671   YZ=              2.1483

 Normal termination of Gaussian 09 at Wed Aug 26 21:01:19 2020.
