 Gaussian 09, Revision D.01,
 Gaussian 09:  ES64L-G09RevD.01 24-Apr-2013

 --------------------
 #p B2PLYPD3/Def2QZVP
 --------------------

 ----------
 butane_opt
 ----------
 Symbolic Z-matrix:
 Charge =  0 Multiplicity = 1

                         Standard orientation:
 ---------------------------------------------------------------------
 Center     Atomic      Atomic             Coordinates (Angstroms)
 Number     Number       Type             X           Y           Z
 ---------------------------------------------------------------------
      1          6           0        1.932554    0.033734   -0.197972
      2          6           0        0.655984   -0.400880    0.219778
      3          1           0        2.791693   -0.750676    0.132682
      4          1           0        2.207733    0.680414    0.476318
      5          1           0        1.967901    0.602364   -1.244025
      6          6           0       -0.577724    0.571799    0.083794
      7          1           0        0.625574   -0.918728    1.179778
      8          1           0        0.423570   -0.942794   -0.420175
      9          6           0       -2.053346   -0.193542   -0.175811
     10          1           0       -0.107397    0.755522   -0.467321
     11          1           0       -0.716034    1.774066    1.214936
     12          1           0       -1.896644   -0.837546   -0.794438
     13          1           0       -2.638164    0.434898   -0.678291
     14          1           0       -2.403040   -0.864185    1.021798
 ---------------------------------------------------------------------

 SCF Done:  E(RB2PLYPD3) =  -157.659384262     A.U. after   12 cycles
 E2(B2PLYPD3) =    -0.2525832947D+00 E(B2PLYPD3) =    -0.15791196755649D+03

 The electronic state is 1-A.
 Alpha  occ. eigenvalues --  -10.62463 -10.62207 -10.60687 -10.58425  -0.96880
 Alpha  occ. eigenvalues --   -0.85022  -0.78486  -0.70045  -0.55991  -0.50711
 Alpha  occ. eigenvalues --   -0.50071  -0.46770  -0.44281  -0.41527  -0.39986
 Alpha  occ. eigenvalues --   -0.34303  -0.33339
 Alpha virt. eigenvalues --    0.03577   0.05844   0.06265   0.08362   0.10343
 Alpha virt. eigenvalues --    0.10902   0.12367   0.12733   0.13641   0.15164
 Alpha virt. eigenvalues --    0.15583   0.16314   0.17982   0.18843   0.20569

 Mulliken charges:
               1
     1  C   -0.163560
     2  C   -0.166567
     3  H    0.043776
     4  H    0.072270
     5  H    0.042112
     6  C   -0.445638
     7  H    0.036566
     8  H    0.164439
     9  C   -0.186049
    10  H    0.414062
    11  H   -0.038809
    12  H    0.106322
    13  H    0.074685
    14  H    0.046390
 Sum of Mulliken charges =   0.00000

 Dipole moment (field-independent basis, Debye):
    X=              0.3531    Y=             -0.8256    Z=             -0.7635  Tot=              1.1787
 Quadrupole moment (field-independent basis, Debye-Ang):
   XX=            -28.9000   YY=            -30.4948   ZZ=            -28.1577
   XY=              0.6494   XZ=              1.7075   YZ=             -0.9859

 Normal termination of Gaussian 09 at Wed Aug 26 16:28:06 2020.
