 Gaussian 09, Revision D.01,
 Gaussian 09:  ES64L-G09RevD.01 24-Apr-2013

 --------------------
 #p B2PLYPD3/Def2QZVP
 --------------------

 ----------
 butane_opt
 ----------
 Symbolic Z-matrix:
 Charge =  0 Multiplicity = 1

                         Standard orientation:
 ---------------------------------------------------------------------
 Center     Atomic      Atomic             Coordinates (Angstroms)
 Number     Number       Type             X           Y           Z
 ---------------------------------------------------------------------
      1          6           0        1.932054   -0.153971   -0.054896
      2          6           0        0.511158    0.554028   -0.020269
      3          1           0        2.713327    0.624483    0.269376
      4          1           0        2.325238   -0.939179   -0.965413
      5          1           0        2.050718   -0.610205    0.760781
      6          6           0       -0.585891   -0.464053    0.105808
      7          1           0        0.371245    1.016358   -0.858399
      8          1           0        0.423185    1.320874    0.824961
      9          6           0       -1.893057    0.085125   -0.065721
     10          1           0       -0.590069   -1.187251    1.039831
     11          1           0       -0.486913   -1.011628   -0.613587
     12          1           0       -2.006149    0.752109    0.740424
     13          1           0       -2.568381   -0.644986   -0.099863
     14          1           0       -2.017783    0.552650   -0.887636
 ---------------------------------------------------------------------

 SCF Done:  E(RB2PLYPD3) =  -157.997585176     A.U. after   11 cycles
 E2(B2PLYPD3) =    -0.2457923438D+00 E(B2PLYPD3) =    -0.15824337752008D+03

 The electronic state is 1-A.
 Alpha  occ. eigenvalues --  -10.60431 -10.60048 -10.57510 -10.55455  -0.93841
 Alpha  occ. eigenvalues --   -0.84597  -0.74725  -0.68800  -0.56233  -0.51380
 Alpha  occ. eigenvalues --   -0.49118  -0.47377  -0.42875  -0.41649  -0.39399
 Alpha  occ. eigenvalues --   -0.38251  -0.37021
 Alpha virt. eigenvalues --    0.05869   0.06780   0.08260   0.08828   0.11138
 Alpha virt. eigenvalues --    0.11932   0.12994   0.13887   0.15410   0.15552
 Alpha virt. eigenvalues --    0.15741   0.16719   0.19626   0.20269   0.21629

 Mulliken charges:
               1
     1  C   -0.182401
     2  C   -0.040561
     3  H    0.022629
     4  H    0.040047
     5  H    0.077046
     6  C   -0.077551
     7  H    0.068686
     8  H    0.015930
     9  C   -0.117152
    10  H    0.009454
    11  H    0.079027
    12  H    0.036138
    13  H    0.034525
    14  H    0.034183
 Sum of Mulliken charges =   0.00000

 Dipole moment (field-independent basis, Debye):
    X=             -0.2033    Y=             -0.1097    Z=             -0.1062  Tot=              0.2543
 Quadrupole moment (field-independent basis, Debye-Ang):
   XX=            -29.6771   YY=            -28.4188   ZZ=            -27.6603
   XY=              0.0571   XZ=              1.0816   YZ=              0.5085

 Normal termination of Gaussian 09 at Wed Aug 26 12:16:39 2020.
