 Gaussian 09, Revision D.01,
 Gaussian 09:  ES64L-G09RevD.01 24-Apr-2013

 --------------------
 #p B2PLYPD3/Def2QZVP
 --------------------

 ----------
 butane_opt
 ----------
 Symbolic Z-matrix:
 Charge =  0 Multiplicity = 1

                         Standard orientation:
 ---------------------------------------------------------------------
 Center     Atomic      Atomic             Coordinates (Angstroms)
 Number     Number       Type             X           Y           Z
 ---------------------------------------------------------------------
      1          6           0        2.035648    0.117824    0.056122
      2          6           0        0.545276   -0.558085   -0.074771
      3          1           0        2.586325   -0.458201   -0.465196
      4          1           0        2.277830    1.288107    1.270238
      5          1           0        2.182136    0.314825   -0.515169
      6          6           0       -0.645664    0.473555   -0.160679
      7          1           0        0.348999   -1.330925    0.991109
      8          1           0        0.565474   -1.219000   -0.712247
      9          6           0       -1.987176   -0.080735    0.108916
     10          1           0       -0.523177    1.103901   -1.095383
     11          1           0       -0.191889    1.181909    0.689397
     12          1           0       -1.863591   -0.482306   -0.641676
     13          1           0       -2.829255    0.634042   -0.186840
     14          1           0       -2.241361   -0.747702    1.088239
 ---------------------------------------------------------------------

 SCF Done:  E(RB2PLYPD3) =  -157.365328211     A.U. after   12 cycles
 E2(B2PLYPD3) =    -0.2553343267D+00 E(B2PLYPD3) =    -0.15762066253736D+03

 The electronic state is 1-A.
 Alpha  occ. eigenvalues --  -10.62716 -10.62593 -10.60770 -10.58918  -0.97895
 Alpha  occ. eigenvalues --   -0.91414  -0.78841  -0.67222  -0.54072  -0.50085
 Alpha  occ. eigenvalues --   -0.48995  -0.45613  -0.41221  -0.39426  -0.37925
 Alpha  occ. eigenvalues --   -0.35261  -0.34872
 Alpha virt. eigenvalues --    0.00760   0.05892   0.06776   0.07696   0.10049
 Alpha virt. eigenvalues --    0.10559   0.12537   0.12926   0.14316   0.15530
 Alpha virt. eigenvalues --    0.16068   0.17549   0.18154   0.19197   0.19886

 Mulliken charges:
               1
     1  C   -0.749018
     2  C   -0.059462
     3  H    0.025284
     4  H    0.060487
     5  H    0.638235
     6  C   -0.035755
     7  H    0.005804
     8  H    0.073397
     9  C   -0.292492
    10  H    0.033487
    11  H    0.007051
    12  H    0.184427
    13  H    0.043341
    14  H    0.065214
 Sum of Mulliken charges =   0.00000

 Dipole moment (field-independent basis, Debye):
    X=              0.0165    Y=             -0.0567    Z=             -1.2423  Tot=              1.2437
 Quadrupole moment (field-independent basis, Debye-Ang):
   XX=            -29.5526   YY=            -29.5211   ZZ=            -27.5747
   XY=              0.6046   XZ=             -2.0739   YZ=              0.6603

 Normal termination of Gaussian 09 at Wed Aug 26 22:59:46 2020.
