 Gaussian 09, Revision D.01,
 Gaussian 09:  ES64L-G09RevD.01 24-Apr-2013

 --------------------
 #p B2PLYPD3/Def2QZVP
 --------------------

 ----------
 butane_opt
 ----------
 Symbolic Z-matrix:
 Charge =  0 Multiplicity = 1

                         Standard orientation:
 ---------------------------------------------------------------------
 Center     Atomic      Atomic             Coordinates (Angstroms)
 Number     Number       Type             X           Y           Z
 ---------------------------------------------------------------------
      1          6           0        1.873418   -0.167162   -0.131518
      2          6           0        0.491449    0.586559    0.149450
      3          1           0        2.545332    0.420197   -0.505949
      4          1           0        1.722209   -0.590056   -0.853202
      5          1           0        2.664342   -0.684583    0.688290
      6          6           0       -0.550862   -0.455983    0.144693
      7          1           0        0.355793    0.895792   -0.590325
      8          1           0        0.402370    1.380468    1.161963
      9          6           0       -1.883754    0.051677   -0.153238
     10          1           0       -0.571348   -1.208671    1.233262
     11          1           0       -0.069014   -0.904724   -0.493906
     12          1           0       -2.223257    0.667150    0.794443
     13          1           0       -2.671926   -0.788819   -0.318767
     14          1           0       -1.736009    0.722695   -1.172130
 ---------------------------------------------------------------------

 SCF Done:  E(RB2PLYPD3) =  -157.827182670     A.U. after   11 cycles
 E2(B2PLYPD3) =    -0.2496831020D+00 E(B2PLYPD3) =    -0.15807686577191D+03

 The electronic state is 1-A.
 Alpha  occ. eigenvalues --  -10.62998 -10.60137 -10.59732 -10.57919  -0.96400
 Alpha  occ. eigenvalues --   -0.85144  -0.76155  -0.67998  -0.55716  -0.50728
 Alpha  occ. eigenvalues --   -0.49507  -0.47458  -0.43074  -0.40722  -0.39511
 Alpha  occ. eigenvalues --   -0.36522  -0.36219
 Alpha virt. eigenvalues --    0.05297   0.06607   0.07583   0.08532   0.10760
 Alpha virt. eigenvalues --    0.11450   0.12615   0.12963   0.15090   0.15652
 Alpha virt. eigenvalues --    0.16061   0.16984   0.18678   0.19316   0.21648

 Mulliken charges:
               1
     1  C   -0.240062
     2  C   -0.290893
     3  H    0.039836
     4  H    0.131561
     5  H    0.045693
     6  C   -0.061642
     7  H    0.272629
     8  H    0.025244
     9  C   -0.148324
    10  H   -0.009125
    11  H    0.098344
    12  H    0.057265
    13  H    0.052593
    14  H    0.026881
 Sum of Mulliken charges =   0.00000

 Dipole moment (field-independent basis, Debye):
    X=              0.2510    Y=              0.0759    Z=             -0.6848  Tot=              0.7333
 Quadrupole moment (field-independent basis, Debye-Ang):
   XX=            -28.7772   YY=            -30.2594   ZZ=            -27.9739
   XY=              0.2784   XZ=             -1.0235   YZ=              0.2219

 Normal termination of Gaussian 09 at Wed Aug 26 11:19:59 2020.
