 Gaussian 09, Revision D.01,
 Gaussian 09:  ES64L-G09RevD.01 24-Apr-2013

 --------------------
 #p B2PLYPD3/Def2QZVP
 --------------------

 ----------
 butane_opt
 ----------
 Symbolic Z-matrix:
 Charge =  0 Multiplicity = 1

                         Standard orientation:
 ---------------------------------------------------------------------
 Center     Atomic      Atomic             Coordinates (Angstroms)
 Number     Number       Type             X           Y           Z
 ---------------------------------------------------------------------
      1          6           0       -1.932161   -0.061446    0.206633
      2          6           0       -0.670421    0.366992   -0.295440
      3          1           0       -2.789428    0.774873   -0.056412
      4          1           0       -2.006775   -0.651647    1.388337
      5          1           0       -2.190975   -0.470559   -0.324107
      6          6           0        0.543739   -0.591584   -0.054016
      7          1           0       -0.734375    1.153203    0.355444
      8          1           0       -0.856349    0.958338   -1.482077
      9          6           0        2.059896    0.179644    0.047835
     10          1           0        0.324628   -1.326895   -0.874818
     11          1           0        0.572169   -1.129376    1.043780
     12          1           0        2.154035    0.074650   -0.486255
     13          1           0        3.001749   -0.586738   -0.201899
     14          1           0        2.519005    1.842514    1.207934
 ---------------------------------------------------------------------

 SCF Done:  E(RB2PLYPD3) =  -156.889821894     A.U. after   14 cycles
 E2(B2PLYPD3) =    -0.2644368476D+00 E(B2PLYPD3) =    -0.15715425874195D+03

 The electronic state is 1-A.
 Alpha  occ. eigenvalues --  -10.66050 -10.65865 -10.61996 -10.59105  -0.94746
 Alpha  occ. eigenvalues --   -0.92193  -0.78349  -0.68444  -0.53797  -0.49471
 Alpha  occ. eigenvalues --   -0.47265  -0.45679  -0.39952  -0.37848  -0.37445
 Alpha  occ. eigenvalues --   -0.35753  -0.32218
 Alpha virt. eigenvalues --   -0.05834   0.05059   0.05261   0.06040   0.08928
 Alpha virt. eigenvalues --    0.10069   0.11558   0.12097   0.13943   0.15005
 Alpha virt. eigenvalues --    0.15685   0.16377   0.18413   0.18895   0.20396

 Mulliken charges:
               1
     1  C   -0.539407
     2  C   -0.019207
     3  H    0.039409
     4  H    0.056796
     5  H    0.392506
     6  C   -0.074408
     7  H    0.079856
     8  H    0.004599
     9  C   -0.965979
    10  H    0.067363
    11  H    0.045143
    12  H    0.829806
    13  H    0.041376
    14  H    0.042147
 Sum of Mulliken charges =   0.00000

 Dipole moment (field-independent basis, Debye):
    X=             -0.3744    Y=             -0.4405    Z=             -0.7630  Tot=              0.9573
 Quadrupole moment (field-independent basis, Debye-Ang):
   XX=            -30.2355   YY=            -29.4806   ZZ=            -28.4262
   XY=             -0.2473   XZ=             -0.6714   YZ=              1.0945

 Normal termination of Gaussian 09 at Wed Aug 26 22:51:40 2020.
