 Gaussian 09, Revision D.01,
 Gaussian 09:  ES64L-G09RevD.01 24-Apr-2013

 --------------------
 #p B2PLYPD3/Def2QZVP
 --------------------

 ----------
 butane_opt
 ----------
 Symbolic Z-matrix:
 Charge =  0 Multiplicity = 1

                         Standard orientation:
 ---------------------------------------------------------------------
 Center     Atomic      Atomic             Coordinates (Angstroms)
 Number     Number       Type             X           Y           Z
 ---------------------------------------------------------------------
      1          6           0        1.976859   -0.023694    0.058507
      2          6           0        0.587970    0.505891   -0.146369
      3          1           0        2.539445    0.437558   -0.028460
      4          1           0        2.487279   -0.740386   -0.678163
      5          1           0        1.999046   -0.680594    0.990636
      6          6           0       -0.566280   -0.570094    0.087771
      7          1           0        0.531913    0.957428   -1.151214
      8          1           0        0.372953    1.279892    0.694976
      9          6           0       -1.997922    0.139480    0.001622
     10          1           0       -0.143704   -1.111757    0.889141
     11          1           0       -0.574407   -1.124700   -0.626200
     12          1           0       -2.525862    1.199617    0.976036
     13          1           0       -2.716392   -0.701185   -0.513796
     14          1           0       -1.974031    0.174629   -0.562136
 ---------------------------------------------------------------------

 SCF Done:  E(RB2PLYPD3) =  -157.177607885     A.U. after   12 cycles
 E2(B2PLYPD3) =    -0.2516299301D+00 E(B2PLYPD3) =    -0.15742923781476D+03

 The electronic state is 1-A.
 Alpha  occ. eigenvalues --  -10.63084 -10.61589 -10.59523 -10.57138  -0.94972
 Alpha  occ. eigenvalues --   -0.89437  -0.80014  -0.69285  -0.55314  -0.52843
 Alpha  occ. eigenvalues --   -0.47462  -0.46109  -0.44322  -0.40095  -0.38911
 Alpha  occ. eigenvalues --   -0.37531  -0.34939
 Alpha virt. eigenvalues --    0.03882   0.06039   0.06819   0.08697   0.09484
 Alpha virt. eigenvalues --    0.11090   0.12582   0.14089   0.14583   0.15305
 Alpha virt. eigenvalues --    0.16326   0.16856   0.18721   0.19515   0.20948

 Mulliken charges:
               1
     1  C   -0.441776
     2  C   -0.006818
     3  H    0.310049
     4  H    0.014761
     5  H    0.045008
     6  C   -0.052410
     7  H    0.025854
     8  H    0.031725
     9  C   -0.966896
    10  H    0.046395
    11  H    0.097415
    12  H    0.080345
    13  H    0.026366
    14  H    0.789983
 Sum of Mulliken charges =   0.00000

 Dipole moment (field-independent basis, Debye):
    X=              0.3937    Y=              0.0780    Z=             -0.5039  Tot=              0.6442
 Quadrupole moment (field-independent basis, Debye-Ang):
   XX=            -29.1805   YY=            -28.8239   ZZ=            -27.6086
   XY=             -0.6298   XZ=              0.5969   YZ=              0.9543

 Normal termination of Gaussian 09 at Wed Aug 26 21:20:39 2020.
