 Gaussian 09, Revision D.01,
 Gaussian 09:  ES64L-G09RevD.01 24-Apr-2013

 --------------------
 #p B2PLYPD3/Def2QZVP
 --------------------

 ----------
 butane_opt
 ----------
 Symbolic Z-matrix:
 Charge =  0 Multiplicity = 1

                         Standard orientation:
 ---------------------------------------------------------------------
 Center     Atomic      Atomic             Coordinates (Angstroms)
 Number     Number       Type             X           Y           Z
 ---------------------------------------------------------------------
      1          6           0        2.049773   -0.198009    0.008473
      2          6           0        0.519437    0.662258    0.064887
      3          1           0        2.698047    0.488370   -0.618595
      4          1           0        1.853827   -0.280518   -0.488056
      5          1           0        2.555034   -1.303386    1.056569
      6          6           0       -0.645811   -0.516888   -0.036610
      7          1           0        0.599394    1.305573   -0.803283
      8          1           0        0.407749    1.186186    0.881309
      9          6           0       -1.898075    0.068475    0.038315
     10          1           0       -0.527805   -0.792564    0.657045
     11          1           0       -0.678230   -1.327268   -1.040728
     12          1           0       -2.541401    0.746190    1.000875
     13          1           0       -2.729467   -0.831609   -0.222191
     14          1           0       -1.789099    0.714017   -0.873337
 ---------------------------------------------------------------------

 SCF Done:  E(RB2PLYPD3) =  -157.011892460     A.U. after   12 cycles
 E2(B2PLYPD3) =    -0.2566886619D+00 E(B2PLYPD3) =    -0.15726858112174D+03

 The electronic state is 1-A.
 Alpha  occ. eigenvalues --  -10.63275 -10.63199 -10.62377 -10.59571  -0.95071
 Alpha  occ. eigenvalues --   -0.90801  -0.75375  -0.69722  -0.54762  -0.48695
 Alpha  occ. eigenvalues --   -0.48181  -0.46372  -0.43780  -0.40363  -0.37369
 Alpha  occ. eigenvalues --   -0.35641  -0.33752
 Alpha virt. eigenvalues --    0.02709   0.05071   0.06245   0.07190   0.09788
 Alpha virt. eigenvalues --    0.10729   0.11285   0.12214   0.13980   0.15103
 Alpha virt. eigenvalues --    0.16121   0.16947   0.17551   0.18485   0.19964

 Mulliken charges:
               1
     1  C   -1.028372
     2  C   -0.030600
     3  H    0.058719
     4  H    0.838727
     5  H    0.074027
     6  C   -0.422385
     7  H    0.028915
     8  H    0.082797
     9  C   -0.164800
    10  H    0.377628
    11  H    0.062737
    12  H    0.039622
    13  H    0.027408
    14  H    0.055577
 Sum of Mulliken charges =   0.00000

 Dipole moment (field-independent basis, Debye):
    X=             -0.2928    Y=             -0.1408    Z=             -0.2846  Tot=              0.4319
 Quadrupole moment (field-independent basis, Debye-Ang):
   XX=            -31.9905   YY=            -28.5329   ZZ=            -27.4504
   XY=             -0.0228   XZ=             -1.0321   YZ=             -0.6649

 Normal termination of Gaussian 09 at Wed Aug 26 13:44:38 2020.
