 Gaussian 09, Revision D.01,
 Gaussian 09:  ES64L-G09RevD.01 24-Apr-2013

 --------------------
 #p B2PLYPD3/Def2QZVP
 --------------------

 ----------
 butane_opt
 ----------
 Symbolic Z-matrix:
 Charge =  0 Multiplicity = 1

                         Standard orientation:
 ---------------------------------------------------------------------
 Center     Atomic      Atomic             Coordinates (Angstroms)
 Number     Number       Type             X           Y           Z
 ---------------------------------------------------------------------
      1          6           0        1.953256    0.195081   -0.096267
      2          6           0        0.562877   -0.562015   -0.007655
      3          1           0        2.673365   -0.323323   -0.519857
      4          1           0        2.212014    0.235230    0.811388
      5          1           0        1.783307    1.359558   -0.777002
      6          6           0       -0.623643    0.251810    0.444664
      7          1           0        0.413839   -1.452313    0.543317
      8          1           0        0.435371   -0.638267   -0.914055
      9          6           0       -1.923573   -0.013014   -0.216407
     10          1           0       -0.248959    1.214146   -0.133969
     11          1           0       -0.478883    0.490746    1.545769
     12          1           0       -1.566148   -0.287779   -1.277181
     13          1           0       -2.677892    0.967651   -0.386345
     14          1           0       -2.359520   -0.796825    0.361922
 ---------------------------------------------------------------------

 SCF Done:  E(RB2PLYPD3) =  -157.976636107     A.U. after   11 cycles
 E2(B2PLYPD3) =    -0.2499079630D+00 E(B2PLYPD3) =    -0.15822654407032D+03

 The electronic state is 1-A.
 Alpha  occ. eigenvalues --  -10.62094 -10.60794 -10.60166 -10.58123  -0.92676
 Alpha  occ. eigenvalues --   -0.83854  -0.74492  -0.65536  -0.56661  -0.50766
 Alpha  occ. eigenvalues --   -0.49129  -0.46821  -0.43791  -0.40606  -0.38252
 Alpha  occ. eigenvalues --   -0.37994  -0.33443
 Alpha virt. eigenvalues --    0.05286   0.06446   0.08027   0.08754   0.10654
 Alpha virt. eigenvalues --    0.11562   0.11911   0.13505   0.14282   0.15619
 Alpha virt. eigenvalues --    0.16073   0.16823   0.18165   0.19676   0.21715

 Mulliken charges:
               1
     1  C   -0.144479
     2  C   -0.122113
     3  H    0.053219
     4  H    0.068579
     5  H    0.023112
     6  C   -0.042614
     7  H    0.028568
     8  H    0.102256
     9  C   -0.159444
    10  H    0.004736
    11  H    0.031398
    12  H    0.050809
    13  H    0.047572
    14  H    0.058402
 Sum of Mulliken charges =   0.00000

 Dipole moment (field-independent basis, Debye):
    X=              0.2421    Y=             -0.3644    Z=             -0.0013  Tot=              0.4375
 Quadrupole moment (field-independent basis, Debye-Ang):
   XX=            -29.4950   YY=            -29.7647   ZZ=            -28.1217
   XY=             -0.5798   XZ=             -0.1634   YZ=             -1.0978

 Normal termination of Gaussian 09 at Wed Aug 26 14:54:35 2020.
