 Gaussian 09, Revision D.01,
 Gaussian 09:  ES64L-G09RevD.01 24-Apr-2013

 --------------------
 #p B2PLYPD3/Def2QZVP
 --------------------

 ----------
 butane_opt
 ----------
 Symbolic Z-matrix:
 Charge =  0 Multiplicity = 1

                         Standard orientation:
 ---------------------------------------------------------------------
 Center     Atomic      Atomic             Coordinates (Angstroms)
 Number     Number       Type             X           Y           Z
 ---------------------------------------------------------------------
      1          6           0        1.939436    0.089066   -0.202712
      2          6           0        0.627208   -0.446965    0.297467
      3          1           0        2.853606   -0.980543   -0.688616
      4          1           0        2.373606    1.071353    0.741304
      5          1           0        1.637459    0.224994   -0.873500
      6          6           0       -0.590544    0.677477    0.020980
      7          1           0        0.847556   -1.394797    1.599884
      8          1           0        0.255458   -0.834395   -0.472943
      9          6           0       -1.974734   -0.205043   -0.099484
     10          1           0       -0.305358    1.041681   -0.796523
     11          1           0       -0.416394    1.470691    0.792899
     12          1           0       -2.162954   -1.201830   -1.011025
     13          1           0       -2.529802    0.429662    0.026515
     14          1           0       -2.561367   -0.514025    0.584499
 ---------------------------------------------------------------------

 SCF Done:  E(RB2PLYPD3) =  -157.522404460     A.U. after   12 cycles
 E2(B2PLYPD3) =    -0.2583904095D+00 E(B2PLYPD3) =    -0.15778079486964D+03

 The electronic state is 1-A.
 Alpha  occ. eigenvalues --  -10.63752 -10.63590 -10.63146 -10.60229  -0.94417
 Alpha  occ. eigenvalues --   -0.88814  -0.78941  -0.67726  -0.54986  -0.49174
 Alpha  occ. eigenvalues --   -0.48836  -0.47518  -0.41970  -0.40806  -0.36974
 Alpha  occ. eigenvalues --   -0.34721  -0.31946
 Alpha virt. eigenvalues --    0.02581   0.05172   0.05203   0.07549   0.08715
 Alpha virt. eigenvalues --    0.09648   0.11396   0.12765   0.14293   0.14679
 Alpha virt. eigenvalues --    0.15397   0.15919   0.18142   0.18741   0.19575

 Mulliken charges:
               1
     1  C   -0.524922
     2  C   -0.143015
     3  H    0.014043
     4  H    0.054678
     5  H    0.402375
     6  C   -0.112950
     7  H    0.001885
     8  H    0.146863
     9  C   -0.266775
    10  H    0.122710
    11  H    0.049086
    12  H    0.040729
    13  H    0.155966
    14  H    0.059328
 Sum of Mulliken charges =   0.00000

 Dipole moment (field-independent basis, Debye):
    X=             -1.2591    Y=              0.7335    Z=             -0.4876  Tot=              1.5366
 Quadrupole moment (field-independent basis, Debye-Ang):
   XX=            -30.2530   YY=            -29.5200   ZZ=            -29.3724
   XY=              0.4876   XZ=             -0.9108   YZ=              1.6007

 Normal termination of Gaussian 09 at Wed Aug 26 10:00:18 2020.
