 Gaussian 09, Revision D.01,
 Gaussian 09:  ES64L-G09RevD.01 24-Apr-2013

 --------------------
 #p B2PLYPD3/Def2QZVP
 --------------------

 ----------
 butane_opt
 ----------
 Symbolic Z-matrix:
 Charge =  0 Multiplicity = 1

                         Standard orientation:
 ---------------------------------------------------------------------
 Center     Atomic      Atomic             Coordinates (Angstroms)
 Number     Number       Type             X           Y           Z
 ---------------------------------------------------------------------
      1          6           0        1.995352   -0.137318   -0.154587
      2          6           0        0.556903    0.520227    0.068446
      3          1           0        2.749170    0.491714   -0.129260
      4          1           0        1.881069   -0.879484   -1.022102
      5          1           0        2.390780   -0.698135    0.533233
      6          6           0       -0.607749   -0.492377    0.253402
      7          1           0        0.415995    0.838242   -0.577577
      8          1           0        0.907829    1.640137    1.061005
      9          6           0       -2.030648    0.100195   -0.136891
     10          1           0       -0.438676   -1.365245    1.312568
     11          1           0       -0.558691   -1.046694   -0.520544
     12          1           0       -2.325311    0.913547    0.771999
     13          1           0       -2.772764   -0.658998   -0.429177
     14          1           0       -1.732551    0.820556   -1.182363
 ---------------------------------------------------------------------

 SCF Done:  E(RB2PLYPD3) =  -157.760596948     A.U. after   11 cycles
 E2(B2PLYPD3) =    -0.2518811943D+00 E(B2PLYPD3) =    -0.15801247814217D+03

 The electronic state is 1-A.
 Alpha  occ. eigenvalues --  -10.65338 -10.63347 -10.62116 -10.58599  -0.92779
 Alpha  occ. eigenvalues --   -0.83737  -0.76317  -0.68064  -0.52842  -0.50617
 Alpha  occ. eigenvalues --   -0.49223  -0.45417  -0.43691  -0.40050  -0.39355
 Alpha  occ. eigenvalues --   -0.37265  -0.33979
 Alpha virt. eigenvalues --    0.04729   0.05502   0.06597   0.07658   0.10577
 Alpha virt. eigenvalues --    0.11049   0.11744   0.13488   0.14149   0.14700
 Alpha virt. eigenvalues --    0.15384   0.16102   0.18164   0.19228   0.20361

 Mulliken charges:
               1
     1  C   -0.095436
     2  C   -0.468479
     3  H    0.049023
     4  H    0.020928
     5  H    0.039364
     6  C   -0.082665
     7  H    0.441211
     8  H   -0.022087
     9  C   -0.170151
    10  H    0.014065
    11  H    0.115750
    12  H    0.057681
    13  H    0.077684
    14  H    0.023113
 Sum of Mulliken charges =   0.00000

 Dipole moment (field-independent basis, Debye):
    X=              0.0958    Y=             -0.5836    Z=             -0.6424  Tot=              0.8732
 Quadrupole moment (field-independent basis, Debye-Ang):
   XX=            -28.5150   YY=            -29.7685   ZZ=            -29.5450
   XY=              0.8209   XZ=              1.1048   YZ=              0.1283

 Normal termination of Gaussian 09 at Wed Aug 26 13:18:57 2020.
