 Gaussian 09, Revision D.01,
 Gaussian 09:  ES64L-G09RevD.01 24-Apr-2013

 --------------------
 #p B2PLYPD3/Def2QZVP
 --------------------

 ----------
 butane_opt
 ----------
 Symbolic Z-matrix:
 Charge =  0 Multiplicity = 1

                         Standard orientation:
 ---------------------------------------------------------------------
 Center     Atomic      Atomic             Coordinates (Angstroms)
 Number     Number       Type             X           Y           Z
 ---------------------------------------------------------------------
      1          6           0       -1.923383    0.098678    0.111618
      2          6           0       -0.577496   -0.456416   -0.090734
      3          1           0       -2.760619   -0.808519   -0.030691
      4          1           0       -2.031497    0.599164   -0.686870
      5          1           0       -1.957801    0.944904    1.096341
      6          6           0        0.527519    0.529760   -0.178056
      7          1           0       -0.656985   -1.169895   -0.914031
      8          1           0       -0.348515   -1.082811    0.819591
      9          6           0        1.949836   -0.195072    0.072946
     10          1           0        0.491855    1.226567    0.671101
     11          1           0        0.436467    1.310662   -1.102780
     12          1           0        1.801493   -0.756965    0.979750
     13          1           0        2.821878    0.697664    0.395088
     14          1           0        2.344864   -0.822469   -0.722139
 ---------------------------------------------------------------------

 SCF Done:  E(RB2PLYPD3) =  -158.032905179     A.U. after   11 cycles
 E2(B2PLYPD3) =    -0.2497762478D+00 E(B2PLYPD3) =    -0.15828268142702D+03

 The electronic state is 1-A.
 Alpha  occ. eigenvalues --  -10.62576 -10.62519 -10.61408 -10.60500  -0.92094
 Alpha  occ. eigenvalues --   -0.82620  -0.71947  -0.66034  -0.53923  -0.49518
 Alpha  occ. eigenvalues --   -0.48273  -0.46405  -0.41352  -0.40595  -0.38652
 Alpha  occ. eigenvalues --   -0.37245  -0.36818
 Alpha virt. eigenvalues --    0.05253   0.06281   0.07600   0.08174   0.10582
 Alpha virt. eigenvalues --    0.11303   0.12513   0.13570   0.14274   0.14813
 Alpha virt. eigenvalues --    0.15513   0.16065   0.18823   0.19865   0.20762

 Mulliken charges:
               1
     1  C   -0.178612
     2  C   -0.010030
     3  H    0.033738
     4  H    0.085462
     5  H    0.025998
     6  C   -0.048823
     7  H    0.031213
     8  H    0.022046
     9  C   -0.164879
    10  H    0.039437
    11  H    0.014681
    12  H    0.067993
    13  H    0.019656
    14  H    0.062121
 Sum of Mulliken charges =   0.00000

 Dipole moment (field-independent basis, Debye):
    X=             -0.0324    Y=             -0.1459    Z=             -0.1832  Tot=              0.2364
 Quadrupole moment (field-independent basis, Debye-Ang):
   XX=            -31.3293   YY=            -28.8738   ZZ=            -28.7734
   XY=              0.1902   XZ=              0.9969   YZ=              0.5957

 Normal termination of Gaussian 09 at Wed Aug 26 21:41:23 2020.
