 Gaussian 09, Revision D.01,
 Gaussian 09:  ES64L-G09RevD.01 24-Apr-2013

 --------------------
 #p B2PLYPD3/Def2QZVP
 --------------------

 ----------
 butane_opt
 ----------
 Symbolic Z-matrix:
 Charge =  0 Multiplicity = 1

                         Standard orientation:
 ---------------------------------------------------------------------
 Center     Atomic      Atomic             Coordinates (Angstroms)
 Number     Number       Type             X           Y           Z
 ---------------------------------------------------------------------
      1          6           0        1.936819   -0.091303   -0.103837
      2          6           0        0.551149    0.498704    0.117106
      3          1           0        2.763856    0.712943   -0.297961
      4          1           0        1.912728   -0.620345   -1.013718
      5          1           0        2.282623   -0.829424    0.776110
      6          6           0       -0.525415   -0.600024    0.061976
      7          1           0        0.434521    0.977903   -0.633342
      8          1           0        0.666632    1.387097    1.167078
      9          6           0       -1.981683    0.157428   -0.039811
     10          1           0       -0.351432   -1.301644    0.918179
     11          1           0       -0.427986   -1.064698   -0.637525
     12          1           0       -2.281578    0.624324    0.729286
     13          1           0       -2.729501   -0.633040   -0.195963
     14          1           0       -2.155078    0.958053   -1.024749
 ---------------------------------------------------------------------

 SCF Done:  E(RB2PLYPD3) =  -157.943057439     A.U. after   11 cycles
 E2(B2PLYPD3) =    -0.2478599268D+00 E(B2PLYPD3) =    -0.15819091736538D+03

 The electronic state is 1-A.
 Alpha  occ. eigenvalues --  -10.61187 -10.61007 -10.60885 -10.59745  -0.92132
 Alpha  occ. eigenvalues --   -0.82711  -0.74561  -0.68934  -0.54850  -0.48984
 Alpha  occ. eigenvalues --   -0.47374  -0.46481  -0.44989  -0.40820  -0.39226
 Alpha  occ. eigenvalues --   -0.37262  -0.36307
 Alpha virt. eigenvalues --    0.05406   0.06365   0.07768   0.08803   0.10966
 Alpha virt. eigenvalues --    0.11538   0.12621   0.13645   0.14296   0.15217
 Alpha virt. eigenvalues --    0.15908   0.16441   0.19076   0.20115   0.21356

 Mulliken charges:
               1
     1  C   -0.141313
     2  C   -0.124156
     3  H    0.036186
     4  H    0.047325
     5  H    0.033112
     6  C   -0.172832
     7  H    0.133388
     8  H    0.002923
     9  C   -0.149781
    10  H    0.037934
    11  H    0.168497
    12  H    0.081192
    13  H    0.033448
    14  H    0.014075
 Sum of Mulliken charges =   0.00000

 Dipole moment (field-independent basis, Debye):
    X=             -0.1211    Y=             -0.2781    Z=             -0.3933  Tot=              0.4966
 Quadrupole moment (field-independent basis, Debye-Ang):
   XX=            -29.9165   YY=            -28.7698   ZZ=            -28.3948
   XY=              0.2306   XZ=             -0.5180   YZ=             -0.2460

 Normal termination of Gaussian 09 at Wed Aug 26 15:43:53 2020.
