 Gaussian 09, Revision D.01,
 Gaussian 09:  ES64L-G09RevD.01 24-Apr-2013

 --------------------
 #p B2PLYPD3/Def2QZVP
 --------------------

 ----------
 butane_opt
 ----------
 Symbolic Z-matrix:
 Charge =  0 Multiplicity = 1

                         Standard orientation:
 ---------------------------------------------------------------------
 Center     Atomic      Atomic             Coordinates (Angstroms)
 Number     Number       Type             X           Y           Z
 ---------------------------------------------------------------------
      1          6           0       -2.027505   -0.156685    0.049318
      2          6           0       -0.540175    0.651707   -0.139466
      3          1           0       -2.932992    0.533975   -0.069794
      4          1           0       -2.398298   -0.967579    1.073668
      5          1           0       -2.096344   -0.645888   -0.755638
      6          6           0        0.648392   -0.514037    0.050607
      7          1           0       -0.354002    1.313036    0.751147
      8          1           0       -0.424617    1.213890   -0.947455
      9          6           0        1.913378    0.060236    0.029024
     10          1           0        0.506721   -1.324813   -0.845692
     11          1           0        0.527794   -1.127210    0.940617
     12          1           0        1.903767    0.349070   -0.677262
     13          1           0        2.702629   -0.723698   -0.535516
     14          1           0        2.600800    1.131896    1.129029
 ---------------------------------------------------------------------

 SCF Done:  E(RB2PLYPD3) =  -157.748885811     A.U. after   12 cycles
 E2(B2PLYPD3) =    -0.2545734552D+00 E(B2PLYPD3) =    -0.15800345926575D+03

 The electronic state is 1-A.
 Alpha  occ. eigenvalues --  -10.62818 -10.62707 -10.62565 -10.61494  -0.93797
 Alpha  occ. eigenvalues --   -0.83631  -0.73957  -0.69035  -0.52336  -0.49427
 Alpha  occ. eigenvalues --   -0.48108  -0.46049  -0.41226  -0.40324  -0.39462
 Alpha  occ. eigenvalues --   -0.36520  -0.33250
 Alpha virt. eigenvalues --    0.01842   0.05074   0.05825   0.08240   0.09861
 Alpha virt. eigenvalues --    0.10864   0.12031   0.12405   0.14318   0.14958
 Alpha virt. eigenvalues --    0.15819   0.16406   0.17941   0.19012   0.20119

 Mulliken charges:
               1
     1  C   -0.195669
     2  C   -0.087150
     3  H    0.031363
     4  H    0.038126
     5  H    0.091553
     6  C    0.001513
     7  H    0.038154
     8  H    0.072947
     9  C   -0.488768
    10  H    0.012751
    11  H    0.058257
    12  H    0.373026
    13  H    0.027325
    14  H    0.026572
 Sum of Mulliken charges =   0.00000

 Dipole moment (field-independent basis, Debye):
    X=             -0.3132    Y=             -0.0089    Z=             -0.8991  Tot=              0.9522
 Quadrupole moment (field-independent basis, Debye-Ang):
   XX=            -31.3045   YY=            -29.2298   ZZ=            -28.2906
   XY=              0.3911   XZ=             -0.6985   YZ=              0.0310

 Normal termination of Gaussian 09 at Wed Aug 26 23:56:18 2020.
