 Gaussian 09, Revision D.01,
 Gaussian 09:  ES64L-G09RevD.01 24-Apr-2013

 --------------------
 #p B2PLYPD3/Def2QZVP
 --------------------

 ----------
 butane_opt
 ----------
 Symbolic Z-matrix:
 Charge =  0 Multiplicity = 1

                         Standard orientation:
 ---------------------------------------------------------------------
 Center     Atomic      Atomic             Coordinates (Angstroms)
 Number     Number       Type             X           Y           Z
 ---------------------------------------------------------------------
      1          6           0       -1.994534    0.070611    0.068016
      2          6           0       -0.608803   -0.474128   -0.076886
      3          1           0       -2.757353   -0.621728    0.323880
      4          1           0       -2.191462    0.462633   -0.656144
      5          1           0       -2.048250    0.896027    1.046365
      6          6           0        0.517677    0.608768   -0.257310
      7          1           0       -0.624024   -1.255430   -0.926541
      8          1           0       -0.464737   -0.949250    0.641078
      9          6           0        2.056517   -0.191714    0.130207
     10          1           0        0.338818    1.143377    0.529381
     11          1           0        0.553663    1.176522   -1.039270
     12          1           0        1.651668   -0.875107    0.981441
     13          1           0        2.898334    0.859270    0.705584
     14          1           0        2.818206   -0.917536   -0.789935
 ---------------------------------------------------------------------

 SCF Done:  E(RB2PLYPD3) =  -157.859291907     A.U. after   11 cycles
 E2(B2PLYPD3) =    -0.2508976761D+00 E(B2PLYPD3) =    -0.15811018958332D+03

 The electronic state is 1-A.
 Alpha  occ. eigenvalues --  -10.68251 -10.60601 -10.59084 -10.58659  -0.92238
 Alpha  occ. eigenvalues --   -0.82333  -0.72660  -0.69388  -0.55184  -0.52402
 Alpha  occ. eigenvalues --   -0.47041  -0.44779  -0.43777  -0.41154  -0.38477
 Alpha  occ. eigenvalues --   -0.37151  -0.34718
 Alpha virt. eigenvalues --    0.04028   0.05922   0.08200   0.08861   0.09244
 Alpha virt. eigenvalues --    0.10425   0.11875   0.13372   0.14968   0.15056
 Alpha virt. eigenvalues --    0.15407   0.16203   0.17961   0.19276   0.20892

 Mulliken charges:
               1
     1  C   -0.213542
     2  C   -0.105854
     3  H    0.044269
     4  H    0.146128
     5  H   -0.001130
     6  C   -0.057448
     7  H    0.010542
     8  H    0.127087
     9  C   -0.240671
    10  H    0.083439
    11  H    0.056960
    12  H    0.072809
    13  H    0.020429
    14  H    0.056981
 Sum of Mulliken charges =   0.00000

 Dipole moment (field-independent basis, Debye):
    X=             -0.7192    Y=             -0.1064    Z=             -0.0803  Tot=              0.7315
 Quadrupole moment (field-independent basis, Debye-Ang):
   XX=            -31.1846   YY=            -28.7587   ZZ=            -28.6359
   XY=              0.3715   XZ=             -0.2973   YZ=             -0.3174

 Normal termination of Gaussian 09 at Wed Aug 26 23:35:43 2020.
