 Gaussian 09, Revision D.01,
 Gaussian 09:  ES64L-G09RevD.01 24-Apr-2013

 --------------------
 #p B2PLYPD3/Def2QZVP
 --------------------

 ----------
 butane_opt
 ----------
 Symbolic Z-matrix:
 Charge =  0 Multiplicity = 1

                         Standard orientation:
 ---------------------------------------------------------------------
 Center     Atomic      Atomic             Coordinates (Angstroms)
 Number     Number       Type             X           Y           Z
 ---------------------------------------------------------------------
      1          6           0        1.923772   -0.129136   -0.088666
      2          6           0        0.615770    0.614673   -0.011594
      3          1           0        2.733255    0.663949   -0.041368
      4          1           0        2.153809   -0.765239   -0.887371
      5          1           0        2.131885   -0.914236    0.945479
      6          6           0       -0.590584   -0.585576    0.148379
      7          1           0        0.413108    1.003532   -0.826331
      8          1           0        0.760783    1.254762    0.826590
      9          6           0       -2.000131    0.129775   -0.044176
     10          1           0       -0.307754   -1.220373    0.964844
     11          1           0       -0.400061   -1.078178   -0.690473
     12          1           0       -2.303918    1.054262    0.918159
     13          1           0       -2.784398   -0.529241   -0.492528
     14          1           0       -2.089672    0.352341   -0.740662
 ---------------------------------------------------------------------

 SCF Done:  E(RB2PLYPD3) =  -157.810832731     A.U. after   11 cycles
 E2(B2PLYPD3) =    -0.2493967242D+00 E(B2PLYPD3) =    -0.15806022945475D+03

 The electronic state is 1-A.
 Alpha  occ. eigenvalues --  -10.61661 -10.60888 -10.59768 -10.59287  -0.91321
 Alpha  occ. eigenvalues --   -0.86491  -0.75312  -0.69128  -0.55320  -0.50909
 Alpha  occ. eigenvalues --   -0.47458  -0.45580  -0.42982  -0.41526  -0.39124
 Alpha  occ. eigenvalues --   -0.38681  -0.33058
 Alpha virt. eigenvalues --    0.05209   0.06071   0.08358   0.09136   0.10767
 Alpha virt. eigenvalues --    0.11059   0.11877   0.13202   0.14265   0.15311
 Alpha virt. eigenvalues --    0.16298   0.16676   0.18629   0.19522   0.21640

 Mulliken charges:
               1
     1  C   -0.159412
     2  C   -0.069467
     3  H    0.043962
     4  H    0.050842
     5  H    0.007295
     6  C   -0.090330
     7  H    0.086647
     8  H    0.045477
     9  C   -0.493840
    10  H    0.066353
    11  H    0.068431
    12  H    0.054888
    13  H    0.028857
    14  H    0.360296
 Sum of Mulliken charges =   0.00000

 Dipole moment (field-independent basis, Debye):
    X=              0.0772    Y=              0.1707    Z=             -0.8130  Tot=              0.8343
 Quadrupole moment (field-independent basis, Debye-Ang):
   XX=            -30.7720   YY=            -28.7862   ZZ=            -27.5591
   XY=             -0.0509   XZ=              1.3187   YZ=              0.7232

 Normal termination of Gaussian 09 at Wed Aug 26 09:51:43 2020.
