 Gaussian 09, Revision D.01,
 Gaussian 09:  ES64L-G09RevD.01 24-Apr-2013

 --------------------
 #p B2PLYPD3/Def2QZVP
 --------------------

 ----------
 butane_opt
 ----------
 Symbolic Z-matrix:
 Charge =  0 Multiplicity = 1

                         Standard orientation:
 ---------------------------------------------------------------------
 Center     Atomic      Atomic             Coordinates (Angstroms)
 Number     Number       Type             X           Y           Z
 ---------------------------------------------------------------------
      1          6           0        1.907720    0.106243   -0.104567
      2          6           0        0.618897   -0.423035    0.079530
      3          1           0        2.902169   -0.870933   -0.064853
      4          1           0        1.940115    0.531279    0.759482
      5          1           0        1.767514    0.590393   -0.987541
      6          6           0       -0.490414    0.542832    0.184451
      7          1           0        0.447672   -1.058802    0.980052
      8          1           0        0.074448   -1.192991   -0.881033
      9          6           0       -1.943388   -0.147608   -0.077181
     10          1           0       -0.232481    1.347303   -0.696246
     11          1           0       -0.445362    1.261353    1.102058
     12          1           0       -1.500125   -0.632311   -0.830841
     13          1           0       -2.791896    0.532314   -0.758359
     14          1           0       -2.718948   -0.978194    0.883883
 ---------------------------------------------------------------------

 SCF Done:  E(RB2PLYPD3) =  -157.890982599     A.U. after   11 cycles
 E2(B2PLYPD3) =    -0.2562859094D+00 E(B2PLYPD3) =    -0.15814726850849D+03

 The electronic state is 1-A.
 Alpha  occ. eigenvalues --  -10.65269 -10.64454 -10.62807 -10.61084  -0.94902
 Alpha  occ. eigenvalues --   -0.84198  -0.71717  -0.64475  -0.58060  -0.49479
 Alpha  occ. eigenvalues --   -0.48184  -0.46154  -0.40877  -0.39636  -0.38311
 Alpha  occ. eigenvalues --   -0.35968  -0.34655
 Alpha virt. eigenvalues --    0.04214   0.04695   0.07056   0.07289   0.09722
 Alpha virt. eigenvalues --    0.09787   0.11567   0.12942   0.14663   0.14933
 Alpha virt. eigenvalues --    0.15780   0.16392   0.17778   0.19256   0.20177

 Mulliken charges:
               1
     1  C   -0.177444
     2  C   -0.035415
     3  H    0.022934
     4  H    0.095234
     5  H    0.082750
     6  C   -0.012290
     7  H    0.045555
     8  H   -0.024208
     9  C   -0.212399
    10  H    0.004778
    11  H    0.021618
    12  H    0.105579
    13  H    0.038149
    14  H    0.045159
 Sum of Mulliken charges =   0.00000

 Dipole moment (field-independent basis, Debye):
    X=              0.2506    Y=              0.2644    Z=              0.1023  Tot=              0.3783
 Quadrupole moment (field-independent basis, Debye-Ang):
   XX=            -31.1577   YY=            -30.7835   ZZ=            -28.8223
   XY=              0.3506   XZ=              0.6785   YZ=             -0.7305

 Normal termination of Gaussian 09 at Wed Aug 26 22:24:44 2020.
