 Gaussian 09, Revision D.01,
 Gaussian 09:  ES64L-G09RevD.01 24-Apr-2013

 --------------------
 #p B2PLYPD3/Def2QZVP
 --------------------

 ----------
 butane_opt
 ----------
 Symbolic Z-matrix:
 Charge =  0 Multiplicity = 1

                         Standard orientation:
 ---------------------------------------------------------------------
 Center     Atomic      Atomic             Coordinates (Angstroms)
 Number     Number       Type             X           Y           Z
 ---------------------------------------------------------------------
      1          6           0        2.012348    0.117553    0.091335
      2          6           0        0.575302   -0.560558   -0.293612
      3          1           0        2.767620   -0.783518    0.701988
      4          1           0        1.822559    0.627015    1.148426
      5          1           0        2.544727    1.027113   -0.826866
      6          6           0       -0.514429    0.565051   -0.088771
      7          1           0        0.392509   -1.246311    0.578178
      8          1           0        0.513452   -0.997824   -1.056436
      9          6           0       -1.994525   -0.145688    0.129156
     10          1           0       -0.942529    1.217855   -0.965937
     11          1           0       -0.222130    1.008036    0.756271
     12          1           0       -2.572542   -0.621735   -0.756511
     13          1           0       -2.811636    0.557377    0.457715
     14          1           0       -1.964206   -0.646156    0.934525
 ---------------------------------------------------------------------

 SCF Done:  E(RB2PLYPD3) =  -157.936083795     A.U. after   11 cycles
 E2(B2PLYPD3) =    -0.2522238394D+00 E(B2PLYPD3) =    -0.15818830763445D+03

 The electronic state is 1-A.
 Alpha  occ. eigenvalues --  -10.66867 -10.61888 -10.60777 -10.59669  -0.89860
 Alpha  occ. eigenvalues --   -0.81350  -0.71501  -0.69029  -0.55121  -0.48815
 Alpha  occ. eigenvalues --   -0.46698  -0.45802  -0.42245  -0.40410  -0.39049
 Alpha  occ. eigenvalues --   -0.36297  -0.34672
 Alpha virt. eigenvalues --    0.04300   0.05951   0.08026   0.09114   0.10112
 Alpha virt. eigenvalues --    0.10567   0.11877   0.12086   0.13958   0.15435
 Alpha virt. eigenvalues --    0.15996   0.17336   0.18342   0.19045   0.20280

 Mulliken charges:
               1
     1  C   -0.187258
     2  C   -0.091605
     3  H    0.031724
     4  H    0.040624
     5  H    0.056559
     6  C   -0.089986
     7  H    0.040371
     8  H    0.111331
     9  C   -0.148485
    10  H    0.038946
    11  H    0.082856
    12  H    0.042533
    13  H    0.013909
    14  H    0.058481
 Sum of Mulliken charges =   0.00000

 Dipole moment (field-independent basis, Debye):
    X=             -0.4350    Y=             -0.1360    Z=              0.2566  Tot=              0.5230
 Quadrupole moment (field-independent basis, Debye-Ang):
   XX=            -31.1389   YY=            -29.9446   ZZ=            -27.6957
   XY=              0.0482   XZ=              0.7149   YZ=             -0.3049

 Normal termination of Gaussian 09 at Wed Aug 26 20:32:47 2020.
