 Gaussian 09, Revision D.01,
 Gaussian 09:  ES64L-G09RevD.01 24-Apr-2013

 --------------------
 #p B2PLYPD3/Def2QZVP
 --------------------

 ----------
 butane_opt
 ----------
 Symbolic Z-matrix:
 Charge =  0 Multiplicity = 1

                         Standard orientation:
 ---------------------------------------------------------------------
 Center     Atomic      Atomic             Coordinates (Angstroms)
 Number     Number       Type             X           Y           Z
 ---------------------------------------------------------------------
      1          6           0        1.947288   -0.033135   -0.152486
      2          6           0        0.646675    0.407086    0.161790
      3          1           0        2.641493    0.780122    0.202934
      4          1           0        2.131983   -0.930068   -1.310412
      5          1           0        1.780185   -0.650953    0.609696
      6          6           0       -0.513284   -0.544434    0.016707
      7          1           0        0.377071    0.917000   -0.526732
      8          1           0        0.628331    1.393813    1.458867
      9          6           0       -2.033511    0.136597   -0.115113
     10          1           0       -0.404648   -1.408622    1.112829
     11          1           0       -0.122925   -0.905014   -0.698466
     12          1           0       -2.200768    0.256907    0.520615
     13          1           0       -2.780580   -0.651127    0.407240
     14          1           0       -2.333154    1.401252   -1.241959
 ---------------------------------------------------------------------

 SCF Done:  E(RB2PLYPD3) =  -157.341116962     A.U. after   13 cycles
 E2(B2PLYPD3) =    -0.2617793084D+00 E(B2PLYPD3) =    -0.15760289627020D+03

 The electronic state is 1-A.
 Alpha  occ. eigenvalues --  -10.64118 -10.64056 -10.62682 -10.62433  -0.96923
 Alpha  occ. eigenvalues --   -0.90510  -0.80088  -0.67341  -0.54097  -0.51807
 Alpha  occ. eigenvalues --   -0.46738  -0.45155  -0.42512  -0.38497  -0.37374
 Alpha  occ. eigenvalues --   -0.34268  -0.33332
 Alpha virt. eigenvalues --   -0.00760   0.01691   0.04445   0.06319   0.09127
 Alpha virt. eigenvalues --    0.11003   0.11327   0.12320   0.13112   0.14529
 Alpha virt. eigenvalues --    0.15312   0.16074   0.17314   0.18348   0.20026

 Mulliken charges:
               1
     1  C   -0.191770
     2  C   -0.109915
     3  H    0.085065
     4  H    0.030829
     5  H    0.086922
     6  C   -0.142757
     7  H    0.130243
     8  H   -0.048057
     9  C   -0.693317
    10  H   -0.018451
    11  H    0.172334
    12  H    0.589719
    13  H    0.045023
    14  H    0.064134
 Sum of Mulliken charges =   0.00000

 Dipole moment (field-independent basis, Debye):
    X=             -0.0780    Y=              0.1385    Z=              0.0378  Tot=              0.1634
 Quadrupole moment (field-independent basis, Debye-Ang):
   XX=            -30.6179   YY=            -30.5014   ZZ=            -29.2425
   XY=             -0.5507   XZ=             -1.7831   YZ=             -1.1166

 Normal termination of Gaussian 09 at Wed Aug 26 19:25:00 2020.
