 Gaussian 09, Revision D.01,
 Gaussian 09:  ES64L-G09RevD.01 24-Apr-2013

 --------------------
 #p B2PLYPD3/Def2QZVP
 --------------------

 ----------
 butane_opt
 ----------
 Symbolic Z-matrix:
 Charge =  0 Multiplicity = 1

                         Standard orientation:
 ---------------------------------------------------------------------
 Center     Atomic      Atomic             Coordinates (Angstroms)
 Number     Number       Type             X           Y           Z
 ---------------------------------------------------------------------
      1          6           0        1.845437   -0.095413    0.114206
      2          6           0        0.627114    0.477969   -0.109956
      3          1           0        2.704505    0.869004   -0.547804
      4          1           0        1.960770   -0.230530   -0.409870
      5          1           0        2.185165   -1.121446    1.450651
      6          6           0       -0.519544   -0.639821   -0.093687
      7          1           0        0.741972    1.357996   -1.176002
      8          1           0        0.472626    1.113704    0.781661
      9          6           0       -2.011388    0.142853    0.042412
     10          1           0       -0.258726   -1.052722    0.613620
     11          1           0       -0.191853   -1.456250   -0.948143
     12          1           0       -2.272569    1.420537    1.387690
     13          1           0       -2.717774   -0.442053   -0.316298
     14          1           0       -2.273831    0.228234   -0.553351
 ---------------------------------------------------------------------

 SCF Done:  E(RB2PLYPD3) =  -156.604035643     A.U. after   13 cycles
 E2(B2PLYPD3) =    -0.2659967950D+00 E(B2PLYPD3) =    -0.15687003243748D+03

 The electronic state is 1-A.
 Alpha  occ. eigenvalues --  -10.64270 -10.63371 -10.62754 -10.62702  -0.98509
 Alpha  occ. eigenvalues --   -0.96873  -0.83124  -0.69617  -0.53313  -0.50629
 Alpha  occ. eigenvalues --   -0.45882  -0.44201  -0.42381  -0.37735  -0.36510
 Alpha  occ. eigenvalues --   -0.36046  -0.31347
 Alpha virt. eigenvalues --   -0.02660  -0.00308   0.02613   0.06494   0.08618
 Alpha virt. eigenvalues --    0.09480   0.11812   0.12105   0.13849   0.14886
 Alpha virt. eigenvalues --    0.16052   0.16609   0.17003   0.18674   0.20178

 Mulliken charges:
               1
     1  C   -0.912638
     2  C    0.055291
     3  H   -0.016228
     4  H    0.754945
     5  H    0.053168
     6  C   -0.220591
     7  H    0.009250
     8  H    0.051603
     9  C   -0.681884
    10  H    0.196607
    11  H    0.029342
    12  H    0.054414
    13  H    0.047441
    14  H    0.579279
 Sum of Mulliken charges =   0.00000

 Dipole moment (field-independent basis, Debye):
    X=             -0.7536    Y=             -0.5566    Z=             -0.6397  Tot=              1.1345
 Quadrupole moment (field-independent basis, Debye-Ang):
   XX=            -31.6236   YY=            -29.5368   ZZ=            -27.7167
   XY=             -1.2569   XZ=              1.1305   YZ=              0.4859

 Normal termination of Gaussian 09 at Wed Aug 26 23:47:31 2020.
