 Gaussian 09, Revision D.01,
 Gaussian 09:  ES64L-G09RevD.01 24-Apr-2013

 --------------------
 #p B2PLYPD3/Def2QZVP
 --------------------

 ----------
 butane_opt
 ----------
 Symbolic Z-matrix:
 Charge =  0 Multiplicity = 1

                         Standard orientation:
 ---------------------------------------------------------------------
 Center     Atomic      Atomic             Coordinates (Angstroms)
 Number     Number       Type             X           Y           Z
 ---------------------------------------------------------------------
      1          6           0       -1.952979   -0.133782    0.086837
      2          6           0       -0.539110    0.505142   -0.074711
      3          1           0       -2.790542    0.613902   -0.029170
      4          1           0       -1.895088   -0.827520    1.074173
      5          1           0       -2.093658   -0.618191   -0.736623
      6          6           0        0.558606   -0.463327   -0.037511
      7          1           0       -0.424642    0.939184    0.603766
      8          1           0       -0.395619    1.437603   -1.186403
      9          6           0        1.914016    0.088017    0.034069
     10          1           0        0.430802   -1.198679   -0.952331
     11          1           0        0.346959   -1.115269    0.799863
     12          1           0        1.991816    0.377810   -0.598032
     13          1           0        2.706427   -0.755256   -0.312762
     14          1           0        2.240353    1.170115    1.285412
 ---------------------------------------------------------------------

 SCF Done:  E(RB2PLYPD3) =  -157.625168138     A.U. after   12 cycles
 E2(B2PLYPD3) =    -0.2520898539D+00 E(B2PLYPD3) =    -0.15787725799138D+03

 The electronic state is 1-A.
 Alpha  occ. eigenvalues --  -10.61861 -10.61515 -10.60870 -10.60562  -0.95294
 Alpha  occ. eigenvalues --   -0.87345  -0.76698  -0.69296  -0.54754  -0.51104
 Alpha  occ. eigenvalues --   -0.48373  -0.46217  -0.43065  -0.41375  -0.39193
 Alpha  occ. eigenvalues --   -0.36339  -0.35172
 Alpha virt. eigenvalues --    0.01946   0.05375   0.06230   0.07054   0.10325
 Alpha virt. eigenvalues --    0.10959   0.12350   0.12802   0.14429   0.15162
 Alpha virt. eigenvalues --    0.15499   0.15959   0.18289   0.19363   0.21031

 Mulliken charges:
               1
     1  C   -0.143014
     2  C   -0.259530
     3  H    0.044423
     4  H    0.046405
     5  H    0.071168
     6  C    0.047975
     7  H    0.250371
     8  H   -0.028017
     9  C   -0.596495
    10  H    0.008150
    11  H    0.032837
    12  H    0.460485
    13  H    0.054859
    14  H    0.010382
 Sum of Mulliken charges =   0.00000

 Dipole moment (field-independent basis, Debye):
    X=             -0.3278    Y=             -0.4392    Z=             -0.2798  Tot=              0.6153
 Quadrupole moment (field-independent basis, Debye-Ang):
   XX=            -30.3885   YY=            -29.8071   ZZ=            -28.4642
   XY=             -0.3755   XZ=             -1.1567   YZ=              0.5711

 Normal termination of Gaussian 09 at Wed Aug 26 23:06:47 2020.
