 Gaussian 09, Revision D.01,
 Gaussian 09:  ES64L-G09RevD.01 24-Apr-2013

 --------------------
 #p B2PLYPD3/Def2QZVP
 --------------------

 ----------
 butane_opt
 ----------
 Symbolic Z-matrix:
 Charge =  0 Multiplicity = 1

                         Standard orientation:
 ---------------------------------------------------------------------
 Center     Atomic      Atomic             Coordinates (Angstroms)
 Number     Number       Type             X           Y           Z
 ---------------------------------------------------------------------
      1          6           0       -1.927218   -0.105466   -0.146913
      2          6           0       -0.575873    0.510034    0.098632
      3          1           0       -2.717684    0.587159   -0.085754
      4          1           0       -1.962344   -0.531364    0.613996
      5          1           0       -2.171653   -0.765705   -1.143941
      6          6           0        0.505357   -0.633981    0.268669
      7          1           0       -0.684459    1.379035    1.060730
      8          1           0       -0.671211    1.121393   -0.625666
      9          6           0        2.061793    0.112040   -0.187273
     10          1           0        0.300996   -1.019532   -0.345915
     11          1           0        0.404326   -1.203544    1.220727
     12          1           0        1.619894    0.597788   -0.877635
     13          1           0        2.741959   -0.398087   -0.859837
     14          1           0        2.755825    0.937097    0.844601
 ---------------------------------------------------------------------

 SCF Done:  E(RB2PLYPD3) =  -157.740942485     A.U. after   11 cycles
 E2(B2PLYPD3) =    -0.2510061914D+00 E(B2PLYPD3) =    -0.15799194867622D+03

 The electronic state is 1-A.
 Alpha  occ. eigenvalues --  -10.63167 -10.61204 -10.60696 -10.57899  -0.93363
 Alpha  occ. eigenvalues --   -0.84584  -0.75792  -0.70119  -0.55605  -0.51662
 Alpha  occ. eigenvalues --   -0.48185  -0.46663  -0.41646  -0.41025  -0.39381
 Alpha  occ. eigenvalues --   -0.36636  -0.34736
 Alpha virt. eigenvalues --    0.04561   0.06057   0.07785   0.08419   0.10007
 Alpha virt. eigenvalues --    0.11424   0.12610   0.13008   0.14945   0.15947
 Alpha virt. eigenvalues --    0.16104   0.16739   0.17478   0.18819   0.20975

 Mulliken charges:
               1
     1  C   -0.231348
     2  C   -0.068417
     3  H    0.038266
     4  H    0.141371
     5  H    0.028004
     6  C   -0.437239
     7  H   -0.005426
     8  H    0.073775
     9  C   -0.234769
    10  H    0.411488
    11  H    0.076686
    12  H    0.117183
    13  H    0.055959
    14  H    0.034466
 Sum of Mulliken charges =   0.00000

 Dipole moment (field-independent basis, Debye):
    X=             -0.5561    Y=             -0.2124    Z=             -0.5252  Tot=              0.7939
 Quadrupole moment (field-independent basis, Debye-Ang):
   XX=            -30.1788   YY=            -29.2327   ZZ=            -27.5817
   XY=             -0.4732   XZ=             -0.5358   YZ=              0.0233

 Normal termination of Gaussian 09 at Wed Aug 26 13:46:26 2020.
