 Gaussian 09, Revision D.01,
 Gaussian 09:  ES64L-G09RevD.01 24-Apr-2013

 --------------------
 #p B2PLYPD3/Def2QZVP
 --------------------

 ----------
 butane_opt
 ----------
 Symbolic Z-matrix:
 Charge =  0 Multiplicity = 1

                         Standard orientation:
 ---------------------------------------------------------------------
 Center     Atomic      Atomic             Coordinates (Angstroms)
 Number     Number       Type             X           Y           Z
 ---------------------------------------------------------------------
      1          6           0       -1.806299    0.015362   -0.166353
      2          6           0       -0.567188   -0.442680    0.277469
      3          1           0       -2.640271   -0.915041   -0.587910
      4          1           0       -1.620397    0.199772   -0.805936
      5          1           0       -2.345684    1.311054    0.933160
      6          6           0        0.484308    0.560928    0.053026
      7          1           0       -0.479772   -1.063180   -0.462368
      8          1           0       -0.602578   -0.909066    1.328735
      9          6           0        1.918647   -0.144370   -0.092463
     10          1           0        0.284012    1.091681    0.589627
     11          1           0       -0.037339    1.183463   -1.089938
     12          1           0        2.662849   -0.546811    0.844377
     13          1           0        2.607579    0.620999   -0.231487
     14          1           0        1.994791   -0.908313   -0.948337
 ---------------------------------------------------------------------

 SCF Done:  E(RB2PLYPD3) =  -157.512047300     A.U. after   12 cycles
 E2(B2PLYPD3) =    -0.2550279448D+00 E(B2PLYPD3) =    -0.15776707524503D+03

 The electronic state is 1-A.
 Alpha  occ. eigenvalues --  -10.63492 -10.62965 -10.61687 -10.59455  -0.99149
 Alpha  occ. eigenvalues --   -0.86594  -0.76637  -0.70905  -0.57538  -0.49807
 Alpha  occ. eigenvalues --   -0.49458  -0.46807  -0.45440  -0.40986  -0.38568
 Alpha  occ. eigenvalues --   -0.36336  -0.32472
 Alpha virt. eigenvalues --    0.01181   0.05344   0.05596   0.06995   0.09794
 Alpha virt. eigenvalues --    0.10142   0.11946   0.12506   0.13834   0.14836
 Alpha virt. eigenvalues --    0.15894   0.17372   0.18443   0.18469   0.20077

 Mulliken charges:
               1
     1  C   -0.623519
     2  C   -0.000942
     3  H    0.048102
     4  H    0.521697
     5  H   -0.055541
     6  C   -0.327267
     7  H    0.088651
     8  H    0.042678
     9  C   -0.133707
    10  H    0.303630
    11  H   -0.006103
    12  H    0.030797
    13  H    0.057031
    14  H    0.054494
 Sum of Mulliken charges =   0.00000

 Dipole moment (field-independent basis, Debye):
    X=              1.1376    Y=             -0.6663    Z=             -0.4782  Tot=              1.4024
 Quadrupole moment (field-independent basis, Debye-Ang):
   XX=            -31.5412   YY=            -30.1812   ZZ=            -28.5460
   XY=              1.6652   XZ=              1.7398   YZ=              1.1444

 Normal termination of Gaussian 09 at Wed Aug 26 18:46:40 2020.
