 Gaussian 09, Revision D.01,
 Gaussian 09:  ES64L-G09RevD.01 24-Apr-2013

 --------------------
 #p B2PLYPD3/Def2QZVP
 --------------------

 ----------
 butane_opt
 ----------
 Symbolic Z-matrix:
 Charge =  0 Multiplicity = 1

                         Standard orientation:
 ---------------------------------------------------------------------
 Center     Atomic      Atomic             Coordinates (Angstroms)
 Number     Number       Type             X           Y           Z
 ---------------------------------------------------------------------
      1          6           0       -1.948424    0.041651    0.199478
      2          6           0       -0.625395   -0.537562   -0.400220
      3          1           0       -2.573780   -0.687312    0.849125
      4          1           0       -2.859694    1.044459   -0.606973
      5          1           0       -1.472509    0.647470    1.222144
      6          6           0        0.585571    0.633719   -0.108279
      7          1           0       -0.653814   -1.067300   -1.331154
      8          1           0       -0.422481   -1.168551    0.414841
      9          6           0        2.008542   -0.183941    0.158647
     10          1           0        0.357389    1.110871    0.584953
     11          1           0        0.440632    1.361701   -0.888587
     12          1           0        1.862562   -1.035644    1.089011
     13          1           0        2.764867    0.601897    0.172653
     14          1           0        2.435067   -0.530788   -0.603767
 ---------------------------------------------------------------------

 SCF Done:  E(RB2PLYPD3) =  -157.888174876     A.U. after   11 cycles
 E2(B2PLYPD3) =    -0.2535178201D+00 E(B2PLYPD3) =    -0.15814169269602D+03

 The electronic state is 1-A.
 Alpha  occ. eigenvalues --  -10.66868 -10.62043 -10.61468 -10.60306  -0.89381
 Alpha  occ. eigenvalues --   -0.82302  -0.74694  -0.67113  -0.53283  -0.48057
 Alpha  occ. eigenvalues --   -0.47443  -0.46163  -0.43149  -0.41236  -0.38981
 Alpha  occ. eigenvalues --   -0.35287  -0.33575
 Alpha virt. eigenvalues --    0.03845   0.05601   0.08104   0.08586   0.09118
 Alpha virt. eigenvalues --    0.10891   0.11205   0.13504   0.14487   0.14885
 Alpha virt. eigenvalues --    0.15550   0.16076   0.18206   0.18848   0.20624

 Mulliken charges:
               1
     1  C   -0.184527
     2  C   -0.084017
     3  H    0.064005
     4  H    0.009194
     5  H    0.026895
     6  C   -0.130569
     7  H    0.062111
     8  H    0.070936
     9  C   -0.154004
    10  H    0.143263
    11  H    0.030749
    12  H    0.049898
    13  H    0.031065
    14  H    0.065001
 Sum of Mulliken charges =   0.00000

 Dipole moment (field-independent basis, Debye):
    X=              0.7482    Y=             -0.3685    Z=              0.1065  Tot=              0.8408
 Quadrupole moment (field-independent basis, Debye-Ang):
   XX=            -31.3812   YY=            -29.0146   ZZ=            -28.6143
   XY=              0.8685   XZ=             -1.1889   YZ=             -0.5933

 Normal termination of Gaussian 09 at Wed Aug 26 20:50:51 2020.
