 Gaussian 09, Revision D.01,
 Gaussian 09:  ES64L-G09RevD.01 24-Apr-2013

 --------------------
 #p B2PLYPD3/Def2QZVP
 --------------------

 ----------
 butane_opt
 ----------
 Symbolic Z-matrix:
 Charge =  0 Multiplicity = 1

                         Standard orientation:
 ---------------------------------------------------------------------
 Center     Atomic      Atomic             Coordinates (Angstroms)
 Number     Number       Type             X           Y           Z
 ---------------------------------------------------------------------
      1          6           0       -1.903595   -0.206139   -0.122226
      2          6           0       -0.601926    0.524614    0.025276
      3          1           0       -2.698880    0.517130    0.094064
      4          1           0       -2.036590   -0.406628    0.479066
      5          1           0       -2.162850   -0.935539   -1.036900
      6          6           0        0.569124   -0.404517    0.271500
      7          1           0       -0.481583    1.617810    1.017744
      8          1           0       -0.124849    0.899833   -0.805759
      9          6           0        1.925704    0.074507   -0.200694
     10          1           0        0.274949   -1.004818   -0.295136
     11          1           0        0.590477   -1.289278    1.513906
     12          1           0        1.533924    0.535331   -1.008741
     13          1           0        2.909279   -0.914213   -0.386701
     14          1           0        2.260284    1.049581    0.585322
 ---------------------------------------------------------------------

 SCF Done:  E(RB2PLYPD3) =  -157.515625691     A.U. after   12 cycles
 E2(B2PLYPD3) =    -0.2553244951D+00 E(B2PLYPD3) =    -0.15777095018565D+03

 The electronic state is 1-A.
 Alpha  occ. eigenvalues --  -10.64897 -10.64726 -10.62046 -10.58666  -0.96280
 Alpha  occ. eigenvalues --   -0.89291  -0.75776  -0.67396  -0.54311  -0.51174
 Alpha  occ. eigenvalues --   -0.49401  -0.47583  -0.43133  -0.40513  -0.39517
 Alpha  occ. eigenvalues --   -0.35492  -0.33440
 Alpha virt. eigenvalues --    0.03627   0.05819   0.06190   0.06708   0.09512
 Alpha virt. eigenvalues --    0.10954   0.12241   0.13239   0.14211   0.15057
 Alpha virt. eigenvalues --    0.15566   0.15701   0.17670   0.18691   0.20184

 Mulliken charges:
               1
     1  C   -0.690294
     2  C   -0.013388
     3  H    0.064612
     4  H    0.521657
     5  H    0.084198
     6  C   -0.133340
     7  H   -0.015673
     8  H    0.066008
     9  C   -0.195796
    10  H    0.173311
    11  H   -0.045620
    12  H    0.081888
    13  H    0.060294
    14  H    0.042145
 Sum of Mulliken charges =   0.00000

 Dipole moment (field-independent basis, Debye):
    X=             -0.5954    Y=             -0.2324    Z=             -0.9399  Tot=              1.1366
 Quadrupole moment (field-independent basis, Debye-Ang):
   XX=            -28.8447   YY=            -30.1689   ZZ=            -29.8508
   XY=              0.4592   XZ=             -0.7296   YZ=              1.3200

 Normal termination of Gaussian 09 at Wed Aug 26 15:51:48 2020.
