 Gaussian 09, Revision D.01,
 Gaussian 09:  ES64L-G09RevD.01 24-Apr-2013

 --------------------
 #p B2PLYPD3/Def2QZVP
 --------------------

 ----------
 butane_opt
 ----------
 Symbolic Z-matrix:
 Charge =  0 Multiplicity = 1

                         Standard orientation:
 ---------------------------------------------------------------------
 Center     Atomic      Atomic             Coordinates (Angstroms)
 Number     Number       Type             X           Y           Z
 ---------------------------------------------------------------------
      1          6           0       -1.950562   -0.150669   -0.051458
      2          6           0       -0.538965    0.601183   -0.002216
      3          1           0       -2.652083    0.639806    0.314781
      4          1           0       -2.080798   -0.901620    0.893058
      5          1           0       -2.151056   -0.957726   -0.933954
      6          6           0        0.576755   -0.456386   -0.039511
      7          1           0        0.028507    1.371170    0.974248
      8          1           0       -0.396283    1.234611   -0.791114
      9          6           0        1.860353    0.034217   -0.014166
     10          1           0        0.629762   -0.992260   -0.787756
     11          1           0        0.566284   -1.325247    1.037372
     12          1           0        1.858091    0.747174   -0.942163
     13          1           0        2.624873   -0.610685    0.037286
     14          1           0        1.887219    0.624707    0.842348
 ---------------------------------------------------------------------

 SCF Done:  E(RB2PLYPD3) =  -157.951366745     A.U. after   11 cycles
 E2(B2PLYPD3) =    -0.2518380080D+00 E(B2PLYPD3) =    -0.15820320475278D+03

 The electronic state is 1-A.
 Alpha  occ. eigenvalues --  -10.64056 -10.63824 -10.59827 -10.57915  -0.94036
 Alpha  occ. eigenvalues --   -0.83400  -0.71898  -0.67319  -0.55285  -0.51845
 Alpha  occ. eigenvalues --   -0.49384  -0.46265  -0.42862  -0.40213  -0.37279
 Alpha  occ. eigenvalues --   -0.36653  -0.34312
 Alpha virt. eigenvalues --    0.05079   0.05887   0.07212   0.07883   0.10508
 Alpha virt. eigenvalues --    0.11763   0.12335   0.12860   0.13894   0.14711
 Alpha virt. eigenvalues --    0.15227   0.17049   0.18820   0.19726   0.21224

 Mulliken charges:
               1
     1  C   -0.161126
     2  C   -0.071128
     3  H    0.060707
     4  H    0.034076
     5  H    0.068414
     6  C   -0.030824
     7  H    0.013665
     8  H    0.066184
     9  C   -0.130698
    10  H    0.073609
    11  H   -0.040893
    12  H    0.020682
    13  H    0.056098
    14  H    0.041233
 Sum of Mulliken charges =   0.00000

 Dipole moment (field-independent basis, Debye):
    X=              0.0764    Y=             -0.0722    Z=             -0.5060  Tot=              0.5168
 Quadrupole moment (field-independent basis, Debye-Ang):
   XX=            -29.6932   YY=            -29.4556   ZZ=            -29.0873
   XY=             -0.3048   XZ=              0.1531   YZ=              0.5870

 Normal termination of Gaussian 09 at Wed Aug 26 12:29:53 2020.
