 Gaussian 09, Revision D.01,
 Gaussian 09:  ES64L-G09RevD.01 24-Apr-2013

 --------------------
 #p B2PLYPD3/Def2QZVP
 --------------------

 ----------
 butane_opt
 ----------
 Symbolic Z-matrix:
 Charge =  0 Multiplicity = 1

                         Standard orientation:
 ---------------------------------------------------------------------
 Center     Atomic      Atomic             Coordinates (Angstroms)
 Number     Number       Type             X           Y           Z
 ---------------------------------------------------------------------
      1          6           0       -2.024792   -0.145451    0.107666
      2          6           0       -0.519384    0.548676   -0.156815
      3          1           0       -2.714888    0.616393   -0.122003
      4          1           0       -1.823725   -0.630045    1.132392
      5          1           0       -2.089426   -0.929665   -0.739066
      6          6           0        0.542943   -0.442714    0.042968
      7          1           0       -0.394427    0.977542    0.475766
      8          1           0        0.028343    1.503094   -1.346749
      9          6           0        1.885466    0.029006    0.056708
     10          1           0        0.448511   -1.349074   -0.859590
     11          1           0        0.484174   -0.873086    1.000666
     12          1           0        1.783727    0.289400   -0.594256
     13          1           0        2.749758   -0.996416   -0.477596
     14          1           0        2.222561    1.454748    1.227269
 ---------------------------------------------------------------------

 SCF Done:  E(RB2PLYPD3) =  -157.454188805     A.U. after   13 cycles
 E2(B2PLYPD3) =    -0.2606426065D+00 E(B2PLYPD3) =    -0.15771483141115D+03

 The electronic state is 1-A.
 Alpha  occ. eigenvalues --  -10.63906 -10.63764 -10.62547 -10.62458  -0.97559
 Alpha  occ. eigenvalues --   -0.87106  -0.75909  -0.68727  -0.55903  -0.51381
 Alpha  occ. eigenvalues --   -0.47102  -0.45172  -0.42816  -0.39970  -0.38145
 Alpha  occ. eigenvalues --   -0.35175  -0.33136
 Alpha virt. eigenvalues --   -0.02298   0.02910   0.04506   0.06180   0.09307
 Alpha virt. eigenvalues --    0.10536   0.11630   0.12533   0.13466   0.14271
 Alpha virt. eigenvalues --    0.14511   0.15893   0.17639   0.18789   0.19965

 Mulliken charges:
               1
     1  C   -0.158480
     2  C   -0.396626
     3  H    0.082944
     4  H    0.081320
     5  H    0.055066
     6  C    0.021766
     7  H    0.361317
     8  H   -0.025006
     9  C   -0.615284
    10  H    0.008360
    11  H    0.048051
    12  H    0.503957
    13  H    0.044208
    14  H   -0.011593
 Sum of Mulliken charges =   0.00000

 Dipole moment (field-independent basis, Debye):
    X=             -0.9688    Y=             -0.5623    Z=              0.0244  Tot=              1.1204
 Quadrupole moment (field-independent basis, Debye-Ang):
   XX=            -32.2236   YY=            -30.2338   ZZ=            -29.2529
   XY=             -0.9211   XZ=             -1.7411   YZ=              1.1216

 Normal termination of Gaussian 09 at Wed Aug 26 22:18:54 2020.
