 Gaussian 09, Revision D.01,
 Gaussian 09:  ES64L-G09RevD.01 24-Apr-2013

 --------------------
 #p B2PLYPD3/Def2QZVP
 --------------------

 ----------
 butane_opt
 ----------
 Symbolic Z-matrix:
 Charge =  0 Multiplicity = 1

                         Standard orientation:
 ---------------------------------------------------------------------
 Center     Atomic      Atomic             Coordinates (Angstroms)
 Number     Number       Type             X           Y           Z
 ---------------------------------------------------------------------
      1          6           0       -1.948300    0.096205    0.171338
      2          6           0       -0.559560   -0.505790   -0.224614
      3          1           0       -2.735206   -0.618263    0.083353
      4          1           0       -2.226076    0.485663   -0.553668
      5          1           0       -1.919353    0.774785    1.304457
      6          6           0        0.576917    0.633810   -0.179688
      7          1           0       -0.749770   -1.181850   -1.248471
      8          1           0       -0.533941   -1.041984    0.467815
      9          6           0        2.021434   -0.205208    0.134558
     10          1           0        0.316167    1.091749    0.527627
     11          1           0        0.602547    1.579022   -1.109262
     12          1           0        1.413990   -0.886780    1.082860
     13          1           0        2.586124    0.269484    0.639307
     14          1           0        2.702574   -0.585930   -0.603577
 ---------------------------------------------------------------------

 SCF Done:  E(RB2PLYPD3) =  -157.811167448     A.U. after   11 cycles
 E2(B2PLYPD3) =    -0.2505072428D+00 E(B2PLYPD3) =    -0.15806167469037D+03

 The electronic state is 1-A.
 Alpha  occ. eigenvalues --  -10.62807 -10.60994 -10.60344 -10.59083  -0.91224
 Alpha  occ. eigenvalues --   -0.83838  -0.76151  -0.70602  -0.53222  -0.49414
 Alpha  occ. eigenvalues --   -0.48209  -0.47110  -0.43375  -0.40169  -0.37707
 Alpha  occ. eigenvalues --   -0.37423  -0.35584
 Alpha virt. eigenvalues --    0.05171   0.06571   0.07715   0.07904   0.10442
 Alpha virt. eigenvalues --    0.11641   0.12585   0.13563   0.14526   0.15188
 Alpha virt. eigenvalues --    0.16517   0.16653   0.17920   0.18807   0.20568

 Mulliken charges:
               1
     1  C   -0.225696
     2  C   -0.143337
     3  H    0.032811
     4  H    0.121350
     5  H    0.031719
     6  C   -0.177948
     7  H    0.011022
     8  H    0.183899
     9  C   -0.188992
    10  H    0.161811
    11  H    0.013139
    12  H    0.012097
    13  H    0.103458
    14  H    0.064666
 Sum of Mulliken charges =   0.00000

 Dipole moment (field-independent basis, Debye):
    X=              0.0542    Y=              0.1399    Z=              0.1651  Tot=              0.2231
 Quadrupole moment (field-independent basis, Debye-Ang):
   XX=            -27.8078   YY=            -29.7369   ZZ=            -28.4129
   XY=              1.0689   XZ=              0.4418   YZ=              0.5901

 Normal termination of Gaussian 09 at Wed Aug 26 11:56:18 2020.
