 Gaussian 09, Revision D.01,
 Gaussian 09:  ES64L-G09RevD.01 24-Apr-2013

 --------------------
 #p B2PLYPD3/Def2QZVP
 --------------------

 ----------
 butane_opt
 ----------
 Symbolic Z-matrix:
 Charge =  0 Multiplicity = 1

                         Standard orientation:
 ---------------------------------------------------------------------
 Center     Atomic      Atomic             Coordinates (Angstroms)
 Number     Number       Type             X           Y           Z
 ---------------------------------------------------------------------
      1          6           0        1.925835   -0.110758    0.001873
      2          6           0        0.654453    0.456659   -0.059155
      3          1           0        2.899640    0.946016    0.036545
      4          1           0        1.960785   -0.519348   -0.612454
      5          1           0        2.023244   -0.914475    1.162720
      6          6           0       -0.543776   -0.584318    0.005890
      7          1           0        0.270448    1.206381   -1.200264
      8          1           0        0.660512    0.822745    0.620275
      9          6           0       -1.984033    0.132709    0.061923
     10          1           0       -0.443190   -0.859010    0.631709
     11          1           0       -0.592586   -1.335845   -0.930029
     12          1           0       -2.385928    1.156185    1.097769
     13          1           0       -2.653584   -0.454381   -0.310929
     14          1           0       -2.054214    0.585985   -0.558526
 ---------------------------------------------------------------------

 SCF Done:  E(RB2PLYPD3) =  -157.238317599     A.U. after   12 cycles
 E2(B2PLYPD3) =    -0.2517302177D+00 E(B2PLYPD3) =    -0.15749004781716D+03

 The electronic state is 1-A.
 Alpha  occ. eigenvalues --  -10.62076 -10.59614 -10.59583 -10.58984  -0.96739
 Alpha  occ. eigenvalues --   -0.89116  -0.80704  -0.74153  -0.56568  -0.50663
 Alpha  occ. eigenvalues --   -0.47809  -0.47137  -0.44652  -0.41814  -0.39853
 Alpha  occ. eigenvalues --   -0.37442  -0.33262
 Alpha virt. eigenvalues --    0.04184   0.04568   0.05517   0.07356   0.10114
 Alpha virt. eigenvalues --    0.10760   0.11435   0.12606   0.14621   0.15290
 Alpha virt. eigenvalues --    0.15533   0.16046   0.18679   0.19402   0.20537

 Mulliken charges:
               1
     1  C   -0.459086
     2  C   -0.290318
     3  H    0.034543
     4  H    0.353497
     5  H    0.024293
     6  C   -0.501240
     7  H    0.003249
     8  H    0.338901
     9  C   -0.370367
    10  H    0.478334
    11  H    0.041058
    12  H    0.016539
    13  H    0.047059
    14  H    0.283539
 Sum of Mulliken charges =   0.00000

 Dipole moment (field-independent basis, Debye):
    X=             -0.1657    Y=             -0.3422    Z=             -0.4477  Tot=              0.5874
 Quadrupole moment (field-independent basis, Debye-Ang):
   XX=            -30.7820   YY=            -29.0342   ZZ=            -27.9997
   XY=              0.0773   XZ=              1.7254   YZ=              0.7047

 Normal termination of Gaussian 09 at Wed Aug 26 11:02:50 2020.
