 Gaussian 09, Revision D.01,
 Gaussian 09:  ES64L-G09RevD.01 24-Apr-2013

 --------------------
 #p B2PLYPD3/Def2QZVP
 --------------------

 ----------
 butane_opt
 ----------
 Symbolic Z-matrix:
 Charge =  0 Multiplicity = 1

                         Standard orientation:
 ---------------------------------------------------------------------
 Center     Atomic      Atomic             Coordinates (Angstroms)
 Number     Number       Type             X           Y           Z
 ---------------------------------------------------------------------
      1          6           0        1.916324   -0.003972   -0.164375
      2          6           0        0.607147   -0.231677    0.392005
      3          1           0        2.791087   -1.095519   -0.696569
      4          1           0        2.217253    1.023847    0.418423
      5          1           0        1.241918    0.126575   -1.018546
      6          6           0       -0.458435    0.521110   -0.051845
      7          1           0        0.484654   -0.760500    1.833183
      8          1           0        0.320886   -0.949717   -0.124209
      9          6           0       -1.928679   -0.227096   -0.120330
     10          1           0       -0.070096    0.850812   -1.003127
     11          1           0       -0.826214    1.728157    0.547048
     12          1           0       -2.137913   -1.292026   -0.846448
     13          1           0       -2.692621    0.434453   -0.235959
     14          1           0       -2.147100   -0.416276    0.793474
 ---------------------------------------------------------------------

 SCF Done:  E(RB2PLYPD3) =  -157.782498647     A.U. after   11 cycles
 E2(B2PLYPD3) =    -0.2588679950D+00 E(B2PLYPD3) =    -0.15804136664181D+03

 The electronic state is 1-A.
 Alpha  occ. eigenvalues --  -10.65575 -10.65303 -10.62733 -10.61378  -0.99381
 Alpha  occ. eigenvalues --   -0.84351  -0.75128  -0.65670  -0.56087  -0.49721
 Alpha  occ. eigenvalues --   -0.48250  -0.46771  -0.43152  -0.40694  -0.39601
 Alpha  occ. eigenvalues --   -0.33914  -0.32857
 Alpha virt. eigenvalues --    0.02770   0.04697   0.06119   0.06759   0.08922
 Alpha virt. eigenvalues --    0.10988   0.12014   0.12981   0.13613   0.13688
 Alpha virt. eigenvalues --    0.15331   0.16282   0.17719   0.19236   0.19961

 Mulliken charges:
               1
     1  C   -0.159146
     2  C   -0.113106
     3  H    0.055955
     4  H    0.065545
     5  H    0.040748
     6  C   -0.027363
     7  H   -0.050814
     8  H    0.158416
     9  C   -0.149667
    10  H    0.048558
    11  H   -0.026703
    12  H    0.022337
    13  H    0.048725
    14  H    0.086514
 Sum of Mulliken charges =   0.00000

 Dipole moment (field-independent basis, Debye):
    X=             -0.4288    Y=             -0.1330    Z=             -0.8617  Tot=              0.9716
 Quadrupole moment (field-independent basis, Debye-Ang):
   XX=            -29.8198   YY=            -30.1478   ZZ=            -30.9423
   XY=             -0.4577   XZ=             -1.0727   YZ=              1.6745

 Normal termination of Gaussian 09 at Wed Aug 26 22:56:39 2020.
