 Gaussian 09, Revision D.01,
 Gaussian 09:  ES64L-G09RevD.01 24-Apr-2013

 --------------------
 #p B2PLYPD3/Def2QZVP
 --------------------

 ----------
 butane_opt
 ----------
 Symbolic Z-matrix:
 Charge =  0 Multiplicity = 1

                         Standard orientation:
 ---------------------------------------------------------------------
 Center     Atomic      Atomic             Coordinates (Angstroms)
 Number     Number       Type             X           Y           Z
 ---------------------------------------------------------------------
      1          6           0       -1.928444    0.070144   -0.014976
      2          6           0       -0.565094   -0.461944   -0.028502
      3          1           0       -2.670844   -0.631853   -0.134235
      4          1           0       -1.951148    0.538771   -0.765739
      5          1           0       -2.185137    1.001902    1.080479
      6          6           0        0.529079    0.499118   -0.011368
      7          1           0       -0.328640   -1.134051   -0.966088
      8          1           0       -0.595845   -1.142003    0.868655
      9          6           0        1.959568   -0.135014    0.046818
     10          1           0        0.411161    1.169869    0.890361
     11          1           0        0.452897    1.162244   -0.868293
     12          1           0        2.258906   -0.962146    0.993107
     13          1           0        2.824683    0.610820   -0.383486
     14          1           0        1.813313   -0.447373   -0.666589
 ---------------------------------------------------------------------

 SCF Done:  E(RB2PLYPD3) =  -157.864892818     A.U. after   11 cycles
 E2(B2PLYPD3) =    -0.2498014201D+00 E(B2PLYPD3) =    -0.15811469423783D+03

 The electronic state is 1-A.
 Alpha  occ. eigenvalues --  -10.61333 -10.61078 -10.60000 -10.59878  -0.93970
 Alpha  occ. eigenvalues --   -0.86697  -0.75275  -0.66090  -0.55217  -0.51220
 Alpha  occ. eigenvalues --   -0.49572  -0.47133  -0.42388  -0.40182  -0.38973
 Alpha  occ. eigenvalues --   -0.37007  -0.35832
 Alpha virt. eigenvalues --    0.05303   0.05796   0.07531   0.07888   0.10213
 Alpha virt. eigenvalues --    0.11641   0.11828   0.13027   0.14089   0.15479
 Alpha virt. eigenvalues --    0.16222   0.16521   0.18870   0.19524   0.21938

 Mulliken charges:
               1
     1  C   -0.198533
     2  C   -0.010200
     3  H    0.059762
     4  H    0.108828
     5  H    0.005120
     6  C   -0.019054
     7  H    0.008529
     8  H    0.026332
     9  C   -0.448380
    10  H    0.022019
    11  H    0.033081
    12  H    0.062734
    13  H    0.040924
    14  H    0.308839
 Sum of Mulliken charges =   0.00000

 Dipole moment (field-independent basis, Debye):
    X=             -0.1760    Y=             -0.2721    Z=             -0.7157  Tot=              0.7857
 Quadrupole moment (field-independent basis, Debye-Ang):
   XX=            -30.2333   YY=            -29.5185   ZZ=            -28.1067
   XY=              0.5440   XZ=              0.1486   YZ=             -0.6855

 Normal termination of Gaussian 09 at Wed Aug 26 13:25:23 2020.
