 Gaussian 09, Revision D.01,
 Gaussian 09:  ES64L-G09RevD.01 24-Apr-2013

 --------------------
 #p B2PLYPD3/Def2QZVP
 --------------------

 ----------
 butane_opt
 ----------
 Symbolic Z-matrix:
 Charge =  0 Multiplicity = 1

                         Standard orientation:
 ---------------------------------------------------------------------
 Center     Atomic      Atomic             Coordinates (Angstroms)
 Number     Number       Type             X           Y           Z
 ---------------------------------------------------------------------
      1          6           0       -1.820067   -0.035956    0.155570
      2          6           0       -0.611695    0.352461   -0.256407
      3          1           0       -2.756150    0.871816    0.206769
      4          1           0       -1.744432   -0.630032    1.140209
      5          1           0       -2.192549   -0.657813   -0.550149
      6          6           0        0.461769   -0.541295   -0.083362
      7          1           0       -0.549246    0.976214    0.391839
      8          1           0       -0.426494    1.044332   -1.483727
      9          6           0        1.964485    0.156171    0.121969
     10          1           0        0.339397   -1.324868   -0.704497
     11          1           0        0.309374   -1.159285    1.000339
     12          1           0        2.276666    0.384042   -0.718122
     13          1           0        2.774473   -0.620697   -0.171946
     14          1           0        2.002008    1.528002    1.262657
 ---------------------------------------------------------------------

 SCF Done:  E(RB2PLYPD3) =  -157.758461913     A.U. after   12 cycles
 E2(B2PLYPD3) =    -0.2571551517D+00 E(B2PLYPD3) =    -0.15801561706425D+03

 The electronic state is 1-A.
 Alpha  occ. eigenvalues --  -10.65117 -10.62646 -10.60849 -10.59099  -0.96992
 Alpha  occ. eigenvalues --   -0.84732  -0.75785  -0.68220  -0.55189  -0.50977
 Alpha  occ. eigenvalues --   -0.50095  -0.46152  -0.39459  -0.38083  -0.36668
 Alpha  occ. eigenvalues --   -0.36379  -0.34507
 Alpha virt. eigenvalues --   -0.01078   0.05247   0.05889   0.06921   0.09914
 Alpha virt. eigenvalues --    0.10929   0.11503   0.13064   0.14140   0.14742
 Alpha virt. eigenvalues --    0.15461   0.16561   0.17913   0.19479   0.21037

 Mulliken charges:
               1
     1  C   -0.150639
     2  C   -0.087178
     3  H    0.022317
     4  H    0.052904
     5  H    0.047102
     6  C   -0.044237
     7  H    0.130901
     8  H   -0.015064
     9  C   -0.217851
    10  H    0.061134
    11  H    0.000549
    12  H    0.121486
    13  H    0.037646
    14  H    0.040932
 Sum of Mulliken charges =   0.00000

 Dipole moment (field-independent basis, Debye):
    X=              0.0753    Y=             -0.3485    Z=             -0.4607  Tot=              0.5825
 Quadrupole moment (field-independent basis, Debye-Ang):
   XX=            -30.4235   YY=            -29.5023   ZZ=            -29.3943
   XY=             -0.1973   XZ=             -2.2067   YZ=              1.4171

 Normal termination of Gaussian 09 at Wed Aug 26 19:58:13 2020.
