 Gaussian 09, Revision D.01,
 Gaussian 09:  ES64L-G09RevD.01 24-Apr-2013

 --------------------
 #p B2PLYPD3/Def2QZVP
 --------------------

 ----------
 butane_opt
 ----------
 Symbolic Z-matrix:
 Charge =  0 Multiplicity = 1

                         Standard orientation:
 ---------------------------------------------------------------------
 Center     Atomic      Atomic             Coordinates (Angstroms)
 Number     Number       Type             X           Y           Z
 ---------------------------------------------------------------------
      1          6           0       -2.075924   -0.203837    0.036560
      2          6           0       -0.515737    0.576959    0.042939
      3          1           0       -2.840400    0.746106   -0.611977
      4          1           0       -2.776527   -1.372625    1.104187
      5          1           0       -1.694180   -0.285122   -0.541196
      6          6           0        0.696455   -0.441628   -0.153222
      7          1           0       -0.209862    1.168021    0.942775
      8          1           0       -0.465669    1.546443   -0.742642
      9          6           0        1.913656    0.091190    0.111589
     10          1           0        0.461193   -1.152843   -1.221490
     11          1           0        0.621232   -1.105486    0.606789
     12          1           0        1.927097    0.510146   -0.494446
     13          1           0        2.770239   -0.785738   -0.271045
     14          1           0        2.096175    0.594992    1.001848
 ---------------------------------------------------------------------

 SCF Done:  E(RB2PLYPD3) =  -157.393047159     A.U. after   13 cycles
 E2(B2PLYPD3) =    -0.2599216092D+00 E(B2PLYPD3) =    -0.15765296876837D+03

 The electronic state is 1-A.
 Alpha  occ. eigenvalues --  -10.65512 -10.64636 -10.61738 -10.56922  -0.96526
 Alpha  occ. eigenvalues --   -0.89167  -0.75071  -0.67471  -0.57571  -0.49349
 Alpha  occ. eigenvalues --   -0.47631  -0.45333  -0.43252  -0.38373  -0.36481
 Alpha  occ. eigenvalues --   -0.35200  -0.34468
 Alpha virt. eigenvalues --   -0.01043   0.04795   0.06299   0.06908   0.09730
 Alpha virt. eigenvalues --    0.10541   0.11380   0.12492   0.14799   0.15195
 Alpha virt. eigenvalues --    0.15673   0.15962   0.17472   0.18843   0.19393

 Mulliken charges:
               1
     1  C   -0.681048
     2  C   -0.056707
     3  H    0.041566
     4  H    0.088485
     5  H    0.531556
     6  C   -0.035174
     7  H    0.031920
     8  H    0.010962
     9  C   -0.520124
    10  H    0.010997
    11  H    0.070343
    12  H    0.385989
    13  H    0.044211
    14  H    0.077024
 Sum of Mulliken charges =   0.00000

 Dipole moment (field-independent basis, Debye):
    X=              0.6713    Y=              0.0588    Z=             -0.0224  Tot=              0.6742
 Quadrupole moment (field-independent basis, Debye-Ang):
   XX=            -31.4794   YY=            -28.6336   ZZ=            -28.5343
   XY=              1.3443   XZ=              0.1113   YZ=             -1.1324

 Normal termination of Gaussian 09 at Wed Aug 26 15:00:00 2020.
