 Gaussian 09, Revision D.01,
 Gaussian 09:  ES64L-G09RevD.01 24-Apr-2013

 --------------------
 #p B2PLYPD3/Def2QZVP
 --------------------

 ----------
 butane_opt
 ----------
 Symbolic Z-matrix:
 Charge =  0 Multiplicity = 1

                         Standard orientation:
 ---------------------------------------------------------------------
 Center     Atomic      Atomic             Coordinates (Angstroms)
 Number     Number       Type             X           Y           Z
 ---------------------------------------------------------------------
      1          6           0       -1.943305    0.091380    0.041021
      2          6           0       -0.490772   -0.489309    0.049672
      3          1           0       -2.586176   -0.595246   -0.555434
      4          1           0       -1.820255    0.190470   -0.508646
      5          1           0       -2.396284    1.527291    1.213011
      6          6           0        0.525728    0.394487   -0.126918
      7          1           0       -0.255015   -1.279187   -0.730204
      8          1           0       -0.515783   -0.995960    0.836791
      9          6           0        1.902638   -0.073900    0.069304
     10          1           0        0.667004    0.933102    0.513499
     11          1           0        0.255177    1.296102   -1.400075
     12          1           0        2.003117   -0.804353    1.101467
     13          1           0        2.958788    0.954213   -0.012244
     14          1           0        1.723696   -0.762373   -0.656637
 ---------------------------------------------------------------------

 SCF Done:  E(RB2PLYPD3) =  -157.058918732     A.U. after   13 cycles
 E2(B2PLYPD3) =    -0.2624261144D+00 E(B2PLYPD3) =    -0.15732134484609D+03

 The electronic state is 1-A.
 Alpha  occ. eigenvalues --  -10.64850 -10.62999 -10.60772 -10.60393  -0.99615
 Alpha  occ. eigenvalues --   -0.92606  -0.78082  -0.69214  -0.59306  -0.50389
 Alpha  occ. eigenvalues --   -0.47346  -0.46527  -0.41757  -0.38820  -0.36695
 Alpha  occ. eigenvalues --   -0.34794  -0.33498
 Alpha virt. eigenvalues --   -0.02970   0.03025   0.04489   0.06383   0.09217
 Alpha virt. eigenvalues --    0.10656   0.11183   0.11951   0.13650   0.14872
 Alpha virt. eigenvalues --    0.16186   0.16270   0.18383   0.18786   0.19696

 Mulliken charges:
               1
     1  C   -0.946513
     2  C    0.014666
     3  H    0.067372
     4  H    0.776121
     5  H    0.040478
     6  C   -0.159827
     7  H    0.005667
     8  H    0.070505
     9  C   -0.217087
    10  H    0.189964
    11  H   -0.036872
    12  H    0.048429
    13  H    0.062433
    14  H    0.084665
 Sum of Mulliken charges =   0.00000

 Dipole moment (field-independent basis, Debye):
    X=              0.2692    Y=             -0.3994    Z=              0.1012  Tot=              0.4922
 Quadrupole moment (field-independent basis, Debye-Ang):
   XX=            -31.6001   YY=            -29.2869   ZZ=            -28.9608
   XY=              0.6489   XZ=              2.0695   YZ=              1.3675

 Normal termination of Gaussian 09 at Wed Aug 26 20:01:52 2020.
