 Gaussian 09, Revision D.01,
 Gaussian 09:  ES64L-G09RevD.01 24-Apr-2013

 --------------------
 #p B2PLYPD3/Def2QZVP
 --------------------

 ----------
 butane_opt
 ----------
 Symbolic Z-matrix:
 Charge =  0 Multiplicity = 1

                         Standard orientation:
 ---------------------------------------------------------------------
 Center     Atomic      Atomic             Coordinates (Angstroms)
 Number     Number       Type             X           Y           Z
 ---------------------------------------------------------------------
      1          6           0       -1.961155   -0.231292   -0.088279
      2          6           0       -0.480384    0.602919   -0.017487
      3          1           0       -2.905094    0.602536   -0.452294
      4          1           0       -2.052604   -0.530426    0.881791
      5          1           0       -2.105641   -1.206630   -0.929688
      6          6           0        0.621118   -0.328676    0.362459
      7          1           0       -0.600981    1.731725    0.652205
      8          1           0        0.065748    0.659074   -0.730754
      9          6           0        1.907563    0.004151   -0.226162
     10          1           0        0.354235   -0.837029   -0.147757
     11          1           0        0.527989   -0.966099    1.574983
     12          1           0        1.352239    0.176212   -0.984632
     13          1           0        2.589657   -0.940643   -0.635561
     14          1           0        2.251600    1.028676    0.588515
 ---------------------------------------------------------------------

 SCF Done:  E(RB2PLYPD3) =  -157.686908575     A.U. after   11 cycles
 E2(B2PLYPD3) =    -0.2561102432D+00 E(B2PLYPD3) =    -0.15794301881808D+03

 The electronic state is 1-A.
 Alpha  occ. eigenvalues --  -10.65560 -10.63043 -10.62740 -10.59840  -1.01019
 Alpha  occ. eigenvalues --   -0.82386  -0.73944  -0.69119  -0.56155  -0.50605
 Alpha  occ. eigenvalues --   -0.48123  -0.44982  -0.41752  -0.40445  -0.38609
 Alpha  occ. eigenvalues --   -0.36555  -0.34806
 Alpha virt. eigenvalues --    0.04398   0.05490   0.07329   0.07793   0.09712
 Alpha virt. eigenvalues --    0.11067   0.11941   0.12604   0.13439   0.14302
 Alpha virt. eigenvalues --    0.16053   0.16564   0.18045   0.18558   0.19869

 Mulliken charges:
               1
     1  C   -0.198149
     2  C   -0.126887
     3  H    0.039883
     4  H    0.110570
     5  H    0.034407
     6  C   -0.462903
     7  H    0.013560
     8  H    0.157934
     9  C   -0.192376
    10  H    0.439774
    11  H   -0.014570
    12  H    0.089839
    13  H    0.054842
    14  H    0.054076
 Sum of Mulliken charges =   0.00000

 Dipole moment (field-independent basis, Debye):
    X=             -0.1824    Y=             -0.3714    Z=             -0.5791  Tot=              0.7117
 Quadrupole moment (field-independent basis, Debye-Ang):
   XX=            -30.8730   YY=            -29.6222   ZZ=            -29.5275
   XY=             -0.4961   XZ=             -0.5666   YZ=              1.8253

 Normal termination of Gaussian 09 at Wed Aug 26 21:50:02 2020.
