 Gaussian 09, Revision D.01,
 Gaussian 09:  ES64L-G09RevD.01 24-Apr-2013

 --------------------
 #p B2PLYPD3/Def2QZVP
 --------------------

 ----------
 butane_opt
 ----------
 Symbolic Z-matrix:
 Charge =  0 Multiplicity = 1

                         Standard orientation:
 ---------------------------------------------------------------------
 Center     Atomic      Atomic             Coordinates (Angstroms)
 Number     Number       Type             X           Y           Z
 ---------------------------------------------------------------------
      1          6           0        1.838724   -0.109955    0.067808
      2          6           0        0.595119    0.484837   -0.233399
      3          1           0        2.641409    0.803664   -0.110904
      4          1           0        2.151511   -0.347432   -0.528925
      5          1           0        1.937371   -1.006354    1.353470
      6          6           0       -0.526918   -0.566695    0.052198
      7          1           0        0.644604    1.125535   -1.056997
      8          1           0        0.545413    1.286755    0.618138
      9          6           0       -1.953200    0.137231    0.057894
     10          1           0       -0.274968   -1.163258    0.965652
     11          1           0       -0.257173   -1.404426   -0.828027
     12          1           0       -2.468198    1.641363    1.173804
     13          1           0       -2.705163   -0.829688   -0.786264
     14          1           0       -1.937151    0.221332   -0.466957
 ---------------------------------------------------------------------

 SCF Done:  E(RB2PLYPD3) =  -156.784129352     A.U. after   13 cycles
 E2(B2PLYPD3) =    -0.2656169704D+00 E(B2PLYPD3) =    -0.15704974632255D+03

 The electronic state is 1-A.
 Alpha  occ. eigenvalues --  -10.67734 -10.64937 -10.61265 -10.61073  -0.95515
 Alpha  occ. eigenvalues --   -0.91535  -0.78201  -0.69113  -0.54622  -0.51591
 Alpha  occ. eigenvalues --   -0.47440  -0.43115  -0.41790  -0.38545  -0.36588
 Alpha  occ. eigenvalues --   -0.36026  -0.32395
 Alpha virt. eigenvalues --   -0.05387   0.02929   0.03831   0.06025   0.08895
 Alpha virt. eigenvalues --    0.09689   0.11046   0.12069   0.12933   0.14851
 Alpha virt. eigenvalues --    0.15397   0.17116   0.17266   0.18458   0.20006

 Mulliken charges:
               1
     1  C   -0.545840
     2  C    0.019107
     3  H    0.023700
     4  H    0.398099
     5  H    0.037522
     6  C   -0.006871
     7  H    0.040500
     8  H    0.025941
     9  C   -1.022073
    10  H    0.062884
    11  H    0.020253
    12  H    0.068022
    13  H   -0.007324
    14  H    0.886080
 Sum of Mulliken charges =   0.00000

 Dipole moment (field-independent basis, Debye):
    X=              0.8150    Y=              0.5239    Z=             -0.8516  Tot=              1.2899
 Quadrupole moment (field-independent basis, Debye-Ang):
   XX=            -34.2036   YY=            -28.5958   ZZ=            -28.1372
   XY=             -1.6565   XZ=             -0.8102   YZ=              0.2895

 Normal termination of Gaussian 09 at Wed Aug 26 23:23:12 2020.
