 Gaussian 09, Revision D.01,
 Gaussian 09:  ES64L-G09RevD.01 24-Apr-2013

 --------------------
 #p B2PLYPD3/Def2QZVP
 --------------------

 ----------
 butane_opt
 ----------
 Symbolic Z-matrix:
 Charge =  0 Multiplicity = 1

                         Standard orientation:
 ---------------------------------------------------------------------
 Center     Atomic      Atomic             Coordinates (Angstroms)
 Number     Number       Type             X           Y           Z
 ---------------------------------------------------------------------
      1          6           0       -2.004354   -0.153399   -0.106361
      2          6           0       -0.552824    0.534323    0.013113
      3          1           0       -2.746258    0.493274   -0.098561
      4          1           0       -2.454935   -0.359332    0.770032
      5          1           0       -1.922913   -1.150526   -1.023765
      6          6           0        0.528554   -0.464314    0.276613
      7          1           0       -0.331751    1.434366    0.792056
      8          1           0       -0.565286    1.013307   -0.842932
      9          6           0        1.956656    0.084093   -0.195680
     10          1           0        0.535185   -0.726213   -0.230885
     11          1           0        0.657496   -1.173700    1.402464
     12          1           0        1.832261    0.296939   -0.891032
     13          1           0        2.772612   -0.915569   -0.562849
     14          1           0        2.655395    1.083230    0.759361
 ---------------------------------------------------------------------

 SCF Done:  E(RB2PLYPD3) =  -157.146967087     A.U. after   12 cycles
 E2(B2PLYPD3) =    -0.2538832942D+00 E(B2PLYPD3) =    -0.15740085038138D+03

 The electronic state is 1-A.
 Alpha  occ. eigenvalues --  -10.63325 -10.61802 -10.61385 -10.60957  -0.97352
 Alpha  occ. eigenvalues --   -0.85837  -0.78276  -0.72037  -0.55847  -0.50928
 Alpha  occ. eigenvalues --   -0.49221  -0.44133  -0.41575  -0.39535  -0.38479
 Alpha  occ. eigenvalues --   -0.37290  -0.35033
 Alpha virt. eigenvalues --    0.03783   0.05452   0.07737   0.08045   0.08518
 Alpha virt. eigenvalues --    0.10094   0.11933   0.12925   0.13914   0.15423
 Alpha virt. eigenvalues --    0.15590   0.15912   0.18453   0.18916   0.20846

 Mulliken charges:
               1
     1  C   -0.156195
     2  C   -0.002723
     3  H    0.053583
     4  H    0.042140
     5  H    0.046802
     6  C   -0.943165
     7  H    0.017701
     8  H    0.064718
     9  C   -0.485681
    10  H    0.839042
    11  H    0.072831
    12  H    0.400861
    13  H    0.027497
    14  H    0.022589
 Sum of Mulliken charges =   0.00000

 Dipole moment (field-independent basis, Debye):
    X=             -0.7397    Y=             -0.0139    Z=             -0.4111  Tot=              0.8464
 Quadrupole moment (field-independent basis, Debye-Ang):
   XX=            -30.2557   YY=            -29.4038   ZZ=            -27.9416
   XY=             -1.0295   XZ=             -1.2366   YZ=              0.5464

 Normal termination of Gaussian 09 at Wed Aug 26 11:06:39 2020.
