 Gaussian 09, Revision D.01,
 Gaussian 09:  ES64L-G09RevD.01 24-Apr-2013

 --------------------
 #p B2PLYPD3/Def2QZVP
 --------------------

 ----------
 butane_opt
 ----------
 Symbolic Z-matrix:
 Charge =  0 Multiplicity = 1

                         Standard orientation:
 ---------------------------------------------------------------------
 Center     Atomic      Atomic             Coordinates (Angstroms)
 Number     Number       Type             X           Y           Z
 ---------------------------------------------------------------------
      1          6           0       -1.963154    0.090456    0.060538
      2          6           0       -0.598230   -0.485990   -0.096474
      3          1           0       -2.770464   -0.663575    0.209759
      4          1           0       -2.266133    0.895355   -0.879498
      5          1           0       -1.742923    0.556935    0.902209
      6          6           0        0.530284    0.557824    0.011725
      7          1           0       -0.666641   -1.195421   -1.074520
      8          1           0       -0.480005   -1.178928    0.770275
      9          6           0        2.034928   -0.144314   -0.026764
     10          1           0        0.379808    1.289730    0.928891
     11          1           0        0.354604    1.189024   -0.772058
     12          1           0        2.146567   -1.017726    1.058202
     13          1           0        2.792355    0.608902   -0.023102
     14          1           0        2.229868   -0.592151   -0.814306
 ---------------------------------------------------------------------

 SCF Done:  E(RB2PLYPD3) =  -158.005320669     A.U. after   11 cycles
 E2(B2PLYPD3) =    -0.2492450493D+00 E(B2PLYPD3) =    -0.15825456571806D+03

 The electronic state is 1-A.
 Alpha  occ. eigenvalues --  -10.62411 -10.61981 -10.61857 -10.60425  -0.91044
 Alpha  occ. eigenvalues --   -0.82980  -0.73865  -0.65536  -0.53550  -0.50744
 Alpha  occ. eigenvalues --   -0.48285  -0.46005  -0.42666  -0.39795  -0.38643
 Alpha  occ. eigenvalues --   -0.37452  -0.36327
 Alpha virt. eigenvalues --    0.05245   0.06211   0.07652   0.08568   0.10624
 Alpha virt. eigenvalues --    0.11337   0.12687   0.13322   0.14038   0.14986
 Alpha virt. eigenvalues --    0.15815   0.16230   0.18949   0.19621   0.21026

 Mulliken charges:
               1
     1  C   -0.158491
     2  C   -0.034429
     3  H    0.053171
     4  H    0.016226
     5  H    0.072477
     6  C   -0.049215
     7  H    0.009987
     8  H    0.035158
     9  C   -0.173756
    10  H    0.018057
    11  H    0.054475
    12  H    0.015219
    13  H    0.049252
    14  H    0.091870
 Sum of Mulliken charges =   0.00000

 Dipole moment (field-independent basis, Debye):
    X=              0.0958    Y=              0.1488    Z=             -0.1569  Tot=              0.2365
 Quadrupole moment (field-independent basis, Debye-Ang):
   XX=            -29.9212   YY=            -29.2673   ZZ=            -28.6336
   XY=              1.1666   XZ=             -0.9686   YZ=             -0.2742

 Normal termination of Gaussian 09 at Wed Aug 26 21:21:06 2020.
