 Gaussian 09, Revision D.01,
 Gaussian 09:  ES64L-G09RevD.01 24-Apr-2013

 --------------------
 #p B2PLYPD3/Def2QZVP
 --------------------

 ----------
 butane_opt
 ----------
 Symbolic Z-matrix:
 Charge =  0 Multiplicity = 1

                         Standard orientation:
 ---------------------------------------------------------------------
 Center     Atomic      Atomic             Coordinates (Angstroms)
 Number     Number       Type             X           Y           Z
 ---------------------------------------------------------------------
      1          6           0       -1.972701    0.018698   -0.225213
      2          6           0       -0.599263   -0.456293    0.335213
      3          1           0       -2.697038   -0.516498   -0.782194
      4          1           0       -1.847938    0.237400   -0.907835
      5          1           0       -2.425213    0.930482    0.659935
      6          6           0        0.543116    0.609756    0.064718
      7          1           0       -0.401338   -0.781637   -0.127348
      8          1           0       -0.322416   -1.350519    1.557309
      9          6           0        1.953176   -0.150122   -0.180622
     10          1           0        0.470638    1.464375    0.996699
     11          1           0        0.351779    0.942370   -0.574355
     12          1           0        2.570058   -0.409717    0.521156
     13          1           0        2.666126    0.508649   -0.284310
     14          1           0        2.089372   -1.157139   -1.023631
 ---------------------------------------------------------------------

 SCF Done:  E(RB2PLYPD3) =  -157.082071347     A.U. after   12 cycles
 E2(B2PLYPD3) =    -0.2522063992D+00 E(B2PLYPD3) =    -0.15733427774604D+03

 The electronic state is 1-A.
 Alpha  occ. eigenvalues --  -10.61448 -10.61202 -10.60545 -10.59412  -0.97006
 Alpha  occ. eigenvalues --   -0.87833  -0.81794  -0.75891  -0.55209  -0.51952
 Alpha  occ. eigenvalues --   -0.47458  -0.46498  -0.43136  -0.39949  -0.38400
 Alpha  occ. eigenvalues --   -0.37497  -0.35390
 Alpha virt. eigenvalues --    0.04437   0.05864   0.06723   0.08111   0.10033
 Alpha virt. eigenvalues --    0.11342   0.12537   0.13458   0.13767   0.15457
 Alpha virt. eigenvalues --    0.16729   0.17240   0.17752   0.19072   0.20911

 Mulliken charges:
               1
     1  C   -0.481296
     2  C   -0.840581
     3  H    0.054724
     4  H    0.384344
     5  H    0.044432
     6  C   -0.369526
     7  H    0.794717
     8  H    0.014617
     9  C   -0.148053
    10  H    0.039690
    11  H    0.381380
    12  H    0.046148
    13  H    0.054648
    14  H    0.024756
 Sum of Mulliken charges =   0.00000

 Dipole moment (field-independent basis, Debye):
    X=              0.5126    Y=              0.2951    Z=             -0.9697  Tot=              1.1359
 Quadrupole moment (field-independent basis, Debye-Ang):
   XX=            -27.7727   YY=            -29.3610   ZZ=            -28.0776
   XY=             -0.3050   XZ=              2.4752   YZ=              1.1816

 Normal termination of Gaussian 09 at Wed Aug 26 18:39:56 2020.
