 Gaussian 09, Revision D.01,
 Gaussian 09:  ES64L-G09RevD.01 24-Apr-2013

 --------------------
 #p B2PLYPD3/Def2QZVP
 --------------------

 ----------
 butane_opt
 ----------
 Symbolic Z-matrix:
 Charge =  0 Multiplicity = 1

                         Standard orientation:
 ---------------------------------------------------------------------
 Center     Atomic      Atomic             Coordinates (Angstroms)
 Number     Number       Type             X           Y           Z
 ---------------------------------------------------------------------
      1          6           0       -1.946431   -0.164488    0.085199
      2          6           0       -0.568685    0.608964   -0.101384
      3          1           0       -2.668175    0.415944   -0.595864
      4          1           0       -2.325194   -1.158016    1.191824
      5          1           0       -2.243085   -0.213490   -0.323581
      6          6           0        0.531653   -0.509919   -0.103236
      7          1           0       -0.305853    1.450466    0.890855
      8          1           0       -0.346708    1.211607   -1.028883
      9          6           0        1.968571    0.084606    0.129995
     10          1           0        0.747762   -1.199685   -1.145459
     11          1           0        0.244244   -1.211421    0.791096
     12          1           0        1.825223    0.357247   -0.648665
     13          1           0        2.854813   -0.745418   -0.356652
     14          1           0        2.306330    0.977791    1.161884
 ---------------------------------------------------------------------

 SCF Done:  E(RB2PLYPD3) =  -156.796040784     A.U. after   13 cycles
 E2(B2PLYPD3) =    -0.2629506332D+00 E(B2PLYPD3) =    -0.15705899141669D+03

 The electronic state is 1-A.
 Alpha  occ. eigenvalues --  -10.66382 -10.66110 -10.64308 -10.61514  -1.00778
 Alpha  occ. eigenvalues --   -0.90050  -0.78017  -0.64175  -0.53867  -0.49623
 Alpha  occ. eigenvalues --   -0.45997  -0.43489  -0.41577  -0.38412  -0.37174
 Alpha  occ. eigenvalues --   -0.35094  -0.29548
 Alpha virt. eigenvalues --    0.01447   0.04659   0.05260   0.06292   0.08784
 Alpha virt. eigenvalues --    0.10239   0.11369   0.12292   0.13752   0.15230
 Alpha virt. eigenvalues --    0.15985   0.16811   0.17249   0.18433   0.19375

 Mulliken charges:
               1
     1  C   -1.016653
     2  C   -0.075757
     3  H    0.051724
     4  H    0.094479
     5  H    0.879979
     6  C   -0.024456
     7  H    0.036014
     8  H    0.040438
     9  C   -0.377740
    10  H    0.027510
    11  H    0.028432
    12  H    0.256398
    13  H    0.020683
    14  H    0.058950
 Sum of Mulliken charges =   0.00000

 Dipole moment (field-independent basis, Debye):
    X=             -0.7749    Y=              0.0179    Z=             -1.1320  Tot=              1.3720
 Quadrupole moment (field-independent basis, Debye-Ang):
   XX=            -30.5869   YY=            -30.2899   ZZ=            -27.6579
   XY=              1.5981   XZ=              1.3979   YZ=             -0.6515

 Normal termination of Gaussian 09 at Wed Aug 26 22:52:00 2020.
