 Gaussian 09, Revision D.01,
 Gaussian 09:  ES64L-G09RevD.01 24-Apr-2013

 --------------------
 #p B2PLYPD3/Def2QZVP
 --------------------

 ----------
 butane_opt
 ----------
 Symbolic Z-matrix:
 Charge =  0 Multiplicity = 1

                         Standard orientation:
 ---------------------------------------------------------------------
 Center     Atomic      Atomic             Coordinates (Angstroms)
 Number     Number       Type             X           Y           Z
 ---------------------------------------------------------------------
      1          6           0       -2.032453   -0.219888    0.172140
      2          6           0       -0.498292    0.686358   -0.230426
      3          1           0       -2.833754    0.436054    0.607864
      4          1           0       -1.620904   -0.978225    1.061960
      5          1           0       -2.694112   -0.794409   -0.814331
      6          6           0        0.630061   -0.464173   -0.169184
      7          1           0       -0.282518    1.199915    0.557801
      8          1           0       -0.709937    1.389809   -1.122509
      9          6           0        1.893127    0.036521    0.166967
     10          1           0        0.759170   -0.995836   -1.207203
     11          1           0        0.456512   -0.999681    0.602856
     12          1           0        2.102392    0.286046   -0.452566
     13          1           0        2.698004   -0.621676   -0.178348
     14          1           0        2.170481    0.845095    1.307494
 ---------------------------------------------------------------------

 SCF Done:  E(RB2PLYPD3) =  -157.684081003     A.U. after   11 cycles
 E2(B2PLYPD3) =    -0.2530931573D+00 E(B2PLYPD3) =    -0.15793717416034D+03

 The electronic state is 1-A.
 Alpha  occ. eigenvalues --  -10.65106 -10.62543 -10.60213 -10.57917  -0.95940
 Alpha  occ. eigenvalues --   -0.82977  -0.73441  -0.69111  -0.54836  -0.49086
 Alpha  occ. eigenvalues --   -0.48198  -0.45618  -0.40956  -0.40162  -0.39606
 Alpha  occ. eigenvalues --   -0.35864  -0.34066
 Alpha virt. eigenvalues --    0.05141   0.05728   0.06683   0.08484   0.10134
 Alpha virt. eigenvalues --    0.11085   0.12043   0.13767   0.13847   0.14681
 Alpha virt. eigenvalues --    0.15508   0.16540   0.17392   0.19108   0.21447

 Mulliken charges:
               1
     1  C   -0.213099
     2  C   -0.101846
     3  H    0.058980
     4  H    0.046858
     5  H    0.041598
     6  C   -0.017820
     7  H    0.088763
     8  H    0.046144
     9  C   -0.590543
    10  H    0.023140
    11  H    0.096771
    12  H    0.438510
    13  H    0.035935
    14  H    0.046608
 Sum of Mulliken charges =   0.00000

 Dipole moment (field-independent basis, Debye):
    X=              0.4821    Y=              0.3265    Z=             -0.3251  Tot=              0.6668
 Quadrupole moment (field-independent basis, Debye-Ang):
   XX=            -29.6186   YY=            -29.7669   ZZ=            -27.8546
   XY=             -0.6565   XZ=             -1.0007   YZ=              0.4508

 Normal termination of Gaussian 09 at Wed Aug 26 14:40:48 2020.
