 Gaussian 09, Revision D.01,
 Gaussian 09:  ES64L-G09RevD.01 24-Apr-2013

 --------------------
 #p B2PLYPD3/Def2QZVP
 --------------------

 ----------
 butane_opt
 ----------
 Symbolic Z-matrix:
 Charge =  0 Multiplicity = 1

                         Standard orientation:
 ---------------------------------------------------------------------
 Center     Atomic      Atomic             Coordinates (Angstroms)
 Number     Number       Type             X           Y           Z
 ---------------------------------------------------------------------
      1          6           0       -1.874800    0.050819   -0.087720
      2          6           0       -0.629182   -0.438878    0.087839
      3          1           0       -2.618526   -0.570661    0.030222
      4          1           0       -1.828798    0.725809   -0.991544
      5          1           0       -1.833154    0.614980    0.658043
      6          6           0        0.502286    0.530626    0.081722
      7          1           0       -0.075125   -1.126258   -0.835345
      8          1           0       -0.652205   -1.152116    1.033227
      9          6           0        1.867499   -0.128882   -0.093413
     10          1           0        0.540286    1.597869    1.204151
     11          1           0        0.306041    0.896197   -0.771280
     12          1           0        2.458017   -1.000515    1.003993
     13          1           0        2.634550    0.436916   -0.379684
     14          1           0        1.874095   -0.504331   -0.882347
 ---------------------------------------------------------------------

 SCF Done:  E(RB2PLYPD3) =  -157.828661013     A.U. after   11 cycles
 E2(B2PLYPD3) =    -0.2521154886D+00 E(B2PLYPD3) =    -0.15808077650113D+03

 The electronic state is 1-A.
 Alpha  occ. eigenvalues --  -10.63782 -10.62674 -10.60710 -10.56856  -0.96728
 Alpha  occ. eigenvalues --   -0.88648  -0.76752  -0.65034  -0.55853  -0.55189
 Alpha  occ. eigenvalues --   -0.50125  -0.48958  -0.43499  -0.40111  -0.38947
 Alpha  occ. eigenvalues --   -0.36493  -0.33160
 Alpha virt. eigenvalues --    0.04376   0.05621   0.06369   0.07748   0.09719
 Alpha virt. eigenvalues --    0.10817   0.12527   0.13250   0.14673   0.15284
 Alpha virt. eigenvalues --    0.15986   0.16468   0.18762   0.19011   0.21363

 Mulliken charges:
               1
     1  C   -0.145998
     2  C   -0.009432
     3  H    0.055596
     4  H    0.031131
     5  H    0.090805
     6  C   -0.107707
     7  H   -0.006304
     8  H    0.019684
     9  C   -0.203743
    10  H   -0.034236
    11  H    0.132551
    12  H    0.010783
    13  H    0.049674
    14  H    0.117198
 Sum of Mulliken charges =   0.00000

 Dipole moment (field-independent basis, Debye):
    X=             -0.3743    Y=             -0.0135    Z=             -0.7736  Tot=              0.8595
 Quadrupole moment (field-independent basis, Debye-Ang):
   XX=            -28.5275   YY=            -31.0915   ZZ=            -28.4927
   XY=              0.6279   XZ=             -2.0746   YZ=             -0.9910

 Normal termination of Gaussian 09 at Wed Aug 26 15:24:42 2020.
