 Gaussian 09, Revision D.01,
 Gaussian 09:  ES64L-G09RevD.01 24-Apr-2013

 --------------------
 #p B2PLYPD3/Def2QZVP
 --------------------

 ----------
 butane_opt
 ----------
 Symbolic Z-matrix:
 Charge =  0 Multiplicity = 1

                         Standard orientation:
 ---------------------------------------------------------------------
 Center     Atomic      Atomic             Coordinates (Angstroms)
 Number     Number       Type             X           Y           Z
 ---------------------------------------------------------------------
      1          6           0       -1.860587    0.111622    0.094146
      2          6           0       -0.610955   -0.425389   -0.137004
      3          1           0       -2.775901   -0.778607   -0.084571
      4          1           0       -2.336494    0.614827   -0.582659
      5          1           0       -1.819511    0.942601    1.334545
      6          6           0        0.523624    0.473959   -0.059529
      7          1           0       -0.551745   -1.154833   -1.096226
      8          1           0       -0.607827   -1.055179    0.691628
      9          6           0        1.987446   -0.171686    0.061785
     10          1           0        0.565181    1.066025    0.656344
     11          1           0        0.425533    1.263490   -1.000379
     12          1           0        2.129175   -1.082885    1.199895
     13          1           0        2.807732    0.719320   -0.190224
     14          1           0        1.926688   -0.465797   -0.684739
 ---------------------------------------------------------------------

 SCF Done:  E(RB2PLYPD3) =  -157.788115300     A.U. after   11 cycles
 E2(B2PLYPD3) =    -0.2534588502D+00 E(B2PLYPD3) =    -0.15804157415005D+03

 The electronic state is 1-A.
 Alpha  occ. eigenvalues --  -10.63538 -10.61953 -10.60563 -10.60336  -0.94613
 Alpha  occ. eigenvalues --   -0.86078  -0.74486  -0.67865  -0.56221  -0.50662
 Alpha  occ. eigenvalues --   -0.49292  -0.46032  -0.41609  -0.39276  -0.37215
 Alpha  occ. eigenvalues --   -0.36771  -0.34697
 Alpha virt. eigenvalues --    0.03975   0.04687   0.06205   0.07297   0.10218
 Alpha virt. eigenvalues --    0.10846   0.11227   0.12539   0.13671   0.14880
 Alpha virt. eigenvalues --    0.15348   0.15778   0.18630   0.19402   0.21910

 Mulliken charges:
               1
     1  C   -0.165529
     2  C    0.019583
     3  H    0.012984
     4  H    0.063708
     5  H    0.011463
     6  C   -0.082589
     7  H    0.013304
     8  H    0.061980
     9  C   -0.394362
    10  H    0.090475
    11  H   -0.005657
    12  H    0.049170
    13  H    0.044317
    14  H    0.281154
 Sum of Mulliken charges =   0.00000

 Dipole moment (field-independent basis, Debye):
    X=             -0.0503    Y=             -0.0455    Z=             -0.4991  Tot=              0.5036
 Quadrupole moment (field-independent basis, Debye-Ang):
   XX=            -31.2827   YY=            -29.5631   ZZ=            -28.6872
   XY=              0.6591   XZ=              1.0837   YZ=             -0.1413

 Normal termination of Gaussian 09 at Wed Aug 26 11:31:35 2020.
