 Gaussian 09, Revision D.01,
 Gaussian 09:  ES64L-G09RevD.01 24-Apr-2013

 --------------------
 #p B2PLYPD3/Def2QZVP
 --------------------

 ----------
 butane_opt
 ----------
 Symbolic Z-matrix:
 Charge =  0 Multiplicity = 1

                         Standard orientation:
 ---------------------------------------------------------------------
 Center     Atomic      Atomic             Coordinates (Angstroms)
 Number     Number       Type             X           Y           Z
 ---------------------------------------------------------------------
      1          6           0        1.975128    0.184693   -0.073880
      2          6           0        0.598816   -0.536263   -0.011125
      3          1           0        2.476102   -0.405280   -0.104092
      4          1           0        2.101398    0.264042    0.580570
      5          1           0        1.884653    1.252109   -0.910161
      6          6           0       -0.586307    0.345095    0.333153
      7          1           0        0.420921   -1.237896    0.746542
      8          1           0        0.290502   -1.013853   -0.955222
      9          6           0       -1.916625   -0.077829   -0.137236
     10          1           0       -0.300459    1.086514   -0.235408
     11          1           0       -0.675636    0.916100    1.368069
     12          1           0       -1.428057   -0.435841   -1.074443
     13          1           0       -2.855976    1.023496   -0.686577
     14          1           0       -2.339516   -0.943567    0.605247
 ---------------------------------------------------------------------

 SCF Done:  E(RB2PLYPD3) =  -157.536638223     A.U. after   11 cycles
 E2(B2PLYPD3) =    -0.2531139730D+00 E(B2PLYPD3) =    -0.15778975219618D+03

 The electronic state is 1-A.
 Alpha  occ. eigenvalues --  -10.64889 -10.60800 -10.59315 -10.56335  -0.96573
 Alpha  occ. eigenvalues --   -0.90079  -0.75504  -0.66296  -0.56173  -0.53068
 Alpha  occ. eigenvalues --   -0.50375  -0.45123  -0.42416  -0.42032  -0.39368
 Alpha  occ. eigenvalues --   -0.36611  -0.33674
 Alpha virt. eigenvalues --    0.03471   0.06027   0.07614   0.08188   0.08898
 Alpha virt. eigenvalues --    0.11422   0.11767   0.13657   0.14727   0.15148
 Alpha virt. eigenvalues --    0.15827   0.16759   0.18619   0.19362   0.20778

 Mulliken charges:
               1
     1  C   -0.700256
     2  C   -0.000067
     3  H    0.189112
     4  H    0.414894
     5  H    0.065227
     6  C   -0.045786
     7  H    0.037760
     8  H    0.033378
     9  C   -0.175113
    10  H    0.059320
    11  H    0.005991
    12  H    0.044389
    13  H    0.016231
    14  H    0.054919
 Sum of Mulliken charges =   0.00000

 Dipole moment (field-independent basis, Debye):
    X=              0.9390    Y=             -0.1998    Z=              0.1337  Tot=              0.9693
 Quadrupole moment (field-independent basis, Debye-Ang):
   XX=            -30.8179   YY=            -28.9446   ZZ=            -28.4803
   XY=             -0.0894   XZ=              0.1442   YZ=             -1.2959

 Normal termination of Gaussian 09 at Wed Aug 26 23:02:23 2020.
