 Gaussian 09, Revision D.01,
 Gaussian 09:  ES64L-G09RevD.01 24-Apr-2013

 --------------------
 #p B2PLYPD3/Def2QZVP
 --------------------

 ----------
 butane_opt
 ----------
 Symbolic Z-matrix:
 Charge =  0 Multiplicity = 1

                         Standard orientation:
 ---------------------------------------------------------------------
 Center     Atomic      Atomic             Coordinates (Angstroms)
 Number     Number       Type             X           Y           Z
 ---------------------------------------------------------------------
      1          6           0        1.951701   -0.060695   -0.172655
      2          6           0        0.649368    0.424265    0.106956
      3          1           0        2.623171    0.737020   -0.088766
      4          1           0        1.914137   -0.899935   -1.075071
      5          1           0        2.186694   -0.599603    0.621677
      6          6           0       -0.481072   -0.555575    0.319163
      7          1           0        0.245799    1.124710   -0.872477
      8          1           0        0.889022    1.201582    0.985727
      9          6           0       -2.097378    0.109419   -0.162289
     10          1           0       -0.672535   -0.994187    1.251489
     11          1           0       -0.143402   -1.083298   -0.409694
     12          1           0       -2.826614    1.012620    0.875316
     13          1           0       -2.794391   -0.501155   -0.931413
     14          1           0       -1.557602    0.497763   -0.903835
 ---------------------------------------------------------------------

 SCF Done:  E(RB2PLYPD3) =  -157.892005898     A.U. after   11 cycles
 E2(B2PLYPD3) =    -0.2549740287D+00 E(B2PLYPD3) =    -0.15814697992675D+03

 The electronic state is 1-A.
 Alpha  occ. eigenvalues --  -10.64926 -10.63341 -10.61581 -10.59956  -0.93637
 Alpha  occ. eigenvalues --   -0.83328  -0.73533  -0.65318  -0.56694  -0.50894
 Alpha  occ. eigenvalues --   -0.48362  -0.47427  -0.41624  -0.39853  -0.37998
 Alpha  occ. eigenvalues --   -0.36202  -0.33103
 Alpha virt. eigenvalues --    0.03410   0.05346   0.07783   0.08195   0.09511
 Alpha virt. eigenvalues --    0.09870   0.11748   0.12653   0.13638   0.15252
 Alpha virt. eigenvalues --    0.16343   0.16513   0.17018   0.18817   0.20329

 Mulliken charges:
               1
     1  C   -0.125500
     2  C   -0.027715
     3  H    0.062154
     4  H    0.015920
     5  H    0.066666
     6  C   -0.108616
     7  H    0.005226
     8  H    0.007621
     9  C   -0.251577
    10  H    0.062607
    11  H    0.091250
    12  H    0.045617
    13  H    0.050546
    14  H    0.105800
 Sum of Mulliken charges =   0.00000

 Dipole moment (field-independent basis, Debye):
    X=              0.8477    Y=             -0.2514    Z=              0.0433  Tot=              0.8853
 Quadrupole moment (field-independent basis, Debye-Ang):
   XX=            -30.6148   YY=            -30.3744   ZZ=            -28.3602
   XY=              0.4629   XZ=              1.1166   YZ=              0.8083

 Normal termination of Gaussian 09 at Wed Aug 26 19:12:54 2020.
