 Gaussian 09, Revision D.01,
 Gaussian 09:  ES64L-G09RevD.01 24-Apr-2013

 --------------------
 #p B2PLYPD3/Def2QZVP
 --------------------

 ----------
 butane_opt
 ----------
 Symbolic Z-matrix:
 Charge =  0 Multiplicity = 1

                         Standard orientation:
 ---------------------------------------------------------------------
 Center     Atomic      Atomic             Coordinates (Angstroms)
 Number     Number       Type             X           Y           Z
 ---------------------------------------------------------------------
      1          6           0       -1.936343    0.091229   -0.132534
      2          6           0       -0.587743   -0.532945    0.182083
      3          1           0       -2.775967   -0.678742   -0.794622
      4          1           0       -1.590316    0.322823   -0.864983
      5          1           0       -2.792010    1.057122    0.863755
      6          6           0        0.511844    0.587228    0.039808
      7          1           0       -0.325564   -0.996452   -0.415666
      8          1           0       -0.721063   -1.349172    1.276516
      9          6           0        2.033294   -0.160825   -0.121653
     10          1           0        0.709827    1.501071    1.145781
     11          1           0        0.222671    1.114391   -0.860893
     12          1           0        2.170617   -0.759370    0.876442
     13          1           0        2.693308    0.560999   -0.214170
     14          1           0        2.282185   -0.680796   -0.818382
 ---------------------------------------------------------------------

 SCF Done:  E(RB2PLYPD3) =  -157.680199193     A.U. after   12 cycles
 E2(B2PLYPD3) =    -0.2554847830D+00 E(B2PLYPD3) =    -0.15793568397557D+03

 The electronic state is 1-A.
 Alpha  occ. eigenvalues --  -10.66433 -10.63736 -10.61994 -10.59004  -0.94449
 Alpha  occ. eigenvalues --   -0.84401  -0.75630  -0.68608  -0.53369  -0.50666
 Alpha  occ. eigenvalues --   -0.48964  -0.46262  -0.41660  -0.39449  -0.37456
 Alpha  occ. eigenvalues --   -0.36083  -0.35011
 Alpha virt. eigenvalues --    0.02214   0.04967   0.07063   0.07763   0.07872
 Alpha virt. eigenvalues --    0.10882   0.12415   0.12607   0.13384   0.15519
 Alpha virt. eigenvalues --    0.16019   0.16901   0.18255   0.18880   0.19666

 Mulliken charges:
               1
     1  C   -0.338268
     2  C   -0.313116
     3  H    0.019174
     4  H    0.243184
     5  H    0.053812
     6  C   -0.073768
     7  H    0.314346
     8  H    0.018049
     9  C   -0.169638
    10  H    0.010457
    11  H    0.071092
    12  H    0.054172
    13  H    0.052394
    14  H    0.058109
 Sum of Mulliken charges =   0.00000

 Dipole moment (field-independent basis, Debye):
    X=              0.6060    Y=             -0.0943    Z=             -0.9823  Tot=              1.1580
 Quadrupole moment (field-independent basis, Debye-Ang):
   XX=            -30.2669   YY=            -30.0881   ZZ=            -28.4288
   XY=             -0.3271   XZ=             -0.5438   YZ=              0.5556

 Normal termination of Gaussian 09 at Wed Aug 26 11:00:34 2020.
