 Gaussian 09, Revision D.01,
 Gaussian 09:  ES64L-G09RevD.01 24-Apr-2013

 --------------------
 #p B2PLYPD3/Def2QZVP
 --------------------

 ----------
 butane_opt
 ----------
 Symbolic Z-matrix:
 Charge =  0 Multiplicity = 1

                         Standard orientation:
 ---------------------------------------------------------------------
 Center     Atomic      Atomic             Coordinates (Angstroms)
 Number     Number       Type             X           Y           Z
 ---------------------------------------------------------------------
      1          6           0       -1.994313   -0.190812    0.004324
      2          6           0       -0.513957    0.566704   -0.139064
      3          1           0       -2.755747    0.559591    0.008681
      4          1           0       -2.112311   -0.841329    1.017231
      5          1           0       -1.995874   -0.524259   -0.577750
      6          6           0        0.605871   -0.426046    0.086044
      7          1           0       -0.369152    1.239077    0.724415
      8          1           0       -0.144914    1.276766   -1.105619
      9          6           0        1.925993    0.015842    0.013484
     10          1           0        0.476403   -1.401836   -0.931621
     11          1           0        0.296348   -0.853100    0.957611
     12          1           0        1.705419    0.370334   -0.697522
     13          1           0        2.598452   -0.779558   -0.299676
     14          1           0        2.159811    1.160189    1.115523
 ---------------------------------------------------------------------

 SCF Done:  E(RB2PLYPD3) =  -157.580894986     A.U. after   11 cycles
 E2(B2PLYPD3) =    -0.2529224394D+00 E(B2PLYPD3) =    -0.15783381742502D+03

 The electronic state is 1-A.
 Alpha  occ. eigenvalues --  -10.63328 -10.62444 -10.60498 -10.59012  -0.95680
 Alpha  occ. eigenvalues --   -0.88307  -0.77076  -0.65611  -0.55898  -0.52236
 Alpha  occ. eigenvalues --   -0.49503  -0.48003  -0.42894  -0.40481  -0.39180
 Alpha  occ. eigenvalues --   -0.37246  -0.33275
 Alpha virt. eigenvalues --    0.03009   0.05331   0.06324   0.07946   0.10215
 Alpha virt. eigenvalues --    0.11078   0.12224   0.13266   0.13833   0.15414
 Alpha virt. eigenvalues --    0.15798   0.16125   0.18800   0.19054   0.21251

 Mulliken charges:
               1
     1  C   -0.606342
     2  C   -0.070387
     3  H    0.074817
     4  H    0.062047
     5  H    0.484700
     6  C   -0.011524
     7  H    0.044595
     8  H    0.015418
     9  C   -0.310368
    10  H   -0.044657
    11  H    0.054555
    12  H    0.232160
    13  H    0.080650
    14  H   -0.005664
 Sum of Mulliken charges =   0.00000

 Dipole moment (field-independent basis, Debye):
    X=             -0.5568    Y=             -0.1746    Z=             -0.1290  Tot=              0.5976
 Quadrupole moment (field-independent basis, Debye-Ang):
   XX=            -29.8330   YY=            -29.8827   ZZ=            -28.5104
   XY=             -0.7262   XZ=             -1.3518   YZ=              0.1223

 Normal termination of Gaussian 09 at Wed Aug 26 21:37:47 2020.
