 Gaussian 09, Revision D.01,
 Gaussian 09:  ES64L-G09RevD.01 24-Apr-2013

 --------------------
 #p B2PLYPD3/Def2QZVP
 --------------------

 ----------
 butane_opt
 ----------
 Symbolic Z-matrix:
 Charge =  0 Multiplicity = 1

                         Standard orientation:
 ---------------------------------------------------------------------
 Center     Atomic      Atomic             Coordinates (Angstroms)
 Number     Number       Type             X           Y           Z
 ---------------------------------------------------------------------
      1          6           0        1.929726   -0.151117    0.034224
      2          6           0        0.464830    0.602760   -0.003991
      3          1           0        2.703816    0.691504   -0.267145
      4          1           0        1.844377   -0.190208   -0.633058
      5          1           0        2.575240   -1.640741    1.324661
      6          6           0       -0.639869   -0.455378   -0.234720
      7          1           0        0.253464    1.758215   -0.969478
      8          1           0        0.287831    0.835795    0.779916
      9          6           0       -1.821870    0.031693    0.195747
     10          1           0       -0.426353   -1.001751    0.391623
     11          1           0       -0.639131   -1.240267   -1.487991
     12          1           0       -1.715181    0.957341    1.421513
     13          1           0       -2.547866   -0.742560   -0.042565
     14          1           0       -1.933099    0.404927   -0.465040
 ---------------------------------------------------------------------

 SCF Done:  E(RB2PLYPD3) =  -157.137081352     A.U. after   13 cycles
 E2(B2PLYPD3) =    -0.2646156587D+00 E(B2PLYPD3) =    -0.15740169701111D+03

 The electronic state is 1-A.
 Alpha  occ. eigenvalues --  -10.63787 -10.63547 -10.60792 -10.59027  -0.98923
 Alpha  occ. eigenvalues --   -0.90842  -0.79733  -0.70689  -0.55338  -0.50395
 Alpha  occ. eigenvalues --   -0.46664  -0.44684  -0.41761  -0.39506  -0.37185
 Alpha  occ. eigenvalues --   -0.35943  -0.33463
 Alpha virt. eigenvalues --   -0.06285   0.02155   0.04143   0.06805   0.08476
 Alpha virt. eigenvalues --    0.10585   0.11369   0.12301   0.13030   0.15151
 Alpha virt. eigenvalues --    0.15873   0.16522   0.17445   0.18269   0.20056

 Mulliken charges:
               1
     1  C   -0.750171
     2  C   -0.222954
     3  H    0.066342
     4  H    0.604828
     5  H    0.039639
     6  C   -0.199364
     7  H    0.008674
     8  H    0.243096
     9  C   -0.427404
    10  H    0.214981
    11  H   -0.001482
    12  H    0.038545
    13  H    0.060619
    14  H    0.324652
 Sum of Mulliken charges =   0.00000

 Dipole moment (field-independent basis, Debye):
    X=             -0.3839    Y=             -0.0044    Z=             -0.3215  Tot=              0.5008
 Quadrupole moment (field-independent basis, Debye-Ang):
   XX=            -31.4970   YY=            -29.4436   ZZ=            -28.5413
   XY=              0.2822   XZ=              0.2921   YZ=             -0.5877

 Normal termination of Gaussian 09 at Wed Aug 26 23:09:58 2020.
