 Gaussian 09, Revision D.01,
 Gaussian 09:  ES64L-G09RevD.01 24-Apr-2013

 --------------------
 #p B2PLYPD3/Def2QZVP
 --------------------

 ----------
 butane_opt
 ----------
 Symbolic Z-matrix:
 Charge =  0 Multiplicity = 1

                         Standard orientation:
 ---------------------------------------------------------------------
 Center     Atomic      Atomic             Coordinates (Angstroms)
 Number     Number       Type             X           Y           Z
 ---------------------------------------------------------------------
      1          6           0        2.043748   -0.173075   -0.199145
      2          6           0        0.497090    0.614893    0.204566
      3          1           0        2.712296    0.314062   -0.727818
      4          1           0        1.906802   -0.417006   -0.820484
      5          1           0        2.488953   -1.016994    0.907482
      6          6           0       -0.641905   -0.448366    0.144345
      7          1           0        0.311703    0.954280   -0.293863
      8          1           0        0.681365    1.597674    1.206863
      9          6           0       -1.886178    0.068921   -0.180892
     10          1           0       -0.650600   -1.342051    1.250104
     11          1           0       -0.610038   -1.097105   -0.679983
     12          1           0       -2.257312    0.665913    0.532018
     13          1           0       -2.566325   -0.680141   -0.006857
     14          1           0       -2.093374    0.647126   -1.180702
 ---------------------------------------------------------------------

 SCF Done:  E(RB2PLYPD3) =  -157.251243491     A.U. after   12 cycles
 E2(B2PLYPD3) =    -0.2526491788D+00 E(B2PLYPD3) =    -0.15750389267023D+03

 The electronic state is 1-A.
 Alpha  occ. eigenvalues --  -10.63091 -10.62127 -10.59556 -10.58447  -0.95321
 Alpha  occ. eigenvalues --   -0.89422  -0.82734  -0.68678  -0.53866  -0.50918
 Alpha  occ. eigenvalues --   -0.49773  -0.47175  -0.42091  -0.41140  -0.38185
 Alpha  occ. eigenvalues --   -0.36691  -0.34088
 Alpha virt. eigenvalues --    0.04301   0.06188   0.06822   0.07156   0.09412
 Alpha virt. eigenvalues --    0.10967   0.12438   0.12960   0.13675   0.15672
 Alpha virt. eigenvalues --    0.16464   0.16856   0.18219   0.19070   0.20691

 Mulliken charges:
               1
     1  C   -0.601532
     2  C   -0.772530
     3  H    0.051995
     4  H    0.488972
     5  H    0.056146
     6  C    0.014515
     7  H    0.677786
     8  H    0.042966
     9  C   -0.128401
    10  H   -0.013186
    11  H    0.060460
    12  H    0.041114
    13  H    0.049921
    14  H    0.031773
 Sum of Mulliken charges =   0.00000

 Dipole moment (field-independent basis, Debye):
    X=             -0.5068    Y=              0.0816    Z=             -0.9921  Tot=              1.1170
 Quadrupole moment (field-independent basis, Debye-Ang):
   XX=            -28.9326   YY=            -29.2157   ZZ=            -27.6058
   XY=              0.0382   XZ=             -0.9909   YZ=             -0.4994

 Normal termination of Gaussian 09 at Wed Aug 26 13:14:37 2020.
