 Gaussian 09, Revision D.01,
 Gaussian 09:  ES64L-G09RevD.01 24-Apr-2013

 --------------------
 #p B2PLYPD3/Def2QZVP
 --------------------

 ----------
 butane_opt
 ----------
 Symbolic Z-matrix:
 Charge =  0 Multiplicity = 1

                         Standard orientation:
 ---------------------------------------------------------------------
 Center     Atomic      Atomic             Coordinates (Angstroms)
 Number     Number       Type             X           Y           Z
 ---------------------------------------------------------------------
      1          6           0        2.022727   -0.150756    0.040453
      2          6           0        0.565597    0.562455   -0.048662
      3          1           0        2.837885    0.483620   -0.557892
      4          1           0        2.130399   -0.224660   -0.442317
      5          1           0        2.560289   -1.234039    1.199326
      6          6           0       -0.667228   -0.488301   -0.063557
      7          1           0        0.086481    1.335518   -1.097376
      8          1           0        0.518375    1.131615    0.749424
      9          6           0       -1.901104    0.082419    0.131939
     10          1           0       -0.625909   -1.009843    0.727900
     11          1           0       -0.687327   -1.301432   -1.153534
     12          1           0       -2.131341    1.077660    1.347164
     13          1           0       -2.816179   -0.795912   -0.438302
     14          1           0       -1.992623    0.502566   -0.695431
 ---------------------------------------------------------------------

 SCF Done:  E(RB2PLYPD3) =  -156.743955815     A.U. after   13 cycles
 E2(B2PLYPD3) =    -0.2634236822D+00 E(B2PLYPD3) =    -0.15700737949689D+03

 The electronic state is 1-A.
 Alpha  occ. eigenvalues --  -10.66957 -10.64883 -10.63904 -10.61623  -0.95771
 Alpha  occ. eigenvalues --   -0.92411  -0.77045  -0.67788  -0.53432  -0.50014
 Alpha  occ. eigenvalues --   -0.45818  -0.43544  -0.41462  -0.38616  -0.36708
 Alpha  occ. eigenvalues --   -0.35899  -0.32741
 Alpha virt. eigenvalues --    0.00019   0.02110   0.03820   0.05721   0.08398
 Alpha virt. eigenvalues --    0.09988   0.11126   0.11772   0.13279   0.14843
 Alpha virt. eigenvalues --    0.15688   0.16441   0.17762   0.17897   0.19846

 Mulliken charges:
               1
     1  C   -1.033770
     2  C   -0.065946
     3  H    0.025878
     4  H    0.888553
     5  H    0.079068
     6  C   -0.051431
     7  H    0.009759
     8  H    0.089745
     9  C   -0.209351
    10  H    0.093579
    11  H    0.010688
    12  H    0.036498
    13  H    0.014945
    14  H    0.111785
 Sum of Mulliken charges =   0.00000

 Dipole moment (field-independent basis, Debye):
    X=              0.3462    Y=             -0.1999    Z=             -0.4849  Tot=              0.6285
 Quadrupole moment (field-independent basis, Debye-Ang):
   XX=            -31.4568   YY=            -30.2639   ZZ=            -27.6831
   XY=             -1.4601   XZ=              0.3453   YZ=             -0.0472

 Normal termination of Gaussian 09 at Wed Aug 26 11:05:05 2020.
