 Gaussian 09, Revision D.01,
 Gaussian 09:  ES64L-G09RevD.01 24-Apr-2013

 --------------------
 #p B2PLYPD3/Def2QZVP
 --------------------

 ----------
 butane_opt
 ----------
 Symbolic Z-matrix:
 Charge =  0 Multiplicity = 1

                         Standard orientation:
 ---------------------------------------------------------------------
 Center     Atomic      Atomic             Coordinates (Angstroms)
 Number     Number       Type             X           Y           Z
 ---------------------------------------------------------------------
      1          6           0       -1.939193    0.136144    0.045026
      2          6           0       -0.572120   -0.510994   -0.030065
      3          1           0       -2.793117   -0.707321   -0.415968
      4          1           0       -1.806329    0.401121   -0.644531
      5          1           0       -2.240840    1.141041    1.098698
      6          6           0        0.596728    0.481266   -0.117587
      7          1           0       -0.492506   -1.128564   -0.747055
      8          1           0       -0.434621   -1.113298    0.884053
      9          6           0        1.914458   -0.130470    0.068770
     10          1           0        0.302635    1.089406    0.680156
     11          1           0        0.531458    1.144335   -1.027279
     12          1           0        1.986943   -0.750768    1.065805
     13          1           0        2.688525    0.630583   -0.031354
     14          1           0        2.258614   -0.562210   -0.659394
 ---------------------------------------------------------------------

 SCF Done:  E(RB2PLYPD3) =  -157.809687890     A.U. after   11 cycles
 E2(B2PLYPD3) =    -0.2495063266D+00 E(B2PLYPD3) =    -0.15805919421687D+03

 The electronic state is 1-A.
 Alpha  occ. eigenvalues --  -10.61089 -10.59901 -10.59010 -10.58492  -0.94141
 Alpha  occ. eigenvalues --   -0.87101  -0.75592  -0.68471  -0.55359  -0.50984
 Alpha  occ. eigenvalues --   -0.48758  -0.46898  -0.42096  -0.40562  -0.39955
 Alpha  occ. eigenvalues --   -0.37473  -0.35496
 Alpha virt. eigenvalues --    0.04219   0.06238   0.07941   0.08133   0.10484
 Alpha virt. eigenvalues --    0.11512   0.12512   0.13059   0.14726   0.15389
 Alpha virt. eigenvalues --    0.15738   0.16495   0.18668   0.19672   0.21667

 Mulliken charges:
               1
     1  C   -0.563427
     2  C   -0.026605
     3  H    0.037143
     4  H    0.425305
     5  H    0.050379
     6  C   -0.028356
     7  H    0.059351
     8  H    0.015079
     9  C   -0.156019
    10  H    0.048835
    11  H    0.009068
    12  H    0.047074
    13  H    0.023760
    14  H    0.058414
 Sum of Mulliken charges =   0.00000

 Dipole moment (field-independent basis, Debye):
    X=              0.4900    Y=              0.0091    Z=             -0.5944  Tot=              0.7704
 Quadrupole moment (field-independent basis, Debye-Ang):
   XX=            -30.3826   YY=            -29.0251   ZZ=            -27.7044
   XY=             -0.1523   XZ=             -0.1268   YZ=              0.5595

 Normal termination of Gaussian 09 at Wed Aug 26 22:21:06 2020.
