 Gaussian 09, Revision D.01,
 Gaussian 09:  ES64L-G09RevD.01 24-Apr-2013

 --------------------
 #p B2PLYPD3/Def2QZVP
 --------------------

 ----------
 butane_opt
 ----------
 Symbolic Z-matrix:
 Charge =  0 Multiplicity = 1

                         Standard orientation:
 ---------------------------------------------------------------------
 Center     Atomic      Atomic             Coordinates (Angstroms)
 Number     Number       Type             X           Y           Z
 ---------------------------------------------------------------------
      1          6           0        1.933182   -0.011210   -0.091072
      2          6           0        0.670947   -0.459156    0.130018
      3          1           0        2.590523   -0.628592   -0.674532
      4          1           0        2.496219    1.234520    1.100004
      5          1           0        1.686448    0.277245   -0.810726
      6          6           0       -0.535493    0.631705   -0.018155
      7          1           0        0.451885   -1.180513    1.211583
      8          1           0        0.673194   -0.991406   -0.566472
      9          6           0       -2.055434   -0.191861   -0.067912
     10          1           0       -0.195055    0.983742   -0.927752
     11          1           0       -0.535302    1.388765    0.821894
     12          1           0       -2.440090   -0.520590   -0.616798
     13          1           0       -2.692413    0.374954   -0.294525
     14          1           0       -2.114620   -0.755000    1.040053
 ---------------------------------------------------------------------

 SCF Done:  E(RB2PLYPD3) =  -157.504532593     A.U. after   12 cycles
 E2(B2PLYPD3) =    -0.2545380666D+00 E(B2PLYPD3) =    -0.15775907065956D+03

 The electronic state is 1-A.
 Alpha  occ. eigenvalues --  -10.63741 -10.61805 -10.61176 -10.57308  -0.99322
 Alpha  occ. eigenvalues --   -0.91692  -0.79090  -0.69358  -0.55025  -0.54281
 Alpha  occ. eigenvalues --   -0.49603  -0.46910  -0.44336  -0.41999  -0.37509
 Alpha  occ. eigenvalues --   -0.34101  -0.33128
 Alpha virt. eigenvalues --    0.00865   0.05690   0.06955   0.08169   0.09390
 Alpha virt. eigenvalues --    0.11331   0.11987   0.12932   0.13439   0.15801
 Alpha virt. eigenvalues --    0.16236   0.17928   0.17949   0.18874   0.20459

 Mulliken charges:
               1
     1  C   -0.350615
     2  C   -0.116156
     3  H    0.069331
     4  H   -0.034637
     5  H    0.270388
     6  C   -0.088564
     7  H   -0.015143
     8  H    0.168773
     9  C   -0.472166
    10  H    0.061142
    11  H    0.069453
    12  H    0.290767
    13  H    0.088379
    14  H    0.059049
 Sum of Mulliken charges =   0.00000

 Dipole moment (field-independent basis, Debye):
    X=             -0.7787    Y=             -0.2326    Z=             -1.5660  Tot=              1.7643
 Quadrupole moment (field-independent basis, Debye-Ang):
   XX=            -30.2064   YY=            -30.3015   ZZ=            -27.5733
   XY=             -1.5576   XZ=             -1.4727   YZ=              0.7852

 Normal termination of Gaussian 09 at Wed Aug 26 22:38:03 2020.
