 Gaussian 09, Revision D.01,
 Gaussian 09:  ES64L-G09RevD.01 24-Apr-2013

 --------------------
 #p B2PLYPD3/Def2QZVP
 --------------------

 ----------
 butane_opt
 ----------
 Symbolic Z-matrix:
 Charge =  0 Multiplicity = 1

                         Standard orientation:
 ---------------------------------------------------------------------
 Center     Atomic      Atomic             Coordinates (Angstroms)
 Number     Number       Type             X           Y           Z
 ---------------------------------------------------------------------
      1          6           0       -1.898951    0.013089    0.144703
      2          6           0       -0.588071   -0.341110   -0.257287
      3          1           0       -2.975980   -0.938702    0.115037
      4          1           0       -2.063539    0.534575   -0.517984
      5          1           0       -1.732785    0.762784    1.540414
      6          6           0        0.469967    0.556643   -0.114830
      7          1           0       -0.434619   -0.775686   -1.396576
      8          1           0       -0.430626   -1.081311    0.440802
      9          6           0        1.920478   -0.218277    0.137317
     10          1           0        0.225051    0.801092    0.584913
     11          1           0        0.680124    1.932629   -1.125314
     12          1           0        1.811711   -0.887681    0.810626
     13          1           0        2.713750    0.345218    1.019254
     14          1           0        2.786376   -0.754993   -0.930596
 ---------------------------------------------------------------------

 SCF Done:  E(RB2PLYPD3) =  -157.570633462     A.U. after   12 cycles
 E2(B2PLYPD3) =    -0.2601287300D+00 E(B2PLYPD3) =    -0.15783076219211D+03

 The electronic state is 1-A.
 Alpha  occ. eigenvalues --  -10.65871 -10.65096 -10.63901 -10.61659  -0.98776
 Alpha  occ. eigenvalues --   -0.85354  -0.75872  -0.68471  -0.58147  -0.50185
 Alpha  occ. eigenvalues --   -0.46909  -0.44606  -0.41887  -0.39166  -0.38115
 Alpha  occ. eigenvalues --   -0.35227  -0.33505
 Alpha virt. eigenvalues --    0.01726   0.02362   0.04235   0.05498   0.08932
 Alpha virt. eigenvalues --    0.09238   0.10524   0.12424   0.12948   0.14392
 Alpha virt. eigenvalues --    0.15322   0.15750   0.17364   0.18880   0.19626

 Mulliken charges:
               1
     1  C   -0.259261
     2  C   -0.042750
     3  H    0.049258
     4  H    0.191604
     5  H   -0.001545
     6  C   -0.351946
     7  H    0.027005
     8  H    0.072187
     9  C   -0.192693
    10  H    0.362907
    11  H   -0.025767
    12  H    0.107840
    13  H    0.017900
    14  H    0.045261
 Sum of Mulliken charges =   0.00000

 Dipole moment (field-independent basis, Debye):
    X=             -0.3384    Y=             -0.9183    Z=              0.4191  Tot=              1.0646
 Quadrupole moment (field-independent basis, Debye-Ang):
   XX=            -30.9248   YY=            -31.6011   ZZ=            -29.2034
   XY=             -0.4241   XZ=              1.6430   YZ=              0.0107

 Normal termination of Gaussian 09 at Wed Aug 26 20:39:10 2020.
