 Gaussian 09, Revision D.01,
 Gaussian 09:  ES64L-G09RevD.01 24-Apr-2013

 --------------------
 #p B2PLYPD3/Def2QZVP
 --------------------

 ----------
 butane_opt
 ----------
 Symbolic Z-matrix:
 Charge =  0 Multiplicity = 1

                         Standard orientation:
 ---------------------------------------------------------------------
 Center     Atomic      Atomic             Coordinates (Angstroms)
 Number     Number       Type             X           Y           Z
 ---------------------------------------------------------------------
      1          6           0       -1.940642   -0.067353   -0.148676
      2          6           0       -0.517377    0.493336    0.187743
      3          1           0       -2.636310    0.524737   -0.907473
      4          1           0       -2.734524   -1.199561    0.914595
      5          1           0       -1.694055   -0.617082   -0.840627
      6          6           0        0.533324   -0.454187    0.092266
      7          1           0       -0.593551    1.421784    1.256920
      8          1           0       -0.247041    0.948297   -0.573050
      9          6           0        1.950167    0.082651   -0.135683
     10          1           0        0.366651   -0.956698   -0.487708
     11          1           0        0.726376   -1.129091    1.023994
     12          1           0        2.050992    0.660158   -0.971385
     13          1           0        2.834563   -0.801982   -0.210570
     14          1           0        1.774066    0.822757    0.821404
 ---------------------------------------------------------------------

 SCF Done:  E(RB2PLYPD3) =  -157.731637535     A.U. after   12 cycles
 E2(B2PLYPD3) =    -0.2549576721D+00 E(B2PLYPD3) =    -0.15798659520735D+03

 The electronic state is 1-A.
 Alpha  occ. eigenvalues --  -10.64876 -10.63083 -10.62522 -10.58219  -0.96896
 Alpha  occ. eigenvalues --   -0.84477  -0.74475  -0.70556  -0.56747  -0.51891
 Alpha  occ. eigenvalues --   -0.49747  -0.45007  -0.42211  -0.38634  -0.38572
 Alpha  occ. eigenvalues --   -0.37003  -0.34553
 Alpha virt. eigenvalues --    0.00959   0.05025   0.07034   0.07831   0.08996
 Alpha virt. eigenvalues --    0.10973   0.11852   0.12393   0.12782   0.15698
 Alpha virt. eigenvalues --    0.15866   0.16714   0.17770   0.19029   0.19781

 Mulliken charges:
               1
     1  C   -0.226357
     2  C   -0.098735
     3  H    0.054956
     4  H   -0.003442
     5  H    0.122158
     6  C   -0.274202
     7  H    0.008507
     8  H    0.147678
     9  C   -0.158116
    10  H    0.253691
    11  H    0.025710
    12  H    0.046354
    13  H    0.047898
    14  H    0.053899
 Sum of Mulliken charges =   0.00000

 Dipole moment (field-independent basis, Debye):
    X=              0.4295    Y=             -0.1444    Z=             -1.4113  Tot=              1.4823
 Quadrupole moment (field-independent basis, Debye-Ang):
   XX=            -32.4878   YY=            -29.8952   ZZ=            -28.4603
   XY=             -1.0896   XZ=              0.8711   YZ=             -0.2017

 Normal termination of Gaussian 09 at Wed Aug 26 15:08:33 2020.
