 Gaussian 09, Revision D.01,
 Gaussian 09:  ES64L-G09RevD.01 24-Apr-2013

 --------------------
 #p B2PLYPD3/Def2QZVP
 --------------------

 ----------
 butane_opt
 ----------
 Symbolic Z-matrix:
 Charge =  0 Multiplicity = 1

                         Standard orientation:
 ---------------------------------------------------------------------
 Center     Atomic      Atomic             Coordinates (Angstroms)
 Number     Number       Type             X           Y           Z
 ---------------------------------------------------------------------
      1          6           0       -1.818176   -0.072344   -0.221269
      2          6           0       -0.543944    0.420171    0.082366
      3          1           0       -2.651756    0.888860    0.056350
      4          1           0       -2.113443   -0.779445    0.806985
      5          1           0       -1.956486   -0.519859   -0.927365
      6          6           0        0.443033   -0.638938    0.194006
      7          1           0       -0.798259    1.371380    1.081895
      8          1           0       -0.259100    1.031105   -0.822192
      9          6           0        1.947044    0.181541   -0.127656
     10          1           0        0.407036   -0.971276   -0.522377
     11          1           0        0.321557   -1.379711    1.225795
     12          1           0        1.666150    0.520495   -0.702633
     13          1           0        2.670989   -0.608171   -0.774365
     14          1           0        2.545573    1.104037    1.013224
 ---------------------------------------------------------------------

 SCF Done:  E(RB2PLYPD3) =  -157.542677062     A.U. after   12 cycles
 E2(B2PLYPD3) =    -0.2556257648D+00 E(B2PLYPD3) =    -0.15779830282662D+03

 The electronic state is 1-A.
 Alpha  occ. eigenvalues --  -10.63248 -10.63154 -10.61311 -10.60848  -0.96332
 Alpha  occ. eigenvalues --   -0.86562  -0.77425  -0.68028  -0.56121  -0.53176
 Alpha  occ. eigenvalues --   -0.48627  -0.46664  -0.42426  -0.39380  -0.36309
 Alpha  occ. eigenvalues --   -0.35732  -0.34871
 Alpha virt. eigenvalues --    0.03199   0.04002   0.07330   0.07630   0.09167
 Alpha virt. eigenvalues --    0.10164   0.10881   0.12715   0.13725   0.15343
 Alpha virt. eigenvalues --    0.15682   0.16840   0.17436   0.18781   0.20421

 Mulliken charges:
               1
     1  C   -0.246157
     2  C    0.024852
     3  H    0.036842
     4  H    0.011625
     5  H    0.136355
     6  C   -0.361436
     7  H    0.007275
     8  H    0.028483
     9  C   -0.596570
    10  H    0.337981
    11  H    0.055728
    12  H    0.473056
    13  H    0.044664
    14  H    0.047302
 Sum of Mulliken charges =   0.00000

 Dipole moment (field-independent basis, Debye):
    X=             -0.3406    Y=             -0.2643    Z=             -0.8313  Tot=              0.9364
 Quadrupole moment (field-independent basis, Debye-Ang):
   XX=            -32.6963   YY=            -29.6813   ZZ=            -27.8363
   XY=             -0.1849   XZ=             -0.5406   YZ=              0.7137

 Normal termination of Gaussian 09 at Wed Aug 26 09:58:19 2020.
