 Gaussian 09, Revision D.01,
 Gaussian 09:  ES64L-G09RevD.01 24-Apr-2013

 --------------------
 #p B2PLYPD3/Def2QZVP
 --------------------

 ----------
 butane_opt
 ----------
 Symbolic Z-matrix:
 Charge =  0 Multiplicity = 1

                         Standard orientation:
 ---------------------------------------------------------------------
 Center     Atomic      Atomic             Coordinates (Angstroms)
 Number     Number       Type             X           Y           Z
 ---------------------------------------------------------------------
      1          6           0       -2.082623   -0.175807   -0.029830
      2          6           0       -0.528351    0.596631    0.094710
      3          1           0       -2.784577    0.481871   -0.708610
      4          1           0       -2.663705   -1.179037    1.039896
      5          1           0       -1.831882   -0.310737   -0.530332
      6          6           0        0.672845   -0.531813   -0.009391
      7          1           0       -0.305197    1.319933    0.969692
      8          1           0       -0.417514    1.355523   -0.766483
      9          6           0        1.897030    0.088701    0.076040
     10          1           0        0.520810   -1.273991   -0.933262
     11          1           0        0.685378   -0.811061    0.667129
     12          1           0        1.903143    0.628571   -0.902746
     13          1           0        2.859287   -0.635878   -0.360555
     14          1           0        2.280848    0.558540    0.736096
 ---------------------------------------------------------------------

 SCF Done:  E(RB2PLYPD3) =  -157.148556540     A.U. after   12 cycles
 E2(B2PLYPD3) =    -0.2550105235D+00 E(B2PLYPD3) =    -0.15740356706363D+03

 The electronic state is 1-A.
 Alpha  occ. eigenvalues --  -10.64620 -10.63136 -10.59172 -10.58246  -0.95629
 Alpha  occ. eigenvalues --   -0.90534  -0.75331  -0.70440  -0.58770  -0.49915
 Alpha  occ. eigenvalues --   -0.47273  -0.45699  -0.43984  -0.39734  -0.39530
 Alpha  occ. eigenvalues --   -0.36082  -0.33498
 Alpha virt. eigenvalues --    0.03132   0.05129   0.07285   0.07754   0.10518
 Alpha virt. eigenvalues --    0.10792   0.11261   0.12464   0.14679   0.15641
 Alpha virt. eigenvalues --    0.16290   0.16707   0.17722   0.19025   0.20007

 Mulliken charges:
               1
     1  C   -0.938063
     2  C   -0.029615
     3  H    0.076148
     4  H    0.072063
     5  H    0.763816
     6  C   -0.462941
     7  H    0.034552
     8  H    0.023089
     9  C   -0.167919
    10  H    0.064571
    11  H    0.439946
    12  H    0.024518
    13  H    0.008040
    14  H    0.091797
 Sum of Mulliken charges =   0.00000

 Dipole moment (field-independent basis, Debye):
    X=              0.3570    Y=             -0.1410    Z=             -0.2092  Tot=              0.4371
 Quadrupole moment (field-independent basis, Debye-Ang):
   XX=            -30.7462   YY=            -29.0384   ZZ=            -27.2770
   XY=              0.9501   XZ=              1.1303   YZ=             -0.3562

 Normal termination of Gaussian 09 at Wed Aug 26 21:59:43 2020.
