 Gaussian 09, Revision D.01,
 Gaussian 09:  ES64L-G09RevD.01 24-Apr-2013

 --------------------
 #p B2PLYPD3/Def2QZVP
 --------------------

 ----------
 butane_opt
 ----------
 Symbolic Z-matrix:
 Charge =  0 Multiplicity = 1

                         Standard orientation:
 ---------------------------------------------------------------------
 Center     Atomic      Atomic             Coordinates (Angstroms)
 Number     Number       Type             X           Y           Z
 ---------------------------------------------------------------------
      1          6           0        1.956023   -0.136386    0.056032
      2          6           0        0.496228    0.563711   -0.019556
      3          1           0        2.534966    0.536729   -0.221773
      4          1           0        1.978361   -0.372289   -0.666084
      5          1           0        2.337284   -1.188745    1.099198
      6          6           0       -0.576406   -0.446157   -0.122661
      7          1           0        0.241443    1.397611   -1.069890
      8          1           0        0.111759    1.169828    0.956952
      9          6           0       -1.802696    0.073872    0.024748
     10          1           0       -0.471717   -1.137817    0.591417
     11          1           0       -0.504175   -1.128628   -1.163012
     12          1           0       -1.884410    0.856666    1.156722
     13          1           0       -2.638397   -0.766738    0.195284
     14          1           0       -2.144008    0.303146   -0.510196
 ---------------------------------------------------------------------

 SCF Done:  E(RB2PLYPD3) =  -157.475131284     A.U. after   11 cycles
 E2(B2PLYPD3) =    -0.2533652711D+00 E(B2PLYPD3) =    -0.15772849655552D+03

 The electronic state is 1-A.
 Alpha  occ. eigenvalues --  -10.65045 -10.59412 -10.59405 -10.58445  -0.95798
 Alpha  occ. eigenvalues --   -0.89855  -0.79100  -0.67283  -0.55390  -0.52795
 Alpha  occ. eigenvalues --   -0.48716  -0.45619  -0.42883  -0.39648  -0.38878
 Alpha  occ. eigenvalues --   -0.35799  -0.35557
 Alpha virt. eigenvalues --    0.03569   0.05270   0.06190   0.07203   0.10190
 Alpha virt. eigenvalues --    0.10581   0.11633   0.13411   0.14465   0.15595
 Alpha virt. eigenvalues --    0.15943   0.16536   0.18578   0.19208   0.21688

 Mulliken charges:
               1
     1  C   -0.479699
     2  C   -0.051240
     3  H    0.076924
     4  H    0.344875
     5  H    0.059044
     6  C    0.070132
     7  H    0.003934
     8  H    0.034515
     9  C   -0.577877
    10  H    0.064857
    11  H   -0.012753
    12  H    0.017989
    13  H    0.036902
    14  H    0.412398
 Sum of Mulliken charges =   0.00000

 Dipole moment (field-independent basis, Debye):
    X=              0.1087    Y=             -0.3411    Z=             -0.4696  Tot=              0.5905
 Quadrupole moment (field-independent basis, Debye-Ang):
   XX=            -29.3927   YY=            -29.6154   ZZ=            -28.2358
   XY=             -0.2871   XZ=             -0.0890   YZ=             -0.8268

 Normal termination of Gaussian 09 at Wed Aug 26 23:46:29 2020.
