 Gaussian 09, Revision D.01,
 Gaussian 09:  ES64L-G09RevD.01 24-Apr-2013

 --------------------
 #p B2PLYPD3/Def2QZVP
 --------------------

 ----------
 butane_opt
 ----------
 Symbolic Z-matrix:
 Charge =  0 Multiplicity = 1

                         Standard orientation:
 ---------------------------------------------------------------------
 Center     Atomic      Atomic             Coordinates (Angstroms)
 Number     Number       Type             X           Y           Z
 ---------------------------------------------------------------------
      1          6           0        1.922293   -0.185204    0.123784
      2          6           0        0.589833    0.551050   -0.077302
      3          1           0        2.731092    0.677370    0.145233
      4          1           0        1.928244   -0.490758   -0.600547
      5          1           0        2.182623   -1.351675    1.003961
      6          6           0       -0.607495   -0.439985   -0.360833
      7          1           0        0.560424    1.319392   -0.815440
      8          1           0        0.424685    1.118989    0.903055
      9          6           0       -1.916563    0.100778    0.160918
     10          1           0       -0.428927   -0.884534    0.269635
     11          1           0       -0.255046   -0.933186   -1.222018
     12          1           0       -1.447562    0.511883    1.106113
     13          1           0       -2.989724   -1.015985    0.636107
     14          1           0       -2.634219    0.888670   -0.505503
 ---------------------------------------------------------------------

 SCF Done:  E(RB2PLYPD3) =  -157.708373921     A.U. after   11 cycles
 E2(B2PLYPD3) =    -0.2544563366D+00 E(B2PLYPD3) =    -0.15796283025780D+03

 The electronic state is 1-A.
 Alpha  occ. eigenvalues --  -10.67180 -10.62066 -10.61639 -10.57928  -0.95037
 Alpha  occ. eigenvalues --   -0.86247  -0.72057  -0.69229  -0.56841  -0.50473
 Alpha  occ. eigenvalues --   -0.48108  -0.44809  -0.42911  -0.40647  -0.39719
 Alpha  occ. eigenvalues --   -0.37872  -0.32724
 Alpha virt. eigenvalues --    0.03455   0.04194   0.06980   0.08149   0.08922
 Alpha virt. eigenvalues --    0.10634   0.11989   0.12717   0.14152   0.14991
 Alpha virt. eigenvalues --    0.15425   0.16195   0.17760   0.19798   0.20857

 Mulliken charges:
               1
     1  C   -0.432746
     2  C   -0.010054
     3  H    0.062843
     4  H    0.304969
     5  H    0.032261
     6  C   -0.404373
     7  H    0.046329
     8  H    0.011020
     9  C   -0.156692
    10  H    0.372171
    11  H    0.051048
    12  H    0.085982
    13  H   -0.019488
    14  H    0.056728
 Sum of Mulliken charges =   0.00000

 Dipole moment (field-independent basis, Debye):
    X=              0.8701    Y=              0.4080    Z=             -0.4966  Tot=              1.0817
 Quadrupole moment (field-independent basis, Debye-Ang):
   XX=            -32.3750   YY=            -29.1021   ZZ=            -29.1138
   XY=             -0.8929   XZ=             -0.0113   YZ=             -0.3648

 Normal termination of Gaussian 09 at Wed Aug 26 10:03:09 2020.
