 Gaussian 09, Revision D.01,
 Gaussian 09:  ES64L-G09RevD.01 24-Apr-2013

 --------------------
 #p B2PLYPD3/Def2QZVP
 --------------------

 ----------
 butane_opt
 ----------
 Symbolic Z-matrix:
 Charge =  0 Multiplicity = 1

                         Standard orientation:
 ---------------------------------------------------------------------
 Center     Atomic      Atomic             Coordinates (Angstroms)
 Number     Number       Type             X           Y           Z
 ---------------------------------------------------------------------
      1          6           0        2.058589    0.134776   -0.198240
      2          6           0        0.540970   -0.553420    0.230785
      3          1           0        2.782619   -0.641627   -0.514767
      4          1           0        2.321451    1.186842    0.755546
      5          1           0        1.707770    0.547209   -0.901384
      6          6           0       -0.651521    0.489700    0.134622
      7          1           0        0.482035   -1.487636    1.381451
      8          1           0        0.558609   -0.871399   -0.420757
      9          6           0       -1.950020   -0.133756   -0.124489
     10          1           0       -0.438690    1.169225   -0.782566
     11          1           0       -0.587662    1.284174    1.178171
     12          1           0       -1.908489   -1.044958   -1.254277
     13          1           0       -2.743197    0.756646   -0.285229
     14          1           0       -2.162553   -0.522269    0.587742
 ---------------------------------------------------------------------

 SCF Done:  E(RB2PLYPD3) =  -157.628128012     A.U. after   11 cycles
 E2(B2PLYPD3) =    -0.2544158941D+00 E(B2PLYPD3) =    -0.15788254390611D+03

 The electronic state is 1-A.
 Alpha  occ. eigenvalues --  -10.64473 -10.62841 -10.62056 -10.61972  -0.92988
 Alpha  occ. eigenvalues --   -0.86110  -0.74829  -0.67867  -0.54032  -0.50844
 Alpha  occ. eigenvalues --   -0.47666  -0.45826  -0.43342  -0.40067  -0.36960
 Alpha  occ. eigenvalues --   -0.36129  -0.34840
 Alpha virt. eigenvalues --    0.04389   0.04857   0.06061   0.06840   0.10353
 Alpha virt. eigenvalues --    0.10504   0.11507   0.11738   0.13562   0.14814
 Alpha virt. eigenvalues --    0.15730   0.16053   0.17317   0.19250   0.19521

 Mulliken charges:
               1
     1  C   -0.260999
     2  C   -0.571277
     3  H    0.070986
     4  H    0.024883
     5  H    0.162854
     6  C   -0.004002
     7  H    0.016821
     8  H    0.517657
     9  C   -0.252957
    10  H    0.032384
    11  H    0.021575
    12  H    0.012605
    13  H    0.051017
    14  H    0.178455
 Sum of Mulliken charges =   0.00000

 Dipole moment (field-independent basis, Debye):
    X=             -0.2955    Y=             -0.0050    Z=             -0.5368  Tot=              0.6128
 Quadrupole moment (field-independent basis, Debye-Ang):
   XX=            -30.8771   YY=            -29.6550   ZZ=            -28.8122
   XY=             -1.4010   XZ=             -1.8855   YZ=              0.4555

 Normal termination of Gaussian 09 at Wed Aug 26 22:29:35 2020.
