 Gaussian 09, Revision D.01,
 Gaussian 09:  ES64L-G09RevD.01 24-Apr-2013

 --------------------
 #p B2PLYPD3/Def2QZVP
 --------------------

 ----------
 butane_opt
 ----------
 Symbolic Z-matrix:
 Charge =  0 Multiplicity = 1

                         Standard orientation:
 ---------------------------------------------------------------------
 Center     Atomic      Atomic             Coordinates (Angstroms)
 Number     Number       Type             X           Y           Z
 ---------------------------------------------------------------------
      1          6           0       -1.959251   -0.108887    0.057343
      2          6           0       -0.511430    0.513084   -0.094961
      3          1           0       -2.658904    0.464261   -0.112168
      4          1           0       -2.135553   -0.943476    1.161734
      5          1           0       -2.050411   -0.524391   -0.585914
      6          6           0        0.582643   -0.442719   -0.036616
      7          1           0       -0.492498    1.001187    0.650204
      8          1           0       -0.310716    1.310241   -1.100445
      9          6           0        1.908104    0.082460    0.083761
     10          1           0        0.460702   -1.254851   -1.006849
     11          1           0        0.296435   -0.962259    0.677755
     12          1           0        1.685706    0.407725   -0.615650
     13          1           0        2.813418   -0.778192   -0.320089
     14          1           0        2.271422    1.016122    1.194264
 ---------------------------------------------------------------------

 SCF Done:  E(RB2PLYPD3) =  -157.612384807     A.U. after   11 cycles
 E2(B2PLYPD3) =    -0.2514736593D+00 E(B2PLYPD3) =    -0.15786385846623D+03

 The electronic state is 1-A.
 Alpha  occ. eigenvalues --  -10.61511 -10.60567 -10.60149 -10.58119  -0.96932
 Alpha  occ. eigenvalues --   -0.89059  -0.78799  -0.68855  -0.56043  -0.50571
 Alpha  occ. eigenvalues --   -0.48716  -0.46788  -0.43668  -0.40196  -0.39678
 Alpha  occ. eigenvalues --   -0.36435  -0.35774
 Alpha virt. eigenvalues --    0.04479   0.05283   0.05984   0.07695   0.10461
 Alpha virt. eigenvalues --    0.11306   0.12105   0.13165   0.14376   0.15501
 Alpha virt. eigenvalues --    0.15965   0.16297   0.18746   0.19554   0.21478

 Mulliken charges:
               1
     1  C   -0.371152
     2  C   -0.090951
     3  H    0.054428
     4  H    0.025951
     5  H    0.264784
     6  C   -0.032469
     7  H    0.129355
     8  H   -0.013920
     9  C   -0.401787
    10  H   -0.006800
    11  H    0.070691
    12  H    0.290426
    13  H    0.045123
    14  H    0.036320
 Sum of Mulliken charges =   0.00000

 Dipole moment (field-independent basis, Debye):
    X=             -0.6248    Y=             -0.0566    Z=             -0.2345  Tot=              0.6697
 Quadrupole moment (field-independent basis, Debye-Ang):
   XX=            -29.8507   YY=            -29.4471   ZZ=            -28.1614
   XY=             -0.2482   XZ=              0.2626   YZ=              0.5508

 Normal termination of Gaussian 09 at Wed Aug 26 21:30:52 2020.
