 Gaussian 09, Revision D.01,
 Gaussian 09:  ES64L-G09RevD.01 24-Apr-2013

 --------------------
 #p B2PLYPD3/Def2QZVP
 --------------------

 ----------
 butane_opt
 ----------
 Symbolic Z-matrix:
 Charge =  0 Multiplicity = 1

                         Standard orientation:
 ---------------------------------------------------------------------
 Center     Atomic      Atomic             Coordinates (Angstroms)
 Number     Number       Type             X           Y           Z
 ---------------------------------------------------------------------
      1          6           0       -1.970120    0.053355   -0.155613
      2          6           0       -0.645425   -0.436145    0.307158
      3          1           0       -2.781921   -0.752534   -0.709624
      4          1           0       -1.489974    0.412481   -1.081412
      5          1           0       -2.596868    1.237534    0.781718
      6          6           0        0.566589    0.524819   -0.003274
      7          1           0       -0.639035   -0.910163   -0.407971
      8          1           0       -0.666000   -1.099018    1.354034
      9          6           0        2.054721   -0.156382   -0.048303
     10          1           0        0.739952    1.405406    0.812971
     11          1           0        0.329234    0.778695   -0.800842
     12          1           0        2.259176   -0.446208    0.727257
     13          1           0        2.720259    0.551963   -0.430521
     14          1           0        2.090588   -1.092040   -0.845411
 ---------------------------------------------------------------------

 SCF Done:  E(RB2PLYPD3) =  -157.790412172     A.U. after   11 cycles
 E2(B2PLYPD3) =    -0.2527128761D+00 E(B2PLYPD3) =    -0.15804312504852D+03

 The electronic state is 1-A.
 Alpha  occ. eigenvalues --  -10.66766 -10.61311 -10.60652 -10.59407  -0.94946
 Alpha  occ. eigenvalues --   -0.85350  -0.74934  -0.66367  -0.55544  -0.51877
 Alpha  occ. eigenvalues --   -0.48397  -0.46819  -0.44788  -0.40723  -0.38153
 Alpha  occ. eigenvalues --   -0.37178  -0.33347
 Alpha virt. eigenvalues --    0.03032   0.05972   0.07831   0.08423   0.09272
 Alpha virt. eigenvalues --    0.10396   0.11764   0.12781   0.14178   0.14310
 Alpha virt. eigenvalues --    0.15592   0.17509   0.18334   0.18905   0.20404

 Mulliken charges:
               1
     1  C   -0.159327
     2  C   -0.244083
     3  H    0.060821
     4  H    0.048944
     5  H   -0.012133
     6  C   -0.145872
     7  H    0.245503
     8  H    0.027442
     9  C   -0.223300
    10  H    0.023912
    11  H    0.159585
    12  H    0.151491
    13  H    0.059589
    14  H    0.007428
 Sum of Mulliken charges =   0.00000

 Dipole moment (field-independent basis, Debye):
    X=              0.7889    Y=             -0.4709    Z=             -0.6578  Tot=              1.1300
 Quadrupole moment (field-independent basis, Debye-Ang):
   XX=            -31.2771   YY=            -30.0469   ZZ=            -28.1957
   XY=              2.2005   XZ=              1.4830   YZ=              0.4973

 Normal termination of Gaussian 09 at Wed Aug 26 12:11:35 2020.
