 Gaussian 09, Revision D.01,
 Gaussian 09:  ES64L-G09RevD.01 24-Apr-2013

 --------------------
 #p B2PLYPD3/Def2QZVP
 --------------------

 ----------
 butane_opt
 ----------
 Symbolic Z-matrix:
 Charge =  0 Multiplicity = 1

                         Standard orientation:
 ---------------------------------------------------------------------
 Center     Atomic      Atomic             Coordinates (Angstroms)
 Number     Number       Type             X           Y           Z
 ---------------------------------------------------------------------
      1          6           0        1.943600   -0.178541   -0.113627
      2          6           0        0.565299    0.527197    0.119457
      3          1           0        2.759562    0.653010   -0.276748
      4          1           0        1.967393   -0.660567   -0.888606
      5          1           0        2.256314   -0.830305    0.885551
      6          6           0       -0.570204   -0.441133    0.082241
      7          1           0        0.419554    1.045027   -0.683026
      8          1           0        0.402315    1.240892    1.009635
      9          6           0       -1.925797    0.106420   -0.076898
     10          1           0       -0.660392   -1.231409    1.020737
     11          1           0       -0.508058   -0.996094   -0.688536
     12          1           0       -2.045840    0.701302    0.749329
     13          1           0       -2.728044   -0.701240   -0.310944
     14          1           0       -1.940196    0.695725   -0.884431
 ---------------------------------------------------------------------

 SCF Done:  E(RB2PLYPD3) =  -158.020760673     A.U. after   11 cycles
 E2(B2PLYPD3) =    -0.2463544464D+00 E(B2PLYPD3) =    -0.15826711511966D+03

 The electronic state is 1-A.
 Alpha  occ. eigenvalues --  -10.60760 -10.60038 -10.58924 -10.58109  -0.93133
 Alpha  occ. eigenvalues --   -0.84491  -0.74087  -0.67852  -0.55601  -0.51247
 Alpha  occ. eigenvalues --   -0.48982  -0.46985  -0.44663  -0.40779  -0.38749
 Alpha  occ. eigenvalues --   -0.37929  -0.36724
 Alpha virt. eigenvalues --    0.05652   0.06821   0.08325   0.08756   0.11118
 Alpha virt. eigenvalues --    0.11778   0.12902   0.13071   0.15302   0.15393
 Alpha virt. eigenvalues --    0.15956   0.16449   0.19488   0.19914   0.22234

 Mulliken charges:
               1
     1  C   -0.176847
     2  C   -0.074644
     3  H    0.027155
     4  H    0.093048
     5  H    0.040155
     6  C   -0.051292
     7  H    0.073870
     8  H    0.028657
     9  C   -0.138639
    10  H   -0.003412
    11  H    0.054863
    12  H    0.049052
    13  H    0.039218
    14  H    0.038816
 Sum of Mulliken charges =   0.00000

 Dipole moment (field-independent basis, Debye):
    X=             -0.0465    Y=              0.1661    Z=             -0.6009  Tot=              0.6252
 Quadrupole moment (field-independent basis, Debye-Ang):
   XX=            -30.2086   YY=            -28.9447   ZZ=            -27.8152
   XY=              0.3559   XZ=             -0.1521   YZ=              0.3831

 Normal termination of Gaussian 09 at Wed Aug 26 23:12:27 2020.
