 Gaussian 09, Revision D.01,
 Gaussian 09:  ES64L-G09RevD.01 24-Apr-2013

 --------------------
 #p B2PLYPD3/Def2QZVP
 --------------------

 ----------
 butane_opt
 ----------
 Symbolic Z-matrix:
 Charge =  0 Multiplicity = 1

                         Standard orientation:
 ---------------------------------------------------------------------
 Center     Atomic      Atomic             Coordinates (Angstroms)
 Number     Number       Type             X           Y           Z
 ---------------------------------------------------------------------
      1          6           0        1.989277   -0.143508   -0.059218
      2          6           0        0.533887    0.562377    0.040059
      3          1           0        2.717951    0.520170   -0.107623
      4          1           0        2.191922   -0.936968   -0.988371
      5          1           0        2.321809   -0.698521    0.874500
      6          6           0       -0.614523   -0.469762    0.140738
      7          1           0        0.449799    1.083511   -0.833468
      8          1           0        0.588392    1.228473    0.890361
      9          6           0       -1.979224    0.083703   -0.072915
     10          1           0       -0.614168   -1.060605    1.083440
     11          1           0       -0.433907   -1.032406   -0.578153
     12          1           0       -2.394555    0.809548    0.757026
     13          1           0       -2.825346   -0.714027   -0.436946
     14          1           0       -1.578403    0.603967   -0.952751
 ---------------------------------------------------------------------

 SCF Done:  E(RB2PLYPD3) =  -158.041620023     A.U. after   11 cycles
 E2(B2PLYPD3) =    -0.2477545219D+00 E(B2PLYPD3) =    -0.15828937454479D+03

 The electronic state is 1-A.
 Alpha  occ. eigenvalues --  -10.61648 -10.61125 -10.61009 -10.58817  -0.92072
 Alpha  occ. eigenvalues --   -0.82882  -0.72608  -0.67541  -0.55562  -0.49131
 Alpha  occ. eigenvalues --   -0.48332  -0.47424  -0.42292  -0.40437  -0.39348
 Alpha  occ. eigenvalues --   -0.38205  -0.36417
 Alpha virt. eigenvalues --    0.05668   0.06487   0.08607   0.08932   0.10637
 Alpha virt. eigenvalues --    0.11651   0.12601   0.13498   0.14668   0.14787
 Alpha virt. eigenvalues --    0.15875   0.16784   0.19233   0.19710   0.21832

 Mulliken charges:
               1
     1  C   -0.142806
     2  C   -0.055830
     3  H    0.060385
     4  H    0.015980
     5  H    0.031615
     6  C   -0.075504
     7  H    0.053854
     8  H    0.032047
     9  C   -0.166900
    10  H    0.021897
    11  H    0.097496
    12  H    0.046488
    13  H    0.040422
    14  H    0.040858
 Sum of Mulliken charges =   0.00000

 Dipole moment (field-independent basis, Debye):
    X=              0.2742    Y=              0.1382    Z=             -0.0419  Tot=              0.3099
 Quadrupole moment (field-independent basis, Debye-Ang):
   XX=            -29.6931   YY=            -29.2170   ZZ=            -28.3292
   XY=              0.9629   XZ=             -0.1885   YZ=              0.6562

 Normal termination of Gaussian 09 at Wed Aug 26 15:23:24 2020.
