 Gaussian 09, Revision D.01,
 Gaussian 09:  ES64L-G09RevD.01 24-Apr-2013

 --------------------
 #p B2PLYPD3/Def2QZVP
 --------------------

 ----------
 butane_opt
 ----------
 Symbolic Z-matrix:
 Charge =  0 Multiplicity = 1

                         Standard orientation:
 ---------------------------------------------------------------------
 Center     Atomic      Atomic             Coordinates (Angstroms)
 Number     Number       Type             X           Y           Z
 ---------------------------------------------------------------------
      1          6           0       -1.994152   -0.086965    0.087781
      2          6           0       -0.620014    0.463758   -0.184618
      3          1           0       -2.935591    0.847998    0.058718
      4          1           0       -2.026971   -0.655822    0.942052
      5          1           0       -1.943153   -0.525767   -0.679661
      6          6           0        0.568466   -0.605412    0.026362
      7          1           0       -0.273190    1.077856    0.546789
      8          1           0       -0.738240    0.987344   -1.001780
      9          6           0        2.080419    0.143625    0.006440
     10          1           0        0.377393   -1.169484   -0.700011
     11          1           0        0.282989   -1.276641    1.169305
     12          1           0        1.993025    0.153955   -0.514053
     13          1           0        2.579622   -0.347162   -0.688710
     14          1           0        2.475808    1.417690    1.251559
 ---------------------------------------------------------------------

 SCF Done:  E(RB2PLYPD3) =  -156.924578273     A.U. after   12 cycles
 E2(B2PLYPD3) =    -0.2586261967D+00 E(B2PLYPD3) =    -0.15718320446983D+03

 The electronic state is 1-A.
 Alpha  occ. eigenvalues --  -10.64949 -10.64300 -10.58679 -10.58254  -1.02911
 Alpha  occ. eigenvalues --   -0.91296  -0.77986  -0.69003  -0.57197  -0.49647
 Alpha  occ. eigenvalues --   -0.47447  -0.44365  -0.42060  -0.38941  -0.38347
 Alpha  occ. eigenvalues --   -0.35970  -0.33045
 Alpha virt. eigenvalues --   -0.02527   0.05387   0.06074   0.07941   0.10255
 Alpha virt. eigenvalues --    0.10553   0.12147   0.12692   0.14610   0.15539
 Alpha virt. eigenvalues --    0.16089   0.17035   0.18281   0.18662   0.19858

 Mulliken charges:
               1
     1  C   -0.237637
     2  C   -0.051153
     3  H    0.018933
     4  H    0.062348
     5  H    0.133013
     6  C   -0.116760
     7  H    0.040966
     8  H    0.038629
     9  C   -1.046806
    10  H    0.099956
    11  H    0.015388
    12  H    0.979730
    13  H   -0.026205
    14  H    0.089598
 Sum of Mulliken charges =   0.00000

 Dipole moment (field-independent basis, Debye):
    X=              0.1260    Y=              0.2821    Z=             -1.0048  Tot=              1.0512
 Quadrupole moment (field-independent basis, Debye-Ang):
   XX=            -31.4629   YY=            -29.3409   ZZ=            -26.3818
   XY=              1.2920   XZ=             -1.4814   YZ=              1.5305

 Normal termination of Gaussian 09 at Wed Aug 26 14:55:20 2020.
