 Gaussian 09, Revision D.01,
 Gaussian 09:  ES64L-G09RevD.01 24-Apr-2013

 --------------------
 #p B2PLYPD3/Def2QZVP
 --------------------

 ----------
 butane_opt
 ----------
 Symbolic Z-matrix:
 Charge =  0 Multiplicity = 1

                         Standard orientation:
 ---------------------------------------------------------------------
 Center     Atomic      Atomic             Coordinates (Angstroms)
 Number     Number       Type             X           Y           Z
 ---------------------------------------------------------------------
      1          6           0       -2.022633   -0.196662    0.109768
      2          6           0       -0.541787    0.571688   -0.005168
      3          1           0       -3.017755    0.665628   -0.673769
      4          1           0       -2.561420   -1.088499    1.110980
      5          1           0       -1.991724   -0.534040   -0.547950
      6          6           0        0.643383   -0.408766   -0.106609
      7          1           0       -0.379475    0.965408    0.690638
      8          1           0       -0.551996    1.391032   -0.813076
      9          6           0        1.945784    0.054428    0.069460
     10          1           0        0.600457   -1.281828   -1.228368
     11          1           0        0.698719   -0.990595    0.724025
     12          1           0        2.117520    0.526065   -0.726874
     13          1           0        2.767155   -0.720115   -0.131373
     14          1           0        2.170034    0.942819    1.191064
 ---------------------------------------------------------------------

 SCF Done:  E(RB2PLYPD3) =  -157.593906441     A.U. after   11 cycles
 E2(B2PLYPD3) =    -0.2549774390D+00 E(B2PLYPD3) =    -0.15784888387970D+03

 The electronic state is 1-A.
 Alpha  occ. eigenvalues --  -10.64067 -10.62748 -10.61813 -10.61002  -0.94465
 Alpha  occ. eigenvalues --   -0.86523  -0.77903  -0.68175  -0.54861  -0.49670
 Alpha  occ. eigenvalues --   -0.48330  -0.46140  -0.43380  -0.40378  -0.37200
 Alpha  occ. eigenvalues --   -0.35538  -0.34728
 Alpha virt. eigenvalues --    0.02559   0.04743   0.04945   0.06765   0.09815
 Alpha virt. eigenvalues --    0.10096   0.11403   0.12269   0.13982   0.15054
 Alpha virt. eigenvalues --    0.15619   0.16093   0.18036   0.18727   0.20224

 Mulliken charges:
               1
     1  C   -0.553125
     2  C   -0.208515
     3  H   -0.021323
     4  H    0.079366
     5  H    0.434729
     6  C   -0.033737
     7  H    0.231110
     8  H    0.042591
     9  C   -0.168100
    10  H   -0.019086
    11  H    0.076829
    12  H    0.071616
    13  H    0.054134
    14  H    0.013511
 Sum of Mulliken charges =   0.00000

 Dipole moment (field-independent basis, Debye):
    X=              0.7748    Y=             -0.2782    Z=             -0.1741  Tot=              0.8414
 Quadrupole moment (field-independent basis, Debye-Ang):
   XX=            -32.0806   YY=            -29.3944   ZZ=            -28.5536
   XY=              1.0021   XZ=             -0.3955   YZ=             -0.6269

 Normal termination of Gaussian 09 at Wed Aug 26 12:47:16 2020.
