 Gaussian 09, Revision D.01,
 Gaussian 09:  ES64L-G09RevD.01 24-Apr-2013

 --------------------
 #p B2PLYPD3/Def2QZVP
 --------------------

 ----------
 butane_opt
 ----------
 Symbolic Z-matrix:
 Charge =  0 Multiplicity = 1

                         Standard orientation:
 ---------------------------------------------------------------------
 Center     Atomic      Atomic             Coordinates (Angstroms)
 Number     Number       Type             X           Y           Z
 ---------------------------------------------------------------------
      1          6           0       -1.850655    0.021351   -0.107054
      2          6           0       -0.536411   -0.447121    0.079789
      3          1           0       -2.701528   -0.822970   -0.300957
      4          1           0       -1.886586    0.806148   -1.096980
      5          1           0       -2.078789    0.767500    0.809472
      6          6           0        0.446781    0.613880    0.213392
      7          1           0       -0.384534   -0.910038   -0.579498
      8          1           0       -0.648203   -1.403283    1.089205
      9          6           0        1.925112   -0.223948   -0.149078
     10          1           0        0.505939    1.577754    1.170502
     11          1           0        0.203690    0.952513   -0.566660
     12          1           0        2.778568   -0.962684    0.943796
     13          1           0        2.722796    0.632846   -0.810381
     14          1           0        1.579682   -0.422758   -0.880788
 ---------------------------------------------------------------------

 SCF Done:  E(RB2PLYPD3) =  -157.666307177     A.U. after   12 cycles
 E2(B2PLYPD3) =    -0.2572473678D+00 E(B2PLYPD3) =    -0.15792355454471D+03

 The electronic state is 1-A.
 Alpha  occ. eigenvalues --  -10.65072 -10.63810 -10.62982 -10.60241  -0.97285
 Alpha  occ. eigenvalues --   -0.84195  -0.74231  -0.69051  -0.55047  -0.50220
 Alpha  occ. eigenvalues --   -0.47862  -0.45803  -0.41393  -0.40686  -0.36741
 Alpha  occ. eigenvalues --   -0.35758  -0.34372
 Alpha virt. eigenvalues --    0.02557   0.05066   0.06629   0.07357   0.07541
 Alpha virt. eigenvalues --    0.10679   0.11417   0.12404   0.13304   0.15139
 Alpha virt. eigenvalues --    0.16455   0.16568   0.18081   0.18774   0.19579

 Mulliken charges:
               1
     1  C   -0.154748
     2  C   -0.187360
     3  H    0.059019
     4  H    0.006117
     5  H    0.057700
     6  C   -0.192040
     7  H    0.228606
     8  H   -0.025297
     9  C   -0.388471
    10  H    0.040436
    11  H    0.202181
    12  H    0.089315
    13  H    0.001252
    14  H    0.263291
 Sum of Mulliken charges =   0.00000

 Dipole moment (field-independent basis, Debye):
    X=             -0.2321    Y=             -0.0181    Z=             -0.5713  Tot=              0.6169
 Quadrupole moment (field-independent basis, Debye-Ang):
   XX=            -31.4219   YY=            -30.0085   ZZ=            -28.7678
   XY=              0.0320   XZ=              0.8593   YZ=              0.3379

 Normal termination of Gaussian 09 at Wed Aug 26 16:09:25 2020.
