 Gaussian 09, Revision D.01,
 Gaussian 09:  ES64L-G09RevD.01 24-Apr-2013

 --------------------
 #p B2PLYPD3/Def2QZVP
 --------------------

 ----------
 butane_opt
 ----------
 Symbolic Z-matrix:
 Charge =  0 Multiplicity = 1

                         Standard orientation:
 ---------------------------------------------------------------------
 Center     Atomic      Atomic             Coordinates (Angstroms)
 Number     Number       Type             X           Y           Z
 ---------------------------------------------------------------------
      1          6           0        1.953997   -0.106339    0.072480
      2          6           0        0.639424    0.480969   -0.002138
      3          1           0        2.753301    0.534211   -0.469484
      4          1           0        1.858006   -0.461054   -0.649377
      5          1           0        2.310829   -0.976520    1.085985
      6          6           0       -0.575072   -0.523371   -0.083992
      7          1           0        0.604890    1.356117   -0.939646
      8          1           0        0.402818    0.980776    0.790662
      9          6           0       -1.991442    0.147239    0.055797
     10          1           0       -0.340007   -0.959809    0.633587
     11          1           0       -0.563348   -1.208632   -1.005045
     12          1           0       -2.187091    0.842248    1.054249
     13          1           0       -2.819947   -0.629567   -0.134370
     14          1           0       -2.180899    0.531244   -0.619441
 ---------------------------------------------------------------------

 SCF Done:  E(RB2PLYPD3) =  -157.763507186     A.U. after   11 cycles
 E2(B2PLYPD3) =    -0.2490037646D+00 E(B2PLYPD3) =    -0.15801251095103D+03

 The electronic state is 1-A.
 Alpha  occ. eigenvalues --  -10.60933 -10.59456 -10.59372 -10.59106  -0.94059
 Alpha  occ. eigenvalues --   -0.86964  -0.77671  -0.68788  -0.53949  -0.49993
 Alpha  occ. eigenvalues --   -0.48539  -0.46880  -0.44218  -0.41516  -0.39937
 Alpha  occ. eigenvalues --   -0.37838  -0.34646
 Alpha virt. eigenvalues --    0.05433   0.05995   0.07271   0.08479   0.10699
 Alpha virt. eigenvalues --    0.12132   0.12612   0.12813   0.14946   0.15571
 Alpha virt. eigenvalues --    0.15868   0.16698   0.18582   0.19146   0.21276

 Mulliken charges:
               1
     1  C   -0.393300
     2  C   -0.028454
     3  H    0.048058
     4  H    0.274341
     5  H    0.044966
     6  C   -0.131957
     7  H   -0.013121
     8  H    0.058266
     9  C   -0.320981
    10  H    0.157781
    11  H    0.015643
    12  H    0.042466
    13  H    0.028130
    14  H    0.218162
 Sum of Mulliken charges =   0.00000

 Dipole moment (field-independent basis, Debye):
    X=             -0.1480    Y=             -0.1553    Z=             -0.3663  Tot=              0.4246
 Quadrupole moment (field-independent basis, Debye-Ang):
   XX=            -29.5988   YY=            -29.3695   ZZ=            -27.5651
   XY=             -0.5708   XZ=             -0.0944   YZ=             -0.1345

 Normal termination of Gaussian 09 at Wed Aug 26 22:45:37 2020.
