 Gaussian 09, Revision D.01,
 Gaussian 09:  ES64L-G09RevD.01 24-Apr-2013

 --------------------
 #p B2PLYPD3/Def2QZVP
 --------------------

 ----------
 butane_opt
 ----------
 Symbolic Z-matrix:
 Charge =  0 Multiplicity = 1

                         Standard orientation:
 ---------------------------------------------------------------------
 Center     Atomic      Atomic             Coordinates (Angstroms)
 Number     Number       Type             X           Y           Z
 ---------------------------------------------------------------------
      1          6           0        1.915562    0.115996   -0.126335
      2          6           0        0.550702   -0.460891    0.077592
      3          1           0        2.688676   -0.770119    0.073173
      4          1           0        1.992606    0.590488    0.595686
      5          1           0        1.946796    0.767149   -1.052391
      6          6           0       -0.547486    0.583148    0.176049
      7          1           0        0.701316   -1.275495    1.079736
      8          1           0        0.398921   -1.087526   -0.781797
      9          6           0       -1.903596   -0.171745   -0.113435
     10          1           0       -0.400687    1.090858   -0.605761
     11          1           0       -0.464460    1.267624    1.135473
     12          1           0       -1.965713   -0.682450   -0.927878
     13          1           0       -2.636423    0.519630   -0.354872
     14          1           0       -2.352126   -0.819208    0.755405
 ---------------------------------------------------------------------

 SCF Done:  E(RB2PLYPD3) =  -157.989409335     A.U. after   11 cycles
 E2(B2PLYPD3) =    -0.2474033465D+00 E(B2PLYPD3) =    -0.15823681268142D+03

 The electronic state is 1-A.
 Alpha  occ. eigenvalues --  -10.61491 -10.60668 -10.58815 -10.58122  -0.92409
 Alpha  occ. eigenvalues --   -0.84696  -0.74773  -0.66702  -0.54619  -0.49768
 Alpha  occ. eigenvalues --   -0.49029  -0.47513  -0.43780  -0.41891  -0.38835
 Alpha  occ. eigenvalues --   -0.36940  -0.36541
 Alpha virt. eigenvalues --    0.05562   0.06892   0.07903   0.08363   0.11043
 Alpha virt. eigenvalues --    0.11870   0.12755   0.13889   0.15315   0.15426
 Alpha virt. eigenvalues --    0.15676   0.16479   0.19458   0.19711   0.21640

 Mulliken charges:
               1
     1  C   -0.235396
     2  C   -0.028576
     3  H    0.037557
     4  H    0.139343
     5  H    0.037585
     6  C   -0.107527
     7  H   -0.007182
     8  H    0.048132
     9  C   -0.128466
    10  H    0.092912
    11  H    0.035244
    12  H    0.051975
    13  H    0.026556
    14  H    0.037843
 Sum of Mulliken charges =   0.00000

 Dipole moment (field-independent basis, Debye):
    X=             -0.1517    Y=              0.3610    Z=             -0.3188  Tot=              0.5049
 Quadrupole moment (field-independent basis, Debye-Ang):
   XX=            -30.1276   YY=            -28.8816   ZZ=            -27.8523
   XY=             -0.1021   XZ=              1.1204   YZ=             -0.0248

 Normal termination of Gaussian 09 at Wed Aug 26 22:21:48 2020.
