 Gaussian 09, Revision D.01,
 Gaussian 09:  ES64L-G09RevD.01 24-Apr-2013

 --------------------
 #p B2PLYPD3/Def2QZVP
 --------------------

 ----------
 butane_opt
 ----------
 Symbolic Z-matrix:
 Charge =  0 Multiplicity = 1

                         Standard orientation:
 ---------------------------------------------------------------------
 Center     Atomic      Atomic             Coordinates (Angstroms)
 Number     Number       Type             X           Y           Z
 ---------------------------------------------------------------------
      1          6           0       -1.984976    0.057287    0.066336
      2          6           0       -0.607452   -0.498848   -0.128356
      3          1           0       -2.629427   -0.597613   -0.329881
      4          1           0       -1.942626    0.305567   -0.438040
      5          1           0       -2.142228    1.045925    1.414724
      6          6           0        0.617817    0.604854   -0.185199
      7          1           0       -0.609617   -1.025635   -0.861935
      8          1           0       -0.517111   -1.150656    0.580420
      9          6           0        1.981705   -0.143729    0.127347
     10          1           0        0.201586    1.116377    0.596939
     11          1           0        0.536177    1.445865   -1.128087
     12          1           0        1.653639   -0.942920    1.026119
     13          1           0        2.476218    0.321974    0.478236
     14          1           0        2.930826   -0.636263   -0.619265
 ---------------------------------------------------------------------

 SCF Done:  E(RB2PLYPD3) =  -157.135241163     A.U. after   12 cycles
 E2(B2PLYPD3) =    -0.2528543444D+00 E(B2PLYPD3) =    -0.15738809550752D+03

 The electronic state is 1-A.
 Alpha  occ. eigenvalues --  -10.63457 -10.60923 -10.60345 -10.57603  -0.97016
 Alpha  occ. eigenvalues --   -0.87480  -0.78964  -0.70861  -0.54348  -0.51959
 Alpha  occ. eigenvalues --   -0.50303  -0.45189  -0.42639  -0.40094  -0.38426
 Alpha  occ. eigenvalues --   -0.37506  -0.35745
 Alpha virt. eigenvalues --    0.02346   0.05535   0.07053   0.07828   0.09690
 Alpha virt. eigenvalues --    0.11121   0.12527   0.14351   0.14636   0.15273
 Alpha virt. eigenvalues --    0.15565   0.15719   0.18115   0.19810   0.21028

 Mulliken charges:
               1
     1  C   -0.894117
     2  C    0.024357
     3  H    0.071564
     4  H    0.707452
     5  H    0.016236
     6  C   -0.069103
     7  H    0.058182
     8  H    0.039142
     9  C   -0.434126
    10  H    0.076080
    11  H    0.016851
    12  H    0.042016
    13  H    0.300473
    14  H    0.044992
 Sum of Mulliken charges =   0.00000

 Dipole moment (field-independent basis, Debye):
    X=              0.2339    Y=             -0.0899    Z=             -0.2418  Tot=              0.3482
 Quadrupole moment (field-independent basis, Debye-Ang):
   XX=            -28.8295   YY=            -28.7941   ZZ=            -28.1733
   XY=              1.1424   XZ=              1.6682   YZ=              0.4004

 Normal termination of Gaussian 09 at Wed Aug 26 14:43:54 2020.
