 Gaussian 09, Revision D.01,
 Gaussian 09:  ES64L-G09RevD.01 24-Apr-2013

 --------------------
 #p B2PLYPD3/Def2QZVP
 --------------------

 ----------
 butane_opt
 ----------
 Symbolic Z-matrix:
 Charge =  0 Multiplicity = 1

                         Standard orientation:
 ---------------------------------------------------------------------
 Center     Atomic      Atomic             Coordinates (Angstroms)
 Number     Number       Type             X           Y           Z
 ---------------------------------------------------------------------
      1          6           0       -1.989315    0.126227    0.019911
      2          6           0       -0.576932   -0.524574   -0.064030
      3          1           0       -2.854128   -0.713508   -0.197654
      4          1           0       -2.015021    0.456546   -0.706166
      5          1           0       -2.097907    1.103511    1.200619
      6          6           0        0.588259    0.537752   -0.042546
      7          1           0       -0.427040   -1.151999   -0.947984
      8          1           0       -0.657628   -1.116657    0.824184
      9          6           0        1.968545   -0.139509    0.062065
     10          1           0        0.444839    1.158672    0.795877
     11          1           0        0.564581    1.205991   -0.995778
     12          1           0        2.273134   -0.986521    1.138110
     13          1           0        2.737534    0.563539   -0.407584
     14          1           0        2.088289   -0.518948   -0.556020
 ---------------------------------------------------------------------

 SCF Done:  E(RB2PLYPD3) =  -157.701434971     A.U. after   11 cycles
 E2(B2PLYPD3) =    -0.2513237040D+00 E(B2PLYPD3) =    -0.15795275867456D+03

 The electronic state is 1-A.
 Alpha  occ. eigenvalues --  -10.61864 -10.61837 -10.60966 -10.59552  -0.91924
 Alpha  occ. eigenvalues --   -0.86843  -0.76156  -0.68118  -0.54166  -0.49322
 Alpha  occ. eigenvalues --   -0.48149  -0.45188  -0.41651  -0.40439  -0.38694
 Alpha  occ. eigenvalues --   -0.37222  -0.36141
 Alpha virt. eigenvalues --    0.03975   0.05227   0.07193   0.07799   0.10369
 Alpha virt. eigenvalues --    0.10838   0.11761   0.12588   0.13660   0.15617
 Alpha virt. eigenvalues --    0.15984   0.16250   0.18796   0.19025   0.21017

 Mulliken charges:
               1
     1  C   -0.382901
     2  C   -0.038507
     3  H    0.039069
     4  H    0.267581
     5  H    0.027579
     6  C    0.004072
     7  H    0.036058
     8  H    0.049008
     9  C   -0.508900
    10  H    0.053349
    11  H    0.013473
    12  H    0.048928
    13  H    0.032152
    14  H    0.359038
 Sum of Mulliken charges =   0.00000

 Dipole moment (field-independent basis, Debye):
    X=              0.1095    Y=             -0.2063    Z=             -0.8485  Tot=              0.8800
 Quadrupole moment (field-independent basis, Debye-Ang):
   XX=            -31.2294   YY=            -29.2295   ZZ=            -27.7167
   XY=              0.1993   XZ=             -0.4610   YZ=             -0.0219

 Normal termination of Gaussian 09 at Wed Aug 26 22:35:21 2020.
