 Gaussian 09, Revision D.01,
 Gaussian 09:  ES64L-G09RevD.01 24-Apr-2013

 --------------------
 #p B2PLYPD3/Def2QZVP
 --------------------

 ----------
 butane_opt
 ----------
 Symbolic Z-matrix:
 Charge =  0 Multiplicity = 1

                         Standard orientation:
 ---------------------------------------------------------------------
 Center     Atomic      Atomic             Coordinates (Angstroms)
 Number     Number       Type             X           Y           Z
 ---------------------------------------------------------------------
      1          6           0       -1.915531    0.111060   -0.122381
      2          6           0       -0.495714   -0.497167    0.143337
      3          1           0       -2.758357   -0.801767   -0.191211
      4          1           0       -1.940528    0.864161   -1.065701
      5          1           0       -2.126089    0.644643    0.583128
      6          6           0        0.519916    0.514859    0.164803
      7          1           0       -0.431760   -0.868780   -0.678449
      8          1           0       -0.634175   -1.170530    0.950191
      9          6           0        1.940081   -0.139510   -0.158055
     10          1           0        0.411375    1.399128    1.122932
     11          1           0        0.199896    0.904751   -0.468413
     12          1           0        2.062412   -0.954721    0.798116
     13          1           0        2.918312    0.713954   -0.299843
     14          1           0        2.006403   -0.666287   -0.916975
 ---------------------------------------------------------------------

 SCF Done:  E(RB2PLYPD3) =  -157.849038024     A.U. after   11 cycles
 E2(B2PLYPD3) =    -0.2487564860D+00 E(B2PLYPD3) =    -0.15809779451002D+03

 The electronic state is 1-A.
 Alpha  occ. eigenvalues --  -10.62735 -10.60642 -10.59567 -10.57838  -0.95652
 Alpha  occ. eigenvalues --   -0.82849  -0.75149  -0.70185  -0.57189  -0.50296
 Alpha  occ. eigenvalues --   -0.48813  -0.44998  -0.43528  -0.40922  -0.38850
 Alpha  occ. eigenvalues --   -0.38641  -0.36269
 Alpha virt. eigenvalues --    0.05172   0.06295   0.08061   0.08736   0.10656
 Alpha virt. eigenvalues --    0.11691   0.12655   0.13110   0.14783   0.14988
 Alpha virt. eigenvalues --    0.15081   0.16718   0.19667   0.19719   0.20938

 Mulliken charges:
               1
     1  C   -0.196724
     2  C   -0.112467
     3  H    0.033404
     4  H    0.022541
     5  H    0.101937
     6  C   -0.277975
     7  H    0.130410
     8  H    0.034142
     9  C   -0.188902
    10  H    0.012940
    11  H    0.277317
    12  H    0.037344
    13  H    0.030794
    14  H    0.095239
 Sum of Mulliken charges =   0.00000

 Dipole moment (field-independent basis, Debye):
    X=             -0.3206    Y=             -0.1555    Z=             -0.3838  Tot=              0.5237
 Quadrupole moment (field-independent basis, Debye-Ang):
   XX=            -30.8755   YY=            -28.6812   ZZ=            -28.3735
   XY=              0.0083   XZ=             -1.3723   YZ=             -0.1747

 Normal termination of Gaussian 09 at Wed Aug 26 13:23:44 2020.
