 Gaussian 09, Revision D.01,
 Gaussian 09:  ES64L-G09RevD.01 24-Apr-2013

 --------------------
 #p B2PLYPD3/Def2QZVP
 --------------------

 ----------
 butane_opt
 ----------
 Symbolic Z-matrix:
 Charge =  0 Multiplicity = 1

                         Standard orientation:
 ---------------------------------------------------------------------
 Center     Atomic      Atomic             Coordinates (Angstroms)
 Number     Number       Type             X           Y           Z
 ---------------------------------------------------------------------
      1          6           0       -1.973587    0.078144   -0.113584
      2          6           0       -0.617829   -0.571632    0.118502
      3          1           0       -2.587045   -0.480870   -0.263888
      4          1           0       -2.036795    1.183758   -1.114994
      5          1           0       -2.049348    0.609255    0.630094
      6          6           0        0.532660    0.542512    0.315783
      7          1           0       -0.377880   -1.199498   -0.811669
      8          1           0       -0.537177   -1.438789    0.925157
      9          6           0        2.031867   -0.132275   -0.159095
     10          1           0        0.474249    1.245734    1.326851
     11          1           0        0.264214    1.187154   -0.480246
     12          1           0        2.852493   -0.675641    0.725946
     13          1           0        2.697827    0.644627   -0.998451
     14          1           0        1.460794   -0.576226   -0.908440
 ---------------------------------------------------------------------

 SCF Done:  E(RB2PLYPD3) =  -157.860381614     A.U. after   11 cycles
 E2(B2PLYPD3) =    -0.2540719800D+00 E(B2PLYPD3) =    -0.15811445359391D+03

 The electronic state is 1-A.
 Alpha  occ. eigenvalues --  -10.65138 -10.64035 -10.63590 -10.59581  -0.90869
 Alpha  occ. eigenvalues --   -0.82904  -0.72176  -0.66350  -0.56549  -0.51310
 Alpha  occ. eigenvalues --   -0.47750  -0.43743  -0.41548  -0.39885  -0.38109
 Alpha  occ. eigenvalues --   -0.35782  -0.34987
 Alpha virt. eigenvalues --    0.04497   0.05167   0.07351   0.07595   0.09550
 Alpha virt. eigenvalues --    0.10545   0.11995   0.13594   0.14184   0.14911
 Alpha virt. eigenvalues --    0.15711   0.16986   0.17258   0.18791   0.20826

 Mulliken charges:
               1
     1  C   -0.254306
     2  C   -0.003477
     3  H    0.145237
     4  H   -0.021193
     5  H    0.110317
     6  C   -0.093992
     7  H    0.011460
     8  H    0.023612
     9  C   -0.215583
    10  H    0.026350
    11  H    0.085150
    12  H    0.074144
    13  H    0.020861
    14  H    0.091418
 Sum of Mulliken charges =   0.00000

 Dipole moment (field-independent basis, Debye):
    X=             -0.4901    Y=             -0.3643    Z=              0.2406  Tot=              0.6564
 Quadrupole moment (field-independent basis, Debye-Ang):
   XX=            -30.2391   YY=            -29.6337   ZZ=            -29.1604
   XY=              0.3200   XZ=             -0.0798   YZ=             -0.1480

 Normal termination of Gaussian 09 at Wed Aug 26 21:42:41 2020.
