 Gaussian 09, Revision D.01,
 Gaussian 09:  ES64L-G09RevD.01 24-Apr-2013

 --------------------
 #p B2PLYPD3/Def2QZVP
 --------------------

 ----------
 butane_opt
 ----------
 Symbolic Z-matrix:
 Charge =  0 Multiplicity = 1

                         Standard orientation:
 ---------------------------------------------------------------------
 Center     Atomic      Atomic             Coordinates (Angstroms)
 Number     Number       Type             X           Y           Z
 ---------------------------------------------------------------------
      1          6           0       -1.948462    0.078851    0.082095
      2          6           0       -0.597702   -0.468945    0.014070
      3          1           0       -2.770496   -0.790051   -0.473052
      4          1           0       -1.898238    0.370259   -0.670705
      5          1           0       -2.307886    1.154976    1.212872
      6          6           0        0.568563    0.563488   -0.173882
      7          1           0       -0.634762   -1.325705   -0.852748
      8          1           0       -0.453319   -0.944091    0.792354
      9          6           0        2.031171   -0.130083    0.094485
     10          1           0        0.247024    1.060410    0.589921
     11          1           0        0.434806    1.261646   -1.113955
     12          1           0        2.142380   -0.807560    1.149533
     13          1           0        2.729106    0.478270   -0.054963
     14          1           0        2.189963   -0.718024   -0.679869
 ---------------------------------------------------------------------

 SCF Done:  E(RB2PLYPD3) =  -157.787502861     A.U. after   11 cycles
 E2(B2PLYPD3) =    -0.2519792274D+00 E(B2PLYPD3) =    -0.15803948208817D+03

 The electronic state is 1-A.
 Alpha  occ. eigenvalues --  -10.62267 -10.61374 -10.60161 -10.59941  -0.93630
 Alpha  occ. eigenvalues --   -0.85124  -0.76314  -0.68888  -0.53177  -0.49753
 Alpha  occ. eigenvalues --   -0.47333  -0.46587  -0.42597  -0.40870  -0.39452
 Alpha  occ. eigenvalues --   -0.38003  -0.34255
 Alpha virt. eigenvalues --    0.02717   0.05535   0.06523   0.08248   0.10404
 Alpha virt. eigenvalues --    0.11339   0.12370   0.13283   0.14134   0.15046
 Alpha virt. eigenvalues --    0.15922   0.16362   0.18578   0.19300   0.20189

 Mulliken charges:
               1
     1  C   -0.410544
     2  C   -0.035761
     3  H    0.028381
     4  H    0.301486
     5  H    0.029415
     6  C   -0.103918
     7  H   -0.006066
     8  H    0.082866
     9  C   -0.148642
    10  H    0.088142
    11  H    0.024145
    12  H    0.036208
    13  H    0.061013
    14  H    0.053276
 Sum of Mulliken charges =   0.00000

 Dipole moment (field-independent basis, Debye):
    X=              0.6182    Y=              0.0356    Z=             -0.4717  Tot=              0.7784
 Quadrupole moment (field-independent basis, Debye-Ang):
   XX=            -30.6633   YY=            -29.3287   ZZ=            -27.9774
   XY=             -0.0752   XZ=              0.6970   YZ=              0.2075

 Normal termination of Gaussian 09 at Wed Aug 26 14:42:32 2020.
