 Gaussian 09, Revision D.01,
 Gaussian 09:  ES64L-G09RevD.01 24-Apr-2013

 --------------------
 #p B2PLYPD3/Def2QZVP
 --------------------

 ----------
 butane_opt
 ----------
 Symbolic Z-matrix:
 Charge =  0 Multiplicity = 1

                         Standard orientation:
 ---------------------------------------------------------------------
 Center     Atomic      Atomic             Coordinates (Angstroms)
 Number     Number       Type             X           Y           Z
 ---------------------------------------------------------------------
      1          6           0        2.032049   -0.183367    0.123755
      2          6           0        0.521405    0.666040   -0.081406
      3          1           0        2.601298    0.157892    0.373774
      4          1           0        2.223029   -0.596021   -0.877725
      5          1           0        2.145838   -0.818182    0.952410
      6          6           0       -0.539688   -0.452212   -0.282083
      7          1           0        0.493132    1.495145   -0.975198
      8          1           0        0.211799    1.059239    0.667028
      9          6           0       -1.955947    0.064039    0.164988
     10          1           0       -0.457842   -1.300633    0.492187
     11          1           0       -0.724814   -0.888547   -1.025736
     12          1           0       -1.860750    0.547881    1.222203
     13          1           0       -2.749985   -0.822359    0.092770
     14          1           0       -2.228617    0.598584   -0.473240
 ---------------------------------------------------------------------

 SCF Done:  E(RB2PLYPD3) =  -157.730259944     A.U. after   11 cycles
 E2(B2PLYPD3) =    -0.2471237293D+00 E(B2PLYPD3) =    -0.15797738367346D+03

 The electronic state is 1-A.
 Alpha  occ. eigenvalues --  -10.61796 -10.58829 -10.58520 -10.56835  -0.91149
 Alpha  occ. eigenvalues --   -0.86446  -0.77691  -0.70578  -0.54778  -0.52428
 Alpha  occ. eigenvalues --   -0.47753  -0.46473  -0.43609  -0.41778  -0.40536
 Alpha  occ. eigenvalues --   -0.37722  -0.35132
 Alpha virt. eigenvalues --    0.05546   0.06788   0.08179   0.09184   0.10943
 Alpha virt. eigenvalues --    0.12453   0.12843   0.14025   0.15097   0.15606
 Alpha virt. eigenvalues --    0.16455   0.17440   0.18606   0.20000   0.21473

 Mulliken charges:
               1
     1  C   -0.482302
     2  C   -0.137644
     3  H    0.358498
     4  H    0.068161
     5  H    0.037316
     6  C   -0.081201
     7  H    0.026848
     8  H    0.136520
     9  C   -0.210107
    10  H    0.020831
    11  H    0.085194
    12  H    0.039248
    13  H    0.022770
    14  H    0.115870
 Sum of Mulliken charges =   0.00000

 Dipole moment (field-independent basis, Debye):
    X=              0.1928    Y=              0.1568    Z=             -0.0451  Tot=              0.2526
 Quadrupole moment (field-independent basis, Debye-Ang):
   XX=            -28.5524   YY=            -28.7945   ZZ=            -27.1328
   XY=              0.1444   XZ=              1.4444   YZ=              0.1320

 Normal termination of Gaussian 09 at Wed Aug 26 23:38:59 2020.
