 Gaussian 09, Revision D.01,
 Gaussian 09:  ES64L-G09RevD.01 24-Apr-2013

 --------------------
 #p B2PLYPD3/Def2QZVP
 --------------------

 ----------
 butane_opt
 ----------
 Symbolic Z-matrix:
 Charge =  0 Multiplicity = 1

                         Standard orientation:
 ---------------------------------------------------------------------
 Center     Atomic      Atomic             Coordinates (Angstroms)
 Number     Number       Type             X           Y           Z
 ---------------------------------------------------------------------
      1          6           0       -1.940242   -0.149339    0.026955
      2          6           0       -0.484812    0.556116   -0.055354
      3          1           0       -2.702825    0.490049   -0.177223
      4          1           0       -2.160988   -1.297674    1.198023
      5          1           0       -2.209002   -0.172824   -0.487814
      6          6           0        0.559867   -0.433815   -0.159460
      7          1           0        0.010015    1.312737    0.999874
      8          1           0       -0.253941    1.330780   -0.923112
      9          6           0        1.841603    0.036512    0.138504
     10          1           0        0.539336   -1.209318   -1.178467
     11          1           0        0.516285   -1.059862    0.491298
     12          1           0        2.174050    0.592192   -0.716754
     13          1           0        2.516138   -0.769283    0.023671
     14          1           0        1.712441    0.726357    1.066635
 ---------------------------------------------------------------------

 SCF Done:  E(RB2PLYPD3) =  -157.288445158     A.U. after   12 cycles
 E2(B2PLYPD3) =    -0.2559648435D+00 E(B2PLYPD3) =    -0.15754441000197D+03

 The electronic state is 1-A.
 Alpha  occ. eigenvalues --  -10.65464 -10.62695 -10.58788 -10.58104  -0.97966
 Alpha  occ. eigenvalues --   -0.93573  -0.77350  -0.66964  -0.54389  -0.53790
 Alpha  occ. eigenvalues --   -0.48034  -0.44017  -0.40591  -0.39535  -0.38099
 Alpha  occ. eigenvalues --   -0.36672  -0.34452
 Alpha virt. eigenvalues --    0.01943   0.05520   0.06194   0.06840   0.09996
 Alpha virt. eigenvalues --    0.10941   0.12573   0.13278   0.14937   0.15224
 Alpha virt. eigenvalues --    0.16166   0.16421   0.17645   0.19314   0.21617

 Mulliken charges:
               1
     1  C   -0.782001
     2  C   -0.052622
     3  H    0.027136
     4  H    0.052983
     5  H    0.690594
     6  C   -0.029136
     7  H   -0.003515
     8  H    0.033242
     9  C   -0.132317
    10  H   -0.014485
    11  H    0.096835
    12  H    0.022603
    13  H    0.040587
    14  H    0.050095
 Sum of Mulliken charges =   0.00000

 Dipole moment (field-independent basis, Debye):
    X=             -0.2882    Y=             -0.1603    Z=             -0.5382  Tot=              0.6312
 Quadrupole moment (field-independent basis, Debye-Ang):
   XX=            -28.5791   YY=            -29.4367   ZZ=            -28.7237
   XY=             -0.5252   XZ=              1.2675   YZ=             -1.3569

 Normal termination of Gaussian 09 at Wed Aug 26 09:45:56 2020.
