 Gaussian 09, Revision D.01,
 Gaussian 09:  ES64L-G09RevD.01 24-Apr-2013

 --------------------
 #p B2PLYPD3/Def2QZVP
 --------------------

 ----------
 butane_opt
 ----------
 Symbolic Z-matrix:
 Charge =  0 Multiplicity = 1

                         Standard orientation:
 ---------------------------------------------------------------------
 Center     Atomic      Atomic             Coordinates (Angstroms)
 Number     Number       Type             X           Y           Z
 ---------------------------------------------------------------------
      1          6           0       -1.906748    0.051097   -0.237000
      2          6           0       -0.629733   -0.388604    0.275724
      3          1           0       -2.890670   -0.917089   -0.632824
      4          1           0       -1.499936    0.569522   -1.112108
      5          1           0       -1.897749    1.072250    0.720524
      6          6           0        0.496893    0.545151    0.124234
      7          1           0       -0.284699   -0.869660   -0.241178
      8          1           0       -0.804184   -1.229782    1.620284
      9          6           0        1.956540   -0.217450   -0.165373
     10          1           0        0.483739    1.414902    0.909631
     11          1           0        0.420031    1.106446   -0.765292
     12          1           0        2.110547   -0.496079    0.600670
     13          1           0        2.696444    0.421036   -0.058999
     14          1           0        2.164770   -1.012700   -1.026214
 ---------------------------------------------------------------------

 SCF Done:  E(RB2PLYPD3) =  -157.687078325     A.U. after   11 cycles
 E2(B2PLYPD3) =    -0.2557239597D+00 E(B2PLYPD3) =    -0.15794280228472D+03

 The electronic state is 1-A.
 Alpha  occ. eigenvalues --  -10.66005 -10.62968 -10.60844 -10.58265  -0.95984
 Alpha  occ. eigenvalues --   -0.86262  -0.75062  -0.68828  -0.54600  -0.49724
 Alpha  occ. eigenvalues --   -0.48683  -0.46918  -0.43216  -0.41372  -0.37752
 Alpha  occ. eigenvalues --   -0.35760  -0.33494
 Alpha virt. eigenvalues --    0.02336   0.05213   0.06110   0.07664   0.09795
 Alpha virt. eigenvalues --    0.10673   0.11946   0.13405   0.14030   0.14427
 Alpha virt. eigenvalues --    0.15345   0.16164   0.18313   0.19072   0.19942

 Mulliken charges:
               1
     1  C   -0.149646
     2  C   -0.324676
     3  H    0.062738
     4  H    0.067339
     5  H    0.023103
     6  C   -0.047353
     7  H    0.348675
     8  H   -0.040356
     9  C   -0.288898
    10  H    0.016611
    11  H    0.045652
    12  H    0.186460
    13  H    0.041254
    14  H    0.059099
 Sum of Mulliken charges =   0.00000

 Dipole moment (field-independent basis, Debye):
    X=              0.9187    Y=              0.0478    Z=             -0.8687  Tot=              1.2652
 Quadrupole moment (field-independent basis, Debye-Ang):
   XX=            -30.0141   YY=            -29.6730   ZZ=            -29.4543
   XY=              1.1660   XZ=              1.1941   YZ=              1.5338

 Normal termination of Gaussian 09 at Wed Aug 26 15:31:12 2020.
