 Gaussian 09, Revision D.01,
 Gaussian 09:  ES64L-G09RevD.01 24-Apr-2013

 --------------------
 #p B2PLYPD3/Def2QZVP
 --------------------

 ----------
 butane_opt
 ----------
 Symbolic Z-matrix:
 Charge =  0 Multiplicity = 1

                         Standard orientation:
 ---------------------------------------------------------------------
 Center     Atomic      Atomic             Coordinates (Angstroms)
 Number     Number       Type             X           Y           Z
 ---------------------------------------------------------------------
      1          6           0       -1.971014    0.160776    0.073128
      2          6           0       -0.507160   -0.521971    0.006131
      3          1           0       -2.803922   -0.673169   -0.515295
      4          1           0       -1.910707    0.277758   -0.575458
      5          1           0       -2.292768    1.238559    1.161199
      6          6           0        0.581282    0.443584   -0.166428
      7          1           0       -0.398647   -1.340769   -0.825872
      8          1           0       -0.463822   -0.977609    0.885240
      9          6           0        1.907306   -0.087294    0.114984
     10          1           0        0.402106    0.935671    0.564448
     11          1           0        0.531792    1.121788   -1.252900
     12          1           0        2.129985   -0.653878    1.104011
     13          1           0        2.724693    0.674035   -0.179763
     14          1           0        2.018804   -0.572952   -0.532497
 ---------------------------------------------------------------------

 SCF Done:  E(RB2PLYPD3) =  -157.502646328     A.U. after   12 cycles
 E2(B2PLYPD3) =    -0.2528197951D+00 E(B2PLYPD3) =    -0.15775546612303D+03

 The electronic state is 1-A.
 Alpha  occ. eigenvalues --  -10.62139 -10.60894 -10.59231 -10.57617  -0.95362
 Alpha  occ. eigenvalues --   -0.88613  -0.78112  -0.68484  -0.56025  -0.49562
 Alpha  occ. eigenvalues --   -0.48257  -0.47222  -0.42626  -0.39310  -0.38883
 Alpha  occ. eigenvalues --   -0.37288  -0.35179
 Alpha virt. eigenvalues --    0.02560   0.05629   0.06715   0.07711   0.10215
 Alpha virt. eigenvalues --    0.10919   0.12348   0.12616   0.14351   0.15324
 Alpha virt. eigenvalues --    0.16204   0.16840   0.18282   0.19294   0.20871

 Mulliken charges:
               1
     1  C   -0.820163
     2  C   -0.020562
     3  H    0.031679
     4  H    0.652036
     5  H    0.073436
     6  C   -0.112964
     7  H    0.008139
     8  H    0.065982
     9  C   -0.304649
    10  H    0.128125
    11  H    0.012297
    12  H    0.049184
    13  H    0.035601
    14  H    0.201859
 Sum of Mulliken charges =   0.00000

 Dipole moment (field-independent basis, Debye):
    X=              0.4678    Y=              0.0732    Z=             -0.2253  Tot=              0.5244
 Quadrupole moment (field-independent basis, Debye-Ang):
   XX=            -31.1242   YY=            -29.3219   ZZ=            -27.1483
   XY=             -0.9672   XZ=              0.3084   YZ=              0.7903

 Normal termination of Gaussian 09 at Wed Aug 26 23:55:49 2020.
