 Gaussian 09, Revision D.01,
 Gaussian 09:  ES64L-G09RevD.01 24-Apr-2013

 --------------------
 #p B2PLYPD3/Def2QZVP
 --------------------

 ----------
 butane_opt
 ----------
 Symbolic Z-matrix:
 Charge =  0 Multiplicity = 1

                         Standard orientation:
 ---------------------------------------------------------------------
 Center     Atomic      Atomic             Coordinates (Angstroms)
 Number     Number       Type             X           Y           Z
 ---------------------------------------------------------------------
      1          6           0        1.954662    0.111420   -0.068684
      2          6           0        0.554929   -0.532644    0.089280
      3          1           0        2.683531   -0.527773   -0.267225
      4          1           0        2.261898    0.793300    0.854594
      5          1           0        1.903447    0.707972   -0.869006
      6          6           0       -0.564966    0.521110    0.071128
      7          1           0        0.505244   -1.253063    1.026256
      8          1           0        0.445542   -1.110479   -0.725866
      9          6           0       -1.945676   -0.127976   -0.055393
     10          1           0       -0.422319    1.231307   -0.892964
     11          1           0       -0.513384    1.167665    0.928340
     12          1           0       -1.982789   -0.856699   -0.986543
     13          1           0       -2.742491    0.660505   -0.020654
     14          1           0       -2.132376   -0.644193    0.735078
 ---------------------------------------------------------------------

 SCF Done:  E(RB2PLYPD3) =  -158.075200033     A.U. after   11 cycles
 E2(B2PLYPD3) =    -0.2462409862D+00 E(B2PLYPD3) =    -0.15832144101962D+03

 The electronic state is 1-A.
 Alpha  occ. eigenvalues --  -10.61517 -10.60610 -10.59576 -10.58501  -0.90918
 Alpha  occ. eigenvalues --   -0.83756  -0.73485  -0.66679  -0.53711  -0.50359
 Alpha  occ. eigenvalues --   -0.48535  -0.47566  -0.42815  -0.40862  -0.39047
 Alpha  occ. eigenvalues --   -0.38129  -0.37498
 Alpha virt. eigenvalues --    0.05794   0.06912   0.07951   0.08726   0.10845
 Alpha virt. eigenvalues --    0.12266   0.12821   0.14053   0.14915   0.15346
 Alpha virt. eigenvalues --    0.15651   0.16533   0.19611   0.19926   0.21903

 Mulliken charges:
               1
     1  C   -0.133889
     2  C   -0.059537
     3  H    0.046473
     4  H    0.022893
     5  H    0.052498
     6  C   -0.033406
     7  H    0.012932
     8  H    0.055701
     9  C   -0.150399
    10  H    0.007838
    11  H    0.042975
    12  H    0.033200
    13  H    0.038082
    14  H    0.064639
 Sum of Mulliken charges =   0.00000

 Dipole moment (field-independent basis, Debye):
    X=              0.0022    Y=             -0.1249    Z=             -0.0208  Tot=              0.1267
 Quadrupole moment (field-independent basis, Debye-Ang):
   XX=            -29.5541   YY=            -28.8617   ZZ=            -28.1174
   XY=             -0.4941   XZ=             -1.0104   YZ=              0.4161

 Normal termination of Gaussian 09 at Wed Aug 26 13:11:41 2020.
