 Gaussian 09, Revision D.01,
 Gaussian 09:  ES64L-G09RevD.01 24-Apr-2013

 --------------------
 #p B2PLYPD3/Def2QZVP
 --------------------

 ----------
 butane_opt
 ----------
 Symbolic Z-matrix:
 Charge =  0 Multiplicity = 1

                         Standard orientation:
 ---------------------------------------------------------------------
 Center     Atomic      Atomic             Coordinates (Angstroms)
 Number     Number       Type             X           Y           Z
 ---------------------------------------------------------------------
      1          6           0        1.977079   -0.151721    0.099213
      2          6           0        0.531493    0.600823   -0.033142
      3          1           0        2.598026    0.496529   -0.541968
      4          1           0        1.954640   -0.449673   -0.544652
      5          1           0        2.457637   -1.062428    1.195012
      6          6           0       -0.540781   -0.496935   -0.134306
      7          1           0        0.510110    1.336792   -0.957515
      8          1           0        0.303018    1.070237    0.814178
      9          6           0       -1.960164    0.058919    0.109282
     10          1           0       -0.549912   -0.998375    0.549351
     11          1           0       -0.505031   -1.235265   -1.177710
     12          1           0       -1.984972    0.851593    1.157664
     13          1           0       -2.768460   -0.733707   -0.048971
     14          1           0       -2.060819    0.657782   -0.691668
 ---------------------------------------------------------------------

 SCF Done:  E(RB2PLYPD3) =  -157.670484332     A.U. after   11 cycles
 E2(B2PLYPD3) =    -0.2520304124D+00 E(B2PLYPD3) =    -0.15792251474471D+03

 The electronic state is 1-A.
 Alpha  occ. eigenvalues --  -10.62002 -10.61448 -10.59965 -10.59459  -0.93059
 Alpha  occ. eigenvalues --   -0.87235  -0.75392  -0.68924  -0.53868  -0.48779
 Alpha  occ. eigenvalues --   -0.47410  -0.45040  -0.41996  -0.40653  -0.38466
 Alpha  occ. eigenvalues --   -0.37763  -0.35838
 Alpha virt. eigenvalues --    0.04061   0.05552   0.06899   0.07832   0.10844
 Alpha virt. eigenvalues --    0.11026   0.12217   0.12904   0.14001   0.15211
 Alpha virt. eigenvalues --    0.16087   0.16835   0.18264   0.18955   0.20547

 Mulliken charges:
               1
     1  C   -0.649225
     2  C   -0.022351
     3  H    0.034167
     4  H    0.497557
     5  H    0.071526
     6  C   -0.188827
     7  H    0.024304
     8  H    0.070896
     9  C   -0.169627
    10  H    0.190288
    11  H    0.001087
    12  H    0.023177
    13  H    0.051120
    14  H    0.065906
 Sum of Mulliken charges =   0.00000

 Dipole moment (field-independent basis, Debye):
    X=             -0.0889    Y=             -0.1842    Z=             -0.4168  Tot=              0.4642
 Quadrupole moment (field-independent basis, Debye-Ang):
   XX=            -31.1512   YY=            -28.9509   ZZ=            -27.6008
   XY=             -0.3237   XZ=             -0.5826   YZ=             -0.7756

 Normal termination of Gaussian 09 at Wed Aug 26 23:18:02 2020.
