 Gaussian 09, Revision D.01,
 Gaussian 09:  ES64L-G09RevD.01 24-Apr-2013

 --------------------
 #p B2PLYPD3/Def2QZVP
 --------------------

 ----------
 butane_opt
 ----------
 Symbolic Z-matrix:
 Charge =  0 Multiplicity = 1

                         Standard orientation:
 ---------------------------------------------------------------------
 Center     Atomic      Atomic             Coordinates (Angstroms)
 Number     Number       Type             X           Y           Z
 ---------------------------------------------------------------------
      1          6           0       -1.931873    0.117261   -0.241516
      2          6           0       -0.595525   -0.458714    0.265836
      3          1           0       -2.808913   -0.724919   -0.500241
      4          1           0       -1.776705    0.354984   -0.907776
      5          1           0       -2.547214    0.766762    0.639508
      6          6           0        0.521050    0.551423    0.091496
      7          1           0       -0.300412   -0.913258   -0.224972
      8          1           0       -1.006016   -1.186726    1.263876
      9          6           0        2.070714   -0.157952   -0.137466
     10          1           0        0.567770    1.586608    1.032047
     11          1           0        0.213603    0.785583   -0.670718
     12          1           0        2.415923   -0.613418    0.783313
     13          1           0        2.712436    0.420871   -0.340016
     14          1           0        2.143328   -0.788591   -0.945120
 ---------------------------------------------------------------------

 SCF Done:  E(RB2PLYPD3) =  -157.545093375     A.U. after   11 cycles
 E2(B2PLYPD3) =    -0.2490616448D+00 E(B2PLYPD3) =    -0.15779415501936D+03

 The electronic state is 1-A.
 Alpha  occ. eigenvalues --  -10.62882 -10.59504 -10.59050 -10.58483  -0.95983
 Alpha  occ. eigenvalues --   -0.84991  -0.79623  -0.71474  -0.56192  -0.51238
 Alpha  occ. eigenvalues --   -0.48932  -0.47796  -0.44535  -0.42536  -0.37864
 Alpha  occ. eigenvalues --   -0.36725  -0.36139
 Alpha virt. eigenvalues --    0.05100   0.06632   0.08064   0.08410   0.10844
 Alpha virt. eigenvalues --    0.11304   0.12911   0.13098   0.14375   0.15660
 Alpha virt. eigenvalues --    0.16120   0.17080   0.18913   0.19477   0.21119

 Mulliken charges:
               1
     1  C   -0.486283
     2  C   -0.463473
     3  H    0.025658
     4  H    0.377713
     5  H    0.065539
     6  C   -0.224235
     7  H    0.437410
     8  H    0.030247
     9  C   -0.155633
    10  H    0.010686
    11  H    0.213350
    12  H    0.050895
    13  H    0.091680
    14  H    0.026446
 Sum of Mulliken charges =   0.00000

 Dipole moment (field-independent basis, Debye):
    X=              0.3306    Y=             -0.1235    Z=             -0.7754  Tot=              0.8519
 Quadrupole moment (field-independent basis, Debye-Ang):
   XX=            -27.7012   YY=            -29.7161   ZZ=            -27.9177
   XY=             -0.0410   XZ=             -0.6190   YZ=              0.3637

 Normal termination of Gaussian 09 at Wed Aug 26 18:56:33 2020.
