 Gaussian 09, Revision D.01,
 Gaussian 09:  ES64L-G09RevD.01 24-Apr-2013

 --------------------
 #p B2PLYPD3/Def2QZVP
 --------------------

 ----------
 butane_opt
 ----------
 Symbolic Z-matrix:
 Charge =  0 Multiplicity = 1

                         Standard orientation:
 ---------------------------------------------------------------------
 Center     Atomic      Atomic             Coordinates (Angstroms)
 Number     Number       Type             X           Y           Z
 ---------------------------------------------------------------------
      1          6           0        1.862198    0.017605   -0.029211
      2          6           0        0.593293   -0.482897   -0.013760
      3          1           0        2.611648   -0.723978    0.061960
      4          1           0        1.878633    0.557819    0.778469
      5          1           0        2.022546    0.664620   -0.892674
      6          6           0       -0.468808    0.598506    0.139976
      7          1           0        0.482571   -0.935800    0.818888
      8          1           0        0.304445   -0.916741   -0.830075
      9          6           0       -2.004706   -0.177746   -0.110482
     10          1           0       -0.046763    1.316806   -0.640361
     11          1           0       -0.461699    1.265869    1.076570
     12          1           0       -1.475721   -0.437594   -0.780802
     13          1           0       -2.647094    0.505257   -0.525419
     14          1           0       -2.560427   -1.029066    1.014301
 ---------------------------------------------------------------------

 SCF Done:  E(RB2PLYPD3) =  -157.891238521     A.U. after   11 cycles
 E2(B2PLYPD3) =    -0.2512476037D+00 E(B2PLYPD3) =    -0.15814248612417D+03

 The electronic state is 1-A.
 Alpha  occ. eigenvalues --  -10.62623 -10.61845 -10.56813 -10.56145  -0.95650
 Alpha  occ. eigenvalues --   -0.84920  -0.74024  -0.67563  -0.59017  -0.51872
 Alpha  occ. eigenvalues --   -0.50953  -0.45857  -0.43659  -0.41378  -0.39564
 Alpha  occ. eigenvalues --   -0.36281  -0.33783
 Alpha virt. eigenvalues --    0.04066   0.06125   0.08389   0.08637   0.10425
 Alpha virt. eigenvalues --    0.11132   0.12873   0.13124   0.14654   0.15784
 Alpha virt. eigenvalues --    0.16398   0.16920   0.17625   0.19911   0.20666

 Mulliken charges:
               1
     1  C   -0.142728
     2  C   -0.066388
     3  H    0.041099
     4  H    0.065819
     5  H    0.027179
     6  C   -0.096823
     7  H    0.063936
     8  H    0.059556
     9  C   -0.274638
    10  H    0.026321
    11  H    0.025490
    12  H    0.147895
    13  H    0.066747
    14  H    0.056536
 Sum of Mulliken charges =   0.00000

 Dipole moment (field-independent basis, Debye):
    X=              0.3553    Y=             -0.0305    Z=             -0.0169  Tot=              0.3570
 Quadrupole moment (field-independent basis, Debye-Ang):
   XX=            -29.8602   YY=            -29.5052   ZZ=            -27.6889
   XY=             -0.4666   XZ=             -0.1421   YZ=             -0.7394

 Normal termination of Gaussian 09 at Wed Aug 26 22:44:13 2020.
