 Gaussian 09, Revision D.01,
 Gaussian 09:  ES64L-G09RevD.01 24-Apr-2013

 --------------------
 #p B2PLYPD3/Def2QZVP
 --------------------

 ----------
 butane_opt
 ----------
 Symbolic Z-matrix:
 Charge =  0 Multiplicity = 1

                         Standard orientation:
 ---------------------------------------------------------------------
 Center     Atomic      Atomic             Coordinates (Angstroms)
 Number     Number       Type             X           Y           Z
 ---------------------------------------------------------------------
      1          6           0       -2.039448   -0.133584   -0.004159
      2          6           0       -0.480734    0.566900    0.027057
      3          1           0       -2.672002    0.377986   -0.176962
      4          1           0       -2.494741   -0.357164    0.608950
      5          1           0       -1.972911   -0.936335   -0.866494
      6          6           0        0.621477   -0.474739    0.205762
      7          1           0       -0.398843    1.083906    0.703587
      8          1           0       -0.451835    1.177218   -1.058786
      9          6           0        1.919059    0.028266   -0.094710
     10          1           0        0.449234   -1.131548   -0.547833
     11          1           0        0.666286   -1.126452    1.131682
     12          1           0        1.679496    0.461164   -0.818486
     13          1           0        2.649254   -0.530706   -0.792872
     14          1           0        2.423938    1.060872    1.013516
 ---------------------------------------------------------------------

 SCF Done:  E(RB2PLYPD3) =  -157.678227374     A.U. after   11 cycles
 E2(B2PLYPD3) =    -0.2501493663D+00 E(B2PLYPD3) =    -0.15792837673995D+03

 The electronic state is 1-A.
 Alpha  occ. eigenvalues --  -10.61441 -10.61405 -10.60089 -10.55633  -0.94423
 Alpha  occ. eigenvalues --   -0.89074  -0.79356  -0.69285  -0.56442  -0.50553
 Alpha  occ. eigenvalues --   -0.49279  -0.47956  -0.42763  -0.41805  -0.37871
 Alpha  occ. eigenvalues --   -0.37728  -0.34840
 Alpha virt. eigenvalues --    0.03722   0.05911   0.07784   0.08033   0.10382
 Alpha virt. eigenvalues --    0.11210   0.11901   0.14288   0.14435   0.15439
 Alpha virt. eigenvalues --    0.16415   0.17702   0.18585   0.19653   0.20280

 Mulliken charges:
               1
     1  C   -0.384245
     2  C   -0.149994
     3  H    0.137995
     4  H    0.177141
     5  H    0.031644
     6  C   -0.015836
     7  H    0.154751
     8  H    0.024655
     9  C   -0.267520
    10  H    0.059356
    11  H    0.031690
    12  H    0.159511
    13  H    0.054569
    14  H   -0.013717
 Sum of Mulliken charges =   0.00000

 Dipole moment (field-independent basis, Debye):
    X=             -0.7751    Y=             -0.0408    Z=             -0.5468  Tot=              0.9495
 Quadrupole moment (field-independent basis, Debye-Ang):
   XX=            -29.7314   YY=            -29.4182   ZZ=            -27.4478
   XY=             -1.2430   XZ=             -2.1234   YZ=              0.6300

 Normal termination of Gaussian 09 at Wed Aug 26 16:31:48 2020.
