 Gaussian 09, Revision D.01,
 Gaussian 09:  ES64L-G09RevD.01 24-Apr-2013

 --------------------
 #p B2PLYPD3/Def2QZVP
 --------------------

 ----------
 butane_opt
 ----------
 Symbolic Z-matrix:
 Charge =  0 Multiplicity = 1

                         Standard orientation:
 ---------------------------------------------------------------------
 Center     Atomic      Atomic             Coordinates (Angstroms)
 Number     Number       Type             X           Y           Z
 ---------------------------------------------------------------------
      1          6           0        1.870728   -0.083011    0.047779
      2          6           0        0.556064    0.441674   -0.171040
      3          1           0        2.799337    0.806109    0.063032
      4          1           0        2.006056   -0.548681   -0.721236
      5          1           0        1.724290   -0.914664    1.290990
      6          6           0       -0.468186   -0.581409    0.033044
      7          1           0        0.395074    1.042016   -1.205027
      8          1           0        0.510168    1.214137    0.713196
      9          6           0       -1.888321    0.125354   -0.002025
     10          1           0       -0.384706   -1.025484    0.833016
     11          1           0       -0.610759   -1.208212   -0.787938
     12          1           0       -2.270708    1.440348    1.127503
     13          1           0       -2.652108   -0.482944   -0.261946
     14          1           0       -1.938360    0.261725   -0.498140
 ---------------------------------------------------------------------

 SCF Done:  E(RB2PLYPD3) =  -157.015196408     A.U. after   12 cycles
 E2(B2PLYPD3) =    -0.2547049685D+00 E(B2PLYPD3) =    -0.15726990137618D+03

 The electronic state is 1-A.
 Alpha  occ. eigenvalues --  -10.63376 -10.63021 -10.61839 -10.59576  -0.96937
 Alpha  occ. eigenvalues --   -0.90790  -0.79109  -0.66948  -0.56979  -0.50591
 Alpha  occ. eigenvalues --   -0.49763  -0.47928  -0.43816  -0.39902  -0.37121
 Alpha  occ. eigenvalues --   -0.36395  -0.34616
 Alpha virt. eigenvalues --    0.01642   0.04122   0.06074   0.07154   0.09812
 Alpha virt. eigenvalues --    0.10254   0.10944   0.12836   0.13576   0.15347
 Alpha virt. eigenvalues --    0.15779   0.16374   0.19139   0.19356   0.21246

 Mulliken charges:
               1
     1  C   -0.201988
     2  C   -0.021840
     3  H    0.039453
     4  H    0.107600
     5  H    0.009250
     6  C    0.001252
     7  H    0.026774
     8  H    0.042234
     9  C   -0.867116
    10  H    0.094427
    11  H    0.028290
    12  H   -0.002390
    13  H    0.044462
    14  H    0.699590
 Sum of Mulliken charges =   0.00000

 Dipole moment (field-independent basis, Debye):
    X=              0.0713    Y=             -0.5061    Z=             -1.1211  Tot=              1.2321
 Quadrupole moment (field-independent basis, Debye-Ang):
   XX=            -31.3767   YY=            -29.4934   ZZ=            -27.9695
   XY=              1.8916   XZ=              0.9761   YZ=              0.3406

 Normal termination of Gaussian 09 at Wed Aug 26 11:55:50 2020.
