 Gaussian 09, Revision D.01,
 Gaussian 09:  ES64L-G09RevD.01 24-Apr-2013

 --------------------
 #p B2PLYPD3/Def2QZVP
 --------------------

 ----------
 butane_opt
 ----------
 Symbolic Z-matrix:
 Charge =  0 Multiplicity = 1

                         Standard orientation:
 ---------------------------------------------------------------------
 Center     Atomic      Atomic             Coordinates (Angstroms)
 Number     Number       Type             X           Y           Z
 ---------------------------------------------------------------------
      1          6           0       -1.866393   -0.076719   -0.286847
      2          6           0       -0.525807   -0.347583    0.374975
      3          1           0       -2.543398   -0.897919   -0.572173
      4          1           0       -1.575686    0.241109   -1.166713
      5          1           0       -2.355018    1.262032    0.579483
      6          6           0        0.483456    0.601138    0.054227
      7          1           0       -0.486405   -0.833666   -0.201064
      8          1           0       -0.900203   -1.034498    1.842141
      9          6           0        1.974466   -0.188274   -0.086709
     10          1           0        0.240294    1.691228    0.718825
     11          1           0        0.196345    0.774177   -0.914774
     12          1           0        2.215771   -0.365987    0.753299
     13          1           0        2.643512    0.383978   -0.444344
     14          1           0        2.170463   -1.151832   -0.928547
 ---------------------------------------------------------------------

 SCF Done:  E(RB2PLYPD3) =  -157.627582686     A.U. after   12 cycles
 E2(B2PLYPD3) =    -0.2567907648D+00 E(B2PLYPD3) =    -0.15788437345041D+03

 The electronic state is 1-A.
 Alpha  occ. eigenvalues --  -10.64778 -10.63985 -10.61602 -10.60225  -0.98381
 Alpha  occ. eigenvalues --   -0.85164  -0.76682  -0.68707  -0.55374  -0.52098
 Alpha  occ. eigenvalues --   -0.50532  -0.46786  -0.43682  -0.40408  -0.39765
 Alpha  occ. eigenvalues --   -0.34147  -0.32081
 Alpha virt. eigenvalues --    0.01732   0.04306   0.05481   0.07779   0.08553
 Alpha virt. eigenvalues --    0.11087   0.11346   0.12948   0.13025   0.15180
 Alpha virt. eigenvalues --    0.15380   0.16694   0.17811   0.18389   0.19838

 Mulliken charges:
               1
     1  C   -0.149366
     2  C   -0.504868
     3  H    0.074948
     4  H    0.080220
     5  H   -0.043538
     6  C   -0.080935
     7  H    0.497403
     8  H   -0.014688
     9  C   -0.176504
    10  H    0.043504
    11  H    0.069644
    12  H    0.118653
    13  H    0.062621
    14  H    0.022906
 Sum of Mulliken charges =   0.00000

 Dipole moment (field-independent basis, Debye):
    X=              0.9062    Y=             -0.4826    Z=             -1.3599  Tot=              1.7040
 Quadrupole moment (field-independent basis, Debye-Ang):
   XX=            -30.7438   YY=            -30.4278   ZZ=            -28.9477
   XY=              2.0679   XZ=              1.1789   YZ=              1.3717

 Normal termination of Gaussian 09 at Wed Aug 26 13:34:20 2020.
