 Gaussian 09, Revision D.01,
 Gaussian 09:  ES64L-G09RevD.01 24-Apr-2013

 --------------------
 #p B2PLYPD3/Def2QZVP
 --------------------

 ----------
 butane_opt
 ----------
 Symbolic Z-matrix:
 Charge =  0 Multiplicity = 1

                         Standard orientation:
 ---------------------------------------------------------------------
 Center     Atomic      Atomic             Coordinates (Angstroms)
 Number     Number       Type             X           Y           Z
 ---------------------------------------------------------------------
      1          6           0        1.916950    0.043491    0.133148
      2          6           0        0.639824   -0.483827   -0.199577
      3          1           0        2.652564   -0.704463    0.000672
      4          1           0        2.036062    0.993269    1.257078
      5          1           0        2.185665    0.502863   -0.478600
      6          6           0       -0.508399    0.578021   -0.161182
      7          1           0        0.531494   -1.208868    0.767098
      8          1           0        0.441170   -1.201126   -1.096084
      9          6           0       -1.994489   -0.158181    0.122892
     10          1           0       -0.570674    1.192018   -1.073548
     11          1           0       -0.130073    1.304613    0.766971
     12          1           0       -2.084360   -0.276693   -0.491281
     13          1           0       -2.596518    0.444956   -0.212321
     14          1           0       -2.788644   -0.923591    1.188331
 ---------------------------------------------------------------------

 SCF Done:  E(RB2PLYPD3) =  -157.392865977     A.U. after   11 cycles
 E2(B2PLYPD3) =    -0.2549225672D+00 E(B2PLYPD3) =    -0.15764778854463D+03

 The electronic state is 1-A.
 Alpha  occ. eigenvalues --  -10.64278 -10.62172 -10.59076 -10.58722  -0.95844
 Alpha  occ. eigenvalues --   -0.91214  -0.77676  -0.66459  -0.53092  -0.50418
 Alpha  occ. eigenvalues --   -0.48767  -0.45633  -0.40469  -0.39602  -0.38551
 Alpha  occ. eigenvalues --   -0.36160  -0.34717
 Alpha virt. eigenvalues --    0.03644   0.04669   0.06312   0.07616   0.09751
 Alpha virt. eigenvalues --    0.10592   0.11981   0.13082   0.14383   0.15471
 Alpha virt. eigenvalues --    0.15791   0.17059   0.18395   0.19716   0.20633

 Mulliken charges:
               1
     1  C   -0.284255
     2  C   -0.016015
     3  H    0.051095
     4  H    0.016613
     5  H    0.191913
     6  C   -0.047526
     7  H    0.030490
     8  H    0.030201
     9  C   -0.773688
    10  H    0.040929
    11  H    0.027671
    12  H    0.608866
    13  H    0.049384
    14  H    0.074324
 Sum of Mulliken charges =   0.00000

 Dipole moment (field-independent basis, Debye):
    X=             -0.1292    Y=              0.0988    Z=             -1.1284  Tot=              1.1401
 Quadrupole moment (field-independent basis, Debye-Ang):
   XX=            -27.6504   YY=            -29.6445   ZZ=            -28.0553
   XY=              0.0820   XZ=             -0.1025   YZ=             -0.5237

 Normal termination of Gaussian 09 at Wed Aug 26 13:38:23 2020.
