 Gaussian 09, Revision D.01,
 Gaussian 09:  ES64L-G09RevD.01 24-Apr-2013

 --------------------
 #p B2PLYPD3/Def2QZVP
 --------------------

 ----------
 butane_opt
 ----------
 Symbolic Z-matrix:
 Charge =  0 Multiplicity = 1

                         Standard orientation:
 ---------------------------------------------------------------------
 Center     Atomic      Atomic             Coordinates (Angstroms)
 Number     Number       Type             X           Y           Z
 ---------------------------------------------------------------------
      1          6           0       -2.076471   -0.153959    0.029277
      2          6           0       -0.532501    0.582298   -0.124918
      3          1           0       -2.943562    0.511681    0.068516
      4          1           0       -2.165087   -0.870833    1.005195
      5          1           0       -2.379930   -0.837966   -0.878085
      6          6           0        0.627460   -0.487133    0.025854
      7          1           0       -0.206921    1.514285    0.829456
      8          1           0       -0.336152    1.217383   -1.053353
      9          6           0        1.932372    0.078284    0.024810
     10          1           0        0.807238   -1.080278   -0.695265
     11          1           0        0.381519   -1.114136    1.019843
     12          1           0        2.036593    0.403202   -0.780961
     13          1           0        2.897948   -0.884178   -0.306952
     14          1           0        2.203193    1.023899    1.061467
 ---------------------------------------------------------------------

 SCF Done:  E(RB2PLYPD3) =  -157.889544201     A.U. after   11 cycles
 E2(B2PLYPD3) =    -0.2539162105D+00 E(B2PLYPD3) =    -0.15814346041154D+03

 The electronic state is 1-A.
 Alpha  occ. eigenvalues --  -10.66621 -10.64379 -10.63110 -10.60654  -0.92987
 Alpha  occ. eigenvalues --   -0.81197  -0.72378  -0.66785  -0.54273  -0.49141
 Alpha  occ. eigenvalues --   -0.46302  -0.44737  -0.42492  -0.39803  -0.38369
 Alpha  occ. eigenvalues --   -0.36625  -0.35134
 Alpha virt. eigenvalues --    0.03730   0.05765   0.07197   0.07976   0.09636
 Alpha virt. eigenvalues --    0.10481   0.11881   0.13264   0.13670   0.14163
 Alpha virt. eigenvalues --    0.15183   0.16063   0.18218   0.19259   0.19493

 Mulliken charges:
               1
     1  C   -0.137284
     2  C   -0.091377
     3  H    0.061109
     4  H    0.043619
     5  H    0.041348
     6  C   -0.007789
     7  H    0.009019
     8  H    0.042843
     9  C   -0.248700
    10  H    0.077006
    11  H    0.027786
    12  H    0.157101
    13  H    0.002308
    14  H    0.023011
 Sum of Mulliken charges =   0.00000

 Dipole moment (field-independent basis, Debye):
    X=             -0.4820    Y=             -0.1077    Z=             -0.7612  Tot=              0.9074
 Quadrupole moment (field-independent basis, Debye-Ang):
   XX=            -30.7325   YY=            -29.9684   ZZ=            -28.9209
   XY=              0.3203   XZ=             -1.2839   YZ=              0.1542

 Normal termination of Gaussian 09 at Wed Aug 26 20:43:09 2020.
