 Gaussian 09, Revision D.01,
 Gaussian 09:  ES64L-G09RevD.01 24-Apr-2013

 --------------------
 #p B2PLYPD3/Def2QZVP
 --------------------

 ----------
 butane_opt
 ----------
 Symbolic Z-matrix:
 Charge =  0 Multiplicity = 1

                         Standard orientation:
 ---------------------------------------------------------------------
 Center     Atomic      Atomic             Coordinates (Angstroms)
 Number     Number       Type             X           Y           Z
 ---------------------------------------------------------------------
      1          6           0       -1.927202   -0.105218    0.196980
      2          6           0       -0.586510    0.521726   -0.171592
      3          1           0       -2.774503    0.712612    0.111456
      4          1           0       -1.869516   -0.647987    1.082762
      5          1           0       -2.402406   -0.510657   -0.563232
      6          6           0        0.499246   -0.633947   -0.113259
      7          1           0       -0.568403    0.800664    0.481793
      8          1           0       -0.714678    1.431950   -1.323584
      9          6           0        2.059262    0.152452    0.093417
     10          1           0        0.216582   -1.447421   -0.967327
     11          1           0        0.479294   -1.123802    0.634582
     12          1           0        2.362098    0.442391   -0.690755
     13          1           0        2.719995   -0.485193   -0.085688
     14          1           0        2.282758    1.217357    1.286719
 ---------------------------------------------------------------------

 SCF Done:  E(RB2PLYPD3) =  -157.576733284     A.U. after   11 cycles
 E2(B2PLYPD3) =    -0.2531502250D+00 E(B2PLYPD3) =    -0.15782988350881D+03

 The electronic state is 1-A.
 Alpha  occ. eigenvalues --  -10.62285 -10.61320 -10.60182 -10.58988  -0.93594
 Alpha  occ. eigenvalues --   -0.85796  -0.77360  -0.72262  -0.54828  -0.50858
 Alpha  occ. eigenvalues --   -0.47458  -0.43405  -0.42107  -0.40502  -0.38463
 Alpha  occ. eigenvalues --   -0.36743  -0.34758
 Alpha virt. eigenvalues --    0.02574   0.04874   0.06997   0.08021   0.10250
 Alpha virt. eigenvalues --    0.11178   0.12111   0.12972   0.14981   0.15292
 Alpha virt. eigenvalues --    0.15791   0.16406   0.18052   0.18525   0.20919

 Mulliken charges:
               1
     1  C   -0.121002
     2  C   -0.635196
     3  H    0.013591
     4  H    0.064196
     5  H    0.043663
     6  C   -0.125616
     7  H    0.590174
     8  H    0.026018
     9  C   -0.249096
    10  H    0.037267
    11  H    0.126377
    12  H    0.109600
    13  H    0.081151
    14  H    0.038873
 Sum of Mulliken charges =   0.00000

 Dipole moment (field-independent basis, Debye):
    X=             -0.0660    Y=             -0.4516    Z=             -0.1053  Tot=              0.4684
 Quadrupole moment (field-independent basis, Debye-Ang):
   XX=            -28.5982   YY=            -29.1816   ZZ=            -28.0987
   XY=             -0.1207   XZ=             -0.4189   YZ=              0.0431

 Normal termination of Gaussian 09 at Wed Aug 26 19:57:50 2020.
