 Gaussian 09, Revision D.01,
 Gaussian 09:  ES64L-G09RevD.01 24-Apr-2013

 --------------------
 #p B2PLYPD3/Def2QZVP
 --------------------

 ----------
 butane_opt
 ----------
 Symbolic Z-matrix:
 Charge =  0 Multiplicity = 1

                         Standard orientation:
 ---------------------------------------------------------------------
 Center     Atomic      Atomic             Coordinates (Angstroms)
 Number     Number       Type             X           Y           Z
 ---------------------------------------------------------------------
      1          6           0        2.045766    0.166891   -0.104585
      2          6           0        0.533164   -0.634753    0.077060
      3          1           0        2.647142   -0.436553   -0.057986
      4          1           0        2.157928    0.435632    0.606439
      5          1           0        2.355537    1.270099   -1.153669
      6          6           0       -0.564893    0.420660    0.285071
      7          1           0        0.550733   -1.209095    0.872914
      8          1           0        0.330155   -1.091038   -0.821119
      9          6           0       -2.039116   -0.047237   -0.164040
     10          1           0       -0.676825    1.122515   -0.396958
     11          1           0       -0.463226    1.039489    1.366276
     12          1           0       -1.581851   -0.687383   -1.092184
     13          1           0       -2.872888    0.839215   -0.434138
     14          1           0       -2.296231   -0.716249    0.549389
 ---------------------------------------------------------------------

 SCF Done:  E(RB2PLYPD3) =  -157.757289282     A.U. after   11 cycles
 E2(B2PLYPD3) =    -0.2512279520D+00 E(B2PLYPD3) =    -0.15800851723446D+03

 The electronic state is 1-A.
 Alpha  occ. eigenvalues --  -10.62477 -10.61066 -10.60863 -10.58548  -0.91440
 Alpha  occ. eigenvalues --   -0.86038  -0.76505  -0.67130  -0.55426  -0.50875
 Alpha  occ. eigenvalues --   -0.49127  -0.46810  -0.42488  -0.40145  -0.38744
 Alpha  occ. eigenvalues --   -0.37388  -0.33891
 Alpha virt. eigenvalues --    0.04339   0.05687   0.07941   0.08190   0.10494
 Alpha virt. eigenvalues --    0.10996   0.11816   0.13711   0.14562   0.15087
 Alpha virt. eigenvalues --    0.15567   0.16255   0.18896   0.19166   0.21092

 Mulliken charges:
               1
     1  C   -0.441307
     2  C   -0.072971
     3  H    0.111440
     4  H    0.267009
     5  H    0.024846
     6  C   -0.072242
     7  H    0.067828
     8  H    0.061432
     9  C   -0.190363
    10  H    0.079605
    11  H   -0.001228
    12  H    0.036979
    13  H    0.058066
    14  H    0.070908
 Sum of Mulliken charges =   0.00000

 Dipole moment (field-independent basis, Debye):
    X=              0.1438    Y=             -0.3622    Z=              0.3957  Tot=              0.5554
 Quadrupole moment (field-independent basis, Debye-Ang):
   XX=            -29.4185   YY=            -28.7288   ZZ=            -28.6047
   XY=             -1.4724   XZ=              1.0382   YZ=             -0.9318

 Normal termination of Gaussian 09 at Wed Aug 26 22:36:47 2020.
