 Gaussian 09, Revision D.01,
 Gaussian 09:  ES64L-G09RevD.01 24-Apr-2013

 --------------------
 #p B2PLYPD3/Def2QZVP
 --------------------

 ----------
 butane_opt
 ----------
 Symbolic Z-matrix:
 Charge =  0 Multiplicity = 1

                         Standard orientation:
 ---------------------------------------------------------------------
 Center     Atomic      Atomic             Coordinates (Angstroms)
 Number     Number       Type             X           Y           Z
 ---------------------------------------------------------------------
      1          6           0       -1.983683   -0.216002   -0.148762
      2          6           0       -0.535499    0.611188    0.118519
      3          1           0       -2.630019    0.394350   -0.593199
      4          1           0       -2.254013   -0.774482    0.730985
      5          1           0       -1.914546   -0.804900   -0.778137
      6          6           0        0.583330   -0.399425    0.339711
      7          1           0       -0.408733    1.726358    1.055316
      8          1           0       -0.196087    0.897695   -0.720549
      9          6           0        1.873820    0.008857   -0.236149
     10          1           0        0.499170   -1.122686   -0.487178
     11          1           0        0.803777   -0.978233    1.405274
     12          1           0        1.702220    0.508903   -1.239338
     13          1           0        2.700252   -0.723077   -0.316812
     14          1           0        2.070168    0.848365    0.503727
 ---------------------------------------------------------------------

 SCF Done:  E(RB2PLYPD3) =  -157.932199846     A.U. after   11 cycles
 E2(B2PLYPD3) =    -0.2506694225D+00 E(B2PLYPD3) =    -0.15818286926890D+03

 The electronic state is 1-A.
 Alpha  occ. eigenvalues --  -10.63753 -10.61650 -10.60684 -10.57748  -0.92653
 Alpha  occ. eigenvalues --   -0.84958  -0.75243  -0.64922  -0.53870  -0.51282
 Alpha  occ. eigenvalues --   -0.50283  -0.47545  -0.43878  -0.40424  -0.38575
 Alpha  occ. eigenvalues --   -0.38183  -0.32966
 Alpha virt. eigenvalues --    0.05177   0.06734   0.07163   0.08014   0.10850
 Alpha virt. eigenvalues --    0.12095   0.12504   0.12963   0.14158   0.15483
 Alpha virt. eigenvalues --    0.16400   0.17006   0.18259   0.19422   0.20341

 Mulliken charges:
               1
     1  C   -0.190505
     2  C   -0.148875
     3  H    0.043110
     4  H    0.060763
     5  H    0.114900
     6  C   -0.057634
     7  H    0.002434
     8  H    0.126200
     9  C   -0.148450
    10  H    0.037165
    11  H    0.031008
    12  H    0.035797
    13  H    0.059886
    14  H    0.034202
 Sum of Mulliken charges =   0.00000

 Dipole moment (field-independent basis, Debye):
    X=             -0.0530    Y=             -0.5307    Z=             -0.6852  Tot=              0.8683
 Quadrupole moment (field-independent basis, Debye-Ang):
   XX=            -29.6300   YY=            -29.7207   ZZ=            -28.0667
   XY=             -0.3906   XZ=              0.7493   YZ=             -0.0914

 Normal termination of Gaussian 09 at Wed Aug 26 19:02:45 2020.
