 Gaussian 09, Revision D.01,
 Gaussian 09:  ES64L-G09RevD.01 24-Apr-2013

 --------------------
 #p B2PLYPD3/Def2QZVP
 --------------------

 ----------
 butane_opt
 ----------
 Symbolic Z-matrix:
 Charge =  0 Multiplicity = 1

                         Standard orientation:
 ---------------------------------------------------------------------
 Center     Atomic      Atomic             Coordinates (Angstroms)
 Number     Number       Type             X           Y           Z
 ---------------------------------------------------------------------
      1          6           0       -1.882574    0.104507   -0.137495
      2          6           0       -0.616728   -0.518354    0.146292
      3          1           0       -2.716954   -0.595798   -0.581489
      4          1           0       -1.469779    0.652480   -0.834699
      5          1           0       -2.188392    0.693894    0.758956
      6          6           0        0.506720    0.565354    0.115750
      7          1           0       -0.286473   -0.833765   -0.485109
      8          1           0       -0.380102   -1.429422    1.259842
      9          6           0        1.882134   -0.140875   -0.156415
     10          1           0        0.328982    1.420871    0.981847
     11          1           0        0.474641    1.005031   -0.579393
     12          1           0        2.253623   -0.751272    0.790194
     13          1           0        2.670813    0.584386   -0.029695
     14          1           0        1.976327   -0.810200   -1.089242
 ---------------------------------------------------------------------

 SCF Done:  E(RB2PLYPD3) =  -157.807707954     A.U. after   11 cycles
 E2(B2PLYPD3) =    -0.2500235227D+00 E(B2PLYPD3) =    -0.15805773147644D+03

 The electronic state is 1-A.
 Alpha  occ. eigenvalues --  -10.61995 -10.59871 -10.59810 -10.59746  -0.96143
 Alpha  occ. eigenvalues --   -0.84924  -0.73677  -0.70905  -0.55164  -0.50739
 Alpha  occ. eigenvalues --   -0.48995  -0.47960  -0.43717  -0.41303  -0.39093
 Alpha  occ. eigenvalues --   -0.36039  -0.35562
 Alpha virt. eigenvalues --    0.05316   0.06609   0.07610   0.08302   0.11003
 Alpha virt. eigenvalues --    0.11844   0.12538   0.13346   0.14660   0.15520
 Alpha virt. eigenvalues --    0.15945   0.16525   0.18131   0.19284   0.21592

 Mulliken charges:
               1
     1  C   -0.146647
     2  C   -0.364810
     3  H    0.042914
     4  H    0.079074
     5  H    0.061039
     6  C   -0.260326
     7  H    0.363293
     8  H   -0.013972
     9  C   -0.149030
    10  H    0.023905
    11  H    0.231326
    12  H    0.027165
    13  H    0.050456
    14  H    0.055615
 Sum of Mulliken charges =   0.00000

 Dipole moment (field-independent basis, Debye):
    X=              0.1874    Y=              0.4419    Z=             -0.7668  Tot=              0.9046
 Quadrupole moment (field-independent basis, Debye-Ang):
   XX=            -29.4507   YY=            -29.5977   ZZ=            -28.3930
   XY=              0.0419   XZ=             -0.0251   YZ=              0.9210

 Normal termination of Gaussian 09 at Wed Aug 26 10:10:15 2020.
