 Gaussian 09, Revision D.01,
 Gaussian 09:  ES64L-G09RevD.01 24-Apr-2013

 --------------------
 #p B2PLYPD3/Def2QZVP
 --------------------

 ----------
 butane_opt
 ----------
 Symbolic Z-matrix:
 Charge =  0 Multiplicity = 1

                         Standard orientation:
 ---------------------------------------------------------------------
 Center     Atomic      Atomic             Coordinates (Angstroms)
 Number     Number       Type             X           Y           Z
 ---------------------------------------------------------------------
      1          6           0        1.968232    0.053113   -0.128271
      2          6           0        0.588687   -0.443691    0.089537
      3          1           0        2.738804   -0.910366   -0.068670
      4          1           0        2.365120    0.606843    0.633654
      5          1           0        1.861055    0.674777   -1.100201
      6          6           0       -0.497198    0.657191    0.144599
      7          1           0        0.750645   -1.234088    1.223504
      8          1           0        0.226504   -1.157035   -0.755721
      9          6           0       -2.001645   -0.186288   -0.147152
     10          1           0       -0.268651    0.976890   -0.461267
     11          1           0       -0.676706    1.809569    1.152723
     12          1           0       -2.035183   -0.330056   -0.731933
     13          1           0       -2.633673    0.255972   -0.687757
     14          1           0       -2.676366   -1.174457    1.043381
 ---------------------------------------------------------------------

 SCF Done:  E(RB2PLYPD3) =  -157.131162144     A.U. after   12 cycles
 E2(B2PLYPD3) =    -0.2577752591D+00 E(B2PLYPD3) =    -0.15738893740359D+03

 The electronic state is 1-A.
 Alpha  occ. eigenvalues --  -10.64975 -10.63895 -10.61854 -10.61676  -0.98807
 Alpha  occ. eigenvalues --   -0.91696  -0.80969  -0.66333  -0.53407  -0.49514
 Alpha  occ. eigenvalues --   -0.48279  -0.46313  -0.39785  -0.38927  -0.37356
 Alpha  occ. eigenvalues --   -0.35905  -0.34503
 Alpha virt. eigenvalues --    0.01800   0.04265   0.05601   0.06909   0.08221
 Alpha virt. eigenvalues --    0.10569   0.11360   0.12393   0.13671   0.15353
 Alpha virt. eigenvalues --    0.16402   0.16821   0.17979   0.18968   0.20125

 Mulliken charges:
               1
     1  C   -0.145219
     2  C   -0.008123
     3  H    0.040637
     4  H    0.072395
     5  H    0.033176
     6  C   -0.545708
     7  H   -0.015724
     8  H    0.061546
     9  C   -0.773794
    10  H    0.497857
    11  H    0.024728
    12  H    0.682502
    13  H    0.028644
    14  H    0.047083
 Sum of Mulliken charges =   0.00000

 Dipole moment (field-independent basis, Debye):
    X=              0.1505    Y=              0.1875    Z=             -1.1465  Tot=              1.1714
 Quadrupole moment (field-independent basis, Debye-Ang):
   XX=            -29.4610   YY=            -30.0218   ZZ=            -28.1294
   XY=              0.3696   XZ=              2.5715   YZ=             -0.5549

 Normal termination of Gaussian 09 at Wed Aug 26 21:59:04 2020.
