 Gaussian 09, Revision D.01,
 Gaussian 09:  ES64L-G09RevD.01 24-Apr-2013

 --------------------
 #p B2PLYPD3/Def2QZVP
 --------------------

 ----------
 butane_opt
 ----------
 Symbolic Z-matrix:
 Charge =  0 Multiplicity = 1

                         Standard orientation:
 ---------------------------------------------------------------------
 Center     Atomic      Atomic             Coordinates (Angstroms)
 Number     Number       Type             X           Y           Z
 ---------------------------------------------------------------------
      1          6           0        1.911989   -0.204764    0.182504
      2          6           0        0.582032    0.624191   -0.272276
      3          1           0        2.583220    0.397018    0.891278
      4          1           0        2.767098   -0.858716   -0.750486
      5          1           0        1.570362   -0.606274    0.926456
      6          6           0       -0.593081   -0.464377   -0.221086
      7          1           0        0.408338    1.418869   -1.234125
      8          1           0        0.240073    1.117768    0.680897
      9          6           0       -1.892463    0.104337    0.137614
     10          1           0       -0.476810   -1.121077    0.670549
     11          1           0       -0.495864   -1.100559   -1.099709
     12          1           0       -1.886266    0.897149    1.236445
     13          1           0       -2.760084   -1.010252    0.216464
     14          1           0       -2.000935    0.509756   -0.498299
 ---------------------------------------------------------------------

 SCF Done:  E(RB2PLYPD3) =  -157.769630516     A.U. after   11 cycles
 E2(B2PLYPD3) =    -0.2543931875D+00 E(B2PLYPD3) =    -0.15802402370320D+03

 The electronic state is 1-A.
 Alpha  occ. eigenvalues --  -10.64534 -10.62865 -10.61646 -10.60720  -0.92722
 Alpha  occ. eigenvalues --   -0.84811  -0.73481  -0.66681  -0.55038  -0.48995
 Alpha  occ. eigenvalues --   -0.46624  -0.44264  -0.42655  -0.41112  -0.37758
 Alpha  occ. eigenvalues --   -0.37057  -0.34057
 Alpha virt. eigenvalues --    0.04421   0.05312   0.07382   0.07486   0.09404
 Alpha virt. eigenvalues --    0.10402   0.11721   0.12391   0.14428   0.15341
 Alpha virt. eigenvalues --    0.15799   0.16818   0.17720   0.19012   0.20322

 Mulliken charges:
               1
     1  C   -0.225061
     2  C   -0.105541
     3  H    0.027925
     4  H    0.051868
     5  H    0.134504
     6  C   -0.008149
     7  H    0.039234
     8  H    0.045168
     9  C   -0.436965
    10  H    0.034641
    11  H    0.046938
    12  H    0.037895
    13  H    0.028011
    14  H    0.329533
 Sum of Mulliken charges =   0.00000

 Dipole moment (field-independent basis, Debye):
    X=              0.0264    Y=              0.0367    Z=              0.1095  Tot=              0.1185
 Quadrupole moment (field-independent basis, Debye-Ang):
   XX=            -32.0053   YY=            -29.8785   ZZ=            -27.8058
   XY=             -0.5191   XZ=              0.7383   YZ=              0.1425

 Normal termination of Gaussian 09 at Wed Aug 26 11:41:36 2020.
