 Gaussian 09, Revision D.01,
 Gaussian 09:  ES64L-G09RevD.01 24-Apr-2013

 --------------------
 #p B2PLYPD3/Def2QZVP
 --------------------

 ----------
 butane_opt
 ----------
 Symbolic Z-matrix:
 Charge =  0 Multiplicity = 1

                         Standard orientation:
 ---------------------------------------------------------------------
 Center     Atomic      Atomic             Coordinates (Angstroms)
 Number     Number       Type             X           Y           Z
 ---------------------------------------------------------------------
      1          6           0       -1.924202   -0.192088    0.066131
      2          6           0       -0.440622    0.644347    0.019723
      3          1           0       -2.779346    0.581486   -0.464713
      4          1           0       -2.344657   -0.966895    0.967965
      5          1           0       -1.945104   -0.595668   -0.662051
      6          6           0        0.569296   -0.451591   -0.056761
      7          1           0       -0.425132    0.952791    0.788446
      8          1           0       -0.187493    1.448554   -0.926124
      9          6           0        1.847280    0.049786    0.027421
     10          1           0        0.369564   -1.139422   -1.080889
     11          1           0        0.498125   -0.977763    0.693603
     12          1           0        1.956712    0.225256   -0.698482
     13          1           0        2.659633   -0.657410    0.012137
     14          1           0        1.887190    0.826349    1.031022
 ---------------------------------------------------------------------

 SCF Done:  E(RB2PLYPD3) =  -157.663011407     A.U. after   11 cycles
 E2(B2PLYPD3) =    -0.2501527047D+00 E(B2PLYPD3) =    -0.15791316411158D+03

 The electronic state is 1-A.
 Alpha  occ. eigenvalues --  -10.60872 -10.60691 -10.58375 -10.56501  -0.96410
 Alpha  occ. eigenvalues --   -0.85939  -0.77109  -0.70046  -0.57722  -0.51988
 Alpha  occ. eigenvalues --   -0.48419  -0.46162  -0.43904  -0.40206  -0.38960
 Alpha  occ. eigenvalues --   -0.37056  -0.35282
 Alpha virt. eigenvalues --    0.05586   0.05980   0.07512   0.08108   0.10356
 Alpha virt. eigenvalues --    0.11539   0.12267   0.12923   0.14629   0.15454
 Alpha virt. eigenvalues --    0.16103   0.16814   0.18615   0.19530   0.21704

 Mulliken charges:
               1
     1  C   -0.350612
     2  C   -0.197251
     3  H    0.012936
     4  H    0.064103
     5  H    0.220865
     6  C   -0.027885
     7  H    0.197804
     8  H    0.039821
     9  C   -0.426542
    10  H   -0.008024
    11  H    0.086899
    12  H    0.295590
    13  H    0.038874
    14  H    0.053421
 Sum of Mulliken charges =   0.00000

 Dipole moment (field-independent basis, Debye):
    X=              0.4118    Y=             -0.3221    Z=             -0.1065  Tot=              0.5336
 Quadrupole moment (field-independent basis, Debye-Ang):
   XX=            -30.6907   YY=            -29.2104   ZZ=            -27.1423
   XY=              0.6417   XZ=             -0.1094   YZ=             -0.3436

 Normal termination of Gaussian 09 at Wed Aug 26 11:52:12 2020.
