 Gaussian 09, Revision D.01,
 Gaussian 09:  ES64L-G09RevD.01 24-Apr-2013

 --------------------
 #p B2PLYPD3/Def2QZVP
 --------------------

 ----------
 butane_opt
 ----------
 Symbolic Z-matrix:
 Charge =  0 Multiplicity = 1

                         Standard orientation:
 ---------------------------------------------------------------------
 Center     Atomic      Atomic             Coordinates (Angstroms)
 Number     Number       Type             X           Y           Z
 ---------------------------------------------------------------------
      1          6           0       -1.934219    0.119984   -0.040471
      2          6           0       -0.534081   -0.516169    0.099801
      3          1           0       -2.706373   -0.608900   -0.345294
      4          1           0       -2.000297    0.573854   -0.850307
      5          1           0       -2.242096    1.093145    1.004000
      6          6           0        0.609020    0.449219   -0.003774
      7          1           0       -0.377650   -1.198074   -0.747396
      8          1           0       -0.563859   -1.085577    1.046155
      9          6           0        1.904834   -0.117070   -0.012407
     10          1           0        0.537069    1.025159    0.779332
     11          1           0        0.263628    1.199934   -1.007107
     12          1           0        2.076222   -0.591887    0.772824
     13          1           0        2.815218    0.817948   -0.084083
     14          1           0        1.924818   -0.841380   -0.827014
 ---------------------------------------------------------------------

 SCF Done:  E(RB2PLYPD3) =  -157.969188910     A.U. after   11 cycles
 E2(B2PLYPD3) =    -0.2489676841D+00 E(B2PLYPD3) =    -0.15821815659382D+03

 The electronic state is 1-A.
 Alpha  occ. eigenvalues --  -10.61703 -10.61149 -10.60191 -10.59827  -0.93527
 Alpha  occ. eigenvalues --   -0.85046  -0.73972  -0.67075  -0.56179  -0.50349
 Alpha  occ. eigenvalues --   -0.48834  -0.47200  -0.42647  -0.41046  -0.38309
 Alpha  occ. eigenvalues --   -0.37032  -0.36180
 Alpha virt. eigenvalues --    0.04918   0.05838   0.07784   0.07961   0.10545
 Alpha virt. eigenvalues --    0.11123   0.12370   0.12813   0.14540   0.15000
 Alpha virt. eigenvalues --    0.15774   0.16404   0.19451   0.19893   0.20449

 Mulliken charges:
               1
     1  C   -0.176707
     2  C   -0.022165
     3  H    0.043505
     4  H    0.080979
     5  H    0.011435
     6  C   -0.035333
     7  H    0.025803
     8  H    0.031966
     9  C   -0.164043
    10  H    0.062586
    11  H   -0.005055
    12  H    0.078473
    13  H    0.027830
    14  H    0.040727
 Sum of Mulliken charges =   0.00000

 Dipole moment (field-independent basis, Debye):
    X=              0.0613    Y=             -0.3754    Z=             -0.0639  Tot=              0.3857
 Quadrupole moment (field-independent basis, Debye-Ang):
   XX=            -30.7409   YY=            -29.4060   ZZ=            -28.3134
   XY=              0.2122   XZ=              1.9233   YZ=              0.5128

 Normal termination of Gaussian 09 at Wed Aug 26 10:30:23 2020.
