 Gaussian 09, Revision D.01,
 Gaussian 09:  ES64L-G09RevD.01 24-Apr-2013

 --------------------
 #p B2PLYPD3/Def2QZVP
 --------------------

 ----------
 butane_opt
 ----------
 Symbolic Z-matrix:
 Charge =  0 Multiplicity = 1

                         Standard orientation:
 ---------------------------------------------------------------------
 Center     Atomic      Atomic             Coordinates (Angstroms)
 Number     Number       Type             X           Y           Z
 ---------------------------------------------------------------------
      1          6           0        1.880058   -0.170220   -0.195614
      2          6           0        0.515977    0.611896    0.238247
      3          1           0        2.714288    0.560370   -0.819271
      4          1           0        1.746893   -0.757512   -0.932253
      5          1           0        2.769769   -0.954593    0.911728
      6          6           0       -0.522724   -0.481438    0.216846
      7          1           0        0.214771    1.097662   -0.443061
      8          1           0        0.396905    1.711802    1.267388
      9          6           0       -1.922508    0.040515   -0.180386
     10          1           0       -0.523366   -1.017534    1.167750
     11          1           0       -0.228160   -1.242011   -0.600695
     12          1           0       -2.398510    0.442546    0.423754
     13          1           0       -2.795219   -0.844711   -0.129893
     14          1           0       -1.602185    0.999460   -1.320008
 ---------------------------------------------------------------------

 SCF Done:  E(RB2PLYPD3) =  -157.754808746     A.U. after   11 cycles
 E2(B2PLYPD3) =    -0.2572716936D+00 E(B2PLYPD3) =    -0.15801208043942D+03

 The electronic state is 1-A.
 Alpha  occ. eigenvalues --  -10.66215 -10.63967 -10.63615 -10.62543  -0.92672
 Alpha  occ. eigenvalues --   -0.82978  -0.74560  -0.69023  -0.54433  -0.48717
 Alpha  occ. eigenvalues --   -0.47814  -0.45432  -0.40699  -0.38305  -0.37203
 Alpha  occ. eigenvalues --   -0.36734  -0.35491
 Alpha virt. eigenvalues --    0.02408   0.03295   0.05012   0.07181   0.08837
 Alpha virt. eigenvalues --    0.10023   0.11171   0.12353   0.13845   0.14709
 Alpha virt. eigenvalues --    0.15884   0.16197   0.17715   0.18859   0.19835

 Mulliken charges:
               1
     1  C   -0.198776
     2  C   -0.147321
     3  H    0.021121
     4  H    0.122304
     5  H    0.011794
     6  C   -0.003164
     7  H    0.157854
     8  H    0.010240
     9  C   -0.215688
    10  H    0.041054
    11  H    0.043645
    12  H    0.133602
    13  H    0.021951
    14  H    0.001382
 Sum of Mulliken charges =   0.00000

 Dipole moment (field-independent basis, Debye):
    X=             -0.6003    Y=             -0.1652    Z=             -0.1913  Tot=              0.6513
 Quadrupole moment (field-independent basis, Debye-Ang):
   XX=            -31.4454   YY=            -29.9057   ZZ=            -29.8178
   XY=             -0.0490   XZ=             -3.0991   YZ=             -0.2913

 Normal termination of Gaussian 09 at Wed Aug 26 12:34:34 2020.
