 Gaussian 09, Revision D.01,
 Gaussian 09:  ES64L-G09RevD.01 24-Apr-2013

 --------------------
 #p B2PLYPD3/Def2QZVP
 --------------------

 ----------
 butane_opt
 ----------
 Symbolic Z-matrix:
 Charge =  0 Multiplicity = 1

                         Standard orientation:
 ---------------------------------------------------------------------
 Center     Atomic      Atomic             Coordinates (Angstroms)
 Number     Number       Type             X           Y           Z
 ---------------------------------------------------------------------
      1          6           0       -1.917186    0.056311   -0.163920
      2          6           0       -0.641803   -0.456745    0.247805
      3          1           0       -2.628481   -0.862619   -0.583699
      4          1           0       -1.850287    0.270644   -0.768460
      5          1           0       -2.199145    1.240424    0.851124
      6          6           0        0.523478    0.557675   -0.017730
      7          1           0       -0.491200   -0.823343   -0.305510
      8          1           0       -0.599061   -1.307987    1.374070
      9          6           0        1.952995   -0.169014   -0.110834
     10          1           0        0.689774    1.532951    0.841818
     11          1           0        0.235744    1.135561   -0.998257
     12          1           0        2.336770   -0.494579    0.820966
     13          1           0        2.662351    0.533358    0.007586
     14          1           0        2.338635   -1.153772   -0.971558
 ---------------------------------------------------------------------

 SCF Done:  E(RB2PLYPD3) =  -157.288902827     A.U. after   12 cycles
 E2(B2PLYPD3) =    -0.2549571953D+00 E(B2PLYPD3) =    -0.15754386002245D+03

 The electronic state is 1-A.
 Alpha  occ. eigenvalues --  -10.66088 -10.62172 -10.61815 -10.59874  -0.98063
 Alpha  occ. eigenvalues --   -0.85484  -0.78788  -0.68739  -0.56054  -0.49028
 Alpha  occ. eigenvalues --   -0.48657  -0.46211  -0.41316  -0.39800  -0.38074
 Alpha  occ. eigenvalues --   -0.36364  -0.35717
 Alpha virt. eigenvalues --    0.02579   0.05478   0.06677   0.07258   0.08247
 Alpha virt. eigenvalues --    0.10880   0.11669   0.12842   0.13302   0.15009
 Alpha virt. eigenvalues --    0.15446   0.16780   0.18137   0.19054   0.19646

 Mulliken charges:
               1
     1  C   -0.682941
     2  C   -0.640295
     3  H    0.058717
     4  H    0.565943
     5  H    0.017734
     6  C   -0.007161
     7  H    0.639266
     8  H    0.034948
     9  C   -0.153715
    10  H    0.005531
    11  H    0.035696
    12  H    0.042192
    13  H    0.053232
    14  H    0.030854
 Sum of Mulliken charges =   0.00000

 Dipole moment (field-independent basis, Debye):
    X=              0.6621    Y=             -0.1593    Z=             -0.6223  Tot=              0.9225
 Quadrupole moment (field-independent basis, Debye-Ang):
   XX=            -30.9013   YY=            -29.1950   ZZ=            -28.6463
   XY=              1.0091   XZ=              2.5701   YZ=              0.8828

 Normal termination of Gaussian 09 at Wed Aug 26 18:46:21 2020.
