 Gaussian 09, Revision D.01,
 Gaussian 09:  ES64L-G09RevD.01 24-Apr-2013

 --------------------
 #p B2PLYPD3/Def2QZVP
 --------------------

 ----------
 butane_opt
 ----------
 Symbolic Z-matrix:
 Charge =  0 Multiplicity = 1

                         Standard orientation:
 ---------------------------------------------------------------------
 Center     Atomic      Atomic             Coordinates (Angstroms)
 Number     Number       Type             X           Y           Z
 ---------------------------------------------------------------------
      1          6           0        1.979666   -0.180447   -0.172444
      2          6           0        0.621240    0.600302    0.114805
      3          1           0        2.560056    0.365222   -0.440882
      4          1           0        2.358533   -0.897359   -0.867788
      5          1           0        2.349471   -0.553433    0.610055
      6          6           0       -0.615132   -0.483008    0.313544
      7          1           0        0.039068    0.871990   -0.708908
      8          1           0        0.805786    1.714610    1.108015
      9          6           0       -1.967996    0.081789   -0.207928
     10          1           0       -0.705360   -1.407652    1.514694
     11          1           0       -0.488210   -1.002518   -0.368768
     12          1           0       -2.567070    1.026543    0.624608
     13          1           0       -2.858882   -0.747514   -0.696522
     14          1           0       -1.600056    0.518291   -1.062364
 ---------------------------------------------------------------------

 SCF Done:  E(RB2PLYPD3) =  -157.743381469     A.U. after   11 cycles
 E2(B2PLYPD3) =    -0.2557956337D+00 E(B2PLYPD3) =    -0.15799917710268D+03

 The electronic state is 1-A.
 Alpha  occ. eigenvalues --  -10.66868 -10.65298 -10.63653 -10.56383  -0.92439
 Alpha  occ. eigenvalues --   -0.86908  -0.74235  -0.67188  -0.53251  -0.50368
 Alpha  occ. eigenvalues --   -0.49699  -0.45198  -0.41927  -0.39797  -0.38583
 Alpha  occ. eigenvalues --   -0.36698  -0.34428
 Alpha virt. eigenvalues --    0.03806   0.05727   0.06129   0.06655   0.09773
 Alpha virt. eigenvalues --    0.10565   0.12174   0.13429   0.13648   0.15249
 Alpha virt. eigenvalues --    0.15745   0.16838   0.17969   0.18597   0.20096

 Mulliken charges:
               1
     1  C   -0.218514
     2  C   -0.078210
     3  H    0.134402
     4  H    0.011183
     5  H    0.058070
     6  C   -0.241283
     7  H    0.091747
     8  H    0.032087
     9  C   -0.172556
    10  H   -0.011283
    11  H    0.244313
    12  H    0.030595
    13  H    0.042772
    14  H    0.076678
 Sum of Mulliken charges =   0.00000

 Dipole moment (field-independent basis, Debye):
    X=              0.7300    Y=              0.0290    Z=             -1.0121  Tot=              1.2482
 Quadrupole moment (field-independent basis, Debye-Ang):
   XX=            -28.3259   YY=            -30.0628   ZZ=            -29.4129
   XY=             -0.1694   XZ=              0.6408   YZ=              1.0699

 Normal termination of Gaussian 09 at Wed Aug 26 22:53:10 2020.
