 Gaussian 09, Revision D.01,
 Gaussian 09:  ES64L-G09RevD.01 24-Apr-2013

 --------------------
 #p B2PLYPD3/Def2QZVP
 --------------------

 ----------
 butane_opt
 ----------
 Symbolic Z-matrix:
 Charge =  0 Multiplicity = 1

                         Standard orientation:
 ---------------------------------------------------------------------
 Center     Atomic      Atomic             Coordinates (Angstroms)
 Number     Number       Type             X           Y           Z
 ---------------------------------------------------------------------
      1          6           0        1.931724    0.054928   -0.191228
      2          6           0        0.611310   -0.362139    0.320583
      3          1           0        2.872234   -0.854477   -0.584696
      4          1           0        2.164848    1.008418    0.603608
      5          1           0        1.545273    0.563719   -1.132634
      6          6           0       -0.537924    0.525951    0.085273
      7          1           0        0.396094   -1.157256    1.551257
      8          1           0        0.371643   -0.917073   -0.262127
      9          6           0       -1.903044   -0.160942   -0.161420
     10          1           0       -0.390607    0.775478   -0.745243
     11          1           0       -0.694471    1.358481    0.733896
     12          1           0       -2.212428   -1.210283   -1.169246
     13          1           0       -2.741670    0.629012   -0.036034
     14          1           0       -1.923313   -0.542808    0.721976
 ---------------------------------------------------------------------

 SCF Done:  E(RB2PLYPD3) =  -157.786940359     A.U. after   11 cycles
 E2(B2PLYPD3) =    -0.2542398235D+00 E(B2PLYPD3) =    -0.15804118018249D+03

 The electronic state is 1-A.
 Alpha  occ. eigenvalues --  -10.65569 -10.62776 -10.60720 -10.58886  -0.96437
 Alpha  occ. eigenvalues --   -0.84773  -0.72793  -0.68516  -0.56402  -0.49245
 Alpha  occ. eigenvalues --   -0.48845  -0.46061  -0.41951  -0.40142  -0.38516
 Alpha  occ. eigenvalues --   -0.36440  -0.34932
 Alpha virt. eigenvalues --    0.04461   0.04534   0.06383   0.07556   0.09830
 Alpha virt. eigenvalues --    0.11006   0.12059   0.12813   0.13795   0.14048
 Alpha virt. eigenvalues --    0.15391   0.16204   0.18405   0.19588   0.20006

 Mulliken charges:
               1
     1  C   -0.168129
     2  C   -0.224554
     3  H    0.064023
     4  H    0.042435
     5  H    0.053837
     6  C   -0.158973
     7  H   -0.033842
     8  H    0.260844
     9  C   -0.212691
    10  H    0.159121
    11  H    0.039668
    12  H    0.031336
    13  H    0.045980
    14  H    0.100944
 Sum of Mulliken charges =   0.00000

 Dipole moment (field-independent basis, Debye):
    X=             -0.2133    Y=              0.3676    Z=             -0.5400  Tot=              0.6873
 Quadrupole moment (field-independent basis, Debye-Ang):
   XX=            -30.7209   YY=            -29.4332   ZZ=            -29.5340
   XY=             -1.2032   XZ=             -1.4898   YZ=              1.5693

 Normal termination of Gaussian 09 at Wed Aug 26 11:10:56 2020.
