 Gaussian 09, Revision D.01,
 Gaussian 09:  ES64L-G09RevD.01 24-Apr-2013

 --------------------
 #p B2PLYPD3/Def2QZVP
 --------------------

 ----------
 butane_opt
 ----------
 Symbolic Z-matrix:
 Charge =  0 Multiplicity = 1

                         Standard orientation:
 ---------------------------------------------------------------------
 Center     Atomic      Atomic             Coordinates (Angstroms)
 Number     Number       Type             X           Y           Z
 ---------------------------------------------------------------------
      1          6           0       -1.983285   -0.020444   -0.218646
      2          6           0       -0.653934   -0.359081    0.365536
      3          1           0       -2.739739   -0.836632   -0.381292
      4          1           0       -1.729492    0.271214   -1.137001
      5          1           0       -2.318263    1.071422    0.555398
      6          6           0        0.565645    0.657684    0.053295
      7          1           0       -0.301375   -0.932149   -0.259023
      8          1           0       -0.791965   -0.813398    1.436742
      9          6           0        1.989969   -0.205068   -0.098542
     10          1           0        0.853798    1.339444    0.712135
     11          1           0        0.196308    0.916435   -0.922205
     12          1           0        2.534561   -0.393691    0.937939
     13          1           0        2.713859    0.269327   -0.659126
     14          1           0        2.071940   -1.330521   -0.893423
 ---------------------------------------------------------------------

 SCF Done:  E(RB2PLYPD3) =  -157.952818660     A.U. after   11 cycles
 E2(B2PLYPD3) =    -0.2509898756D+00 E(B2PLYPD3) =    -0.15820380853531D+03

 The electronic state is 1-A.
 Alpha  occ. eigenvalues --  -10.63859 -10.62424 -10.61938 -10.59632  -0.91806
 Alpha  occ. eigenvalues --   -0.82361  -0.72662  -0.67437  -0.56476  -0.50836
 Alpha  occ. eigenvalues --   -0.47879  -0.45170  -0.41960  -0.40131  -0.38955
 Alpha  occ. eigenvalues --   -0.37665  -0.34383
 Alpha virt. eigenvalues --    0.05082   0.05580   0.08407   0.08660   0.10832
 Alpha virt. eigenvalues --    0.11111   0.11666   0.12242   0.13216   0.14927
 Alpha virt. eigenvalues --    0.16204   0.17136   0.18430   0.19022   0.21112

 Mulliken charges:
               1
     1  C   -0.159467
     2  C   -0.127650
     3  H    0.061889
     4  H    0.055448
     5  H    0.009363
     6  C   -0.084495
     7  H    0.135265
     8  H    0.027258
     9  C   -0.168247
    10  H    0.069370
    11  H    0.063846
    12  H    0.049381
    13  H    0.063547
    14  H    0.004492
 Sum of Mulliken charges =   0.00000

 Dipole moment (field-independent basis, Debye):
    X=              0.3294    Y=              0.0766    Z=             -0.3271  Tot=              0.4705
 Quadrupole moment (field-independent basis, Debye-Ang):
   XX=            -30.1630   YY=            -30.0692   ZZ=            -28.1700
   XY=              1.9893   XZ=              0.6982   YZ=              0.7932

 Normal termination of Gaussian 09 at Wed Aug 26 10:42:04 2020.
