 Gaussian 09, Revision D.01,
 Gaussian 09:  ES64L-G09RevD.01 24-Apr-2013

 --------------------
 #p B2PLYPD3/Def2QZVP
 --------------------

 ----------
 butane_opt
 ----------
 Symbolic Z-matrix:
 Charge =  0 Multiplicity = 1

                         Standard orientation:
 ---------------------------------------------------------------------
 Center     Atomic      Atomic             Coordinates (Angstroms)
 Number     Number       Type             X           Y           Z
 ---------------------------------------------------------------------
      1          6           0        1.937895    0.079153   -0.085687
      2          6           0        0.582700   -0.444034    0.140936
      3          1           0        2.791586   -0.819137   -0.375079
      4          1           0        2.182165    0.846076    0.813761
      5          1           0        1.579874    0.654750   -0.935087
      6          6           0       -0.514499    0.535475    0.072296
      7          1           0        0.409320   -1.222400    1.148578
      8          1           0        0.331255   -0.955596   -0.617521
      9          6           0       -1.940736   -0.159439   -0.051792
     10          1           0       -0.298572    1.202897   -0.848205
     11          1           0       -0.490256    1.166947    0.824038
     12          1           0       -1.937347   -0.939269   -0.988111
     13          1           0       -2.715466    0.509192   -0.036916
     14          1           0       -2.244718   -0.510388    0.560029
 ---------------------------------------------------------------------

 SCF Done:  E(RB2PLYPD3) =  -157.883896475     A.U. after   11 cycles
 E2(B2PLYPD3) =    -0.2486654850D+00 E(B2PLYPD3) =    -0.15813256195995D+03

 The electronic state is 1-A.
 Alpha  occ. eigenvalues --  -10.62713 -10.60387 -10.59764 -10.57511  -0.93775
 Alpha  occ. eigenvalues --   -0.86193  -0.75812  -0.67176  -0.55104  -0.50680
 Alpha  occ. eigenvalues --   -0.48936  -0.46884  -0.42645  -0.41647  -0.38801
 Alpha  occ. eigenvalues --   -0.38128  -0.36231
 Alpha virt. eigenvalues --    0.05382   0.06649   0.07676   0.08745   0.10529
 Alpha virt. eigenvalues --    0.11858   0.12748   0.14313   0.14660   0.15345
 Alpha virt. eigenvalues --    0.15724   0.16279   0.19132   0.19929   0.21270

 Mulliken charges:
               1
     1  C   -0.175597
     2  C   -0.060685
     3  H    0.052501
     4  H    0.042162
     5  H    0.058832
     6  C    0.008115
     7  H   -0.012585
     8  H    0.091667
     9  C   -0.351780
    10  H    0.006445
    11  H    0.041663
    12  H    0.032871
    13  H    0.033230
    14  H    0.233160
 Sum of Mulliken charges =   0.00000

 Dipole moment (field-independent basis, Debye):
    X=             -0.4295    Y=              0.1087    Z=              0.0486  Tot=              0.4457
 Quadrupole moment (field-independent basis, Debye-Ang):
   XX=            -29.3690   YY=            -29.0993   ZZ=            -28.6010
   XY=             -0.5232   XZ=             -1.0982   YZ=              0.9372

 Normal termination of Gaussian 09 at Wed Aug 26 23:20:03 2020.
