 Gaussian 09, Revision D.01,
 Gaussian 09:  ES64L-G09RevD.01 24-Apr-2013

 --------------------
 #p B2PLYPD3/Def2QZVP
 --------------------

 ----------
 butane_opt
 ----------
 Symbolic Z-matrix:
 Charge =  0 Multiplicity = 1

                         Standard orientation:
 ---------------------------------------------------------------------
 Center     Atomic      Atomic             Coordinates (Angstroms)
 Number     Number       Type             X           Y           Z
 ---------------------------------------------------------------------
      1          6           0       -1.955601    0.096866   -0.260670
      2          6           0       -0.614897   -0.562771    0.231861
      3          1           0       -2.637012   -0.555687   -0.145025
      4          1           0       -1.777145    0.903116   -1.197287
      5          1           0       -2.211208    0.755359    0.767988
      6          6           0        0.509605    0.563304    0.268844
      7          1           0       -0.371365   -1.233570   -0.575796
      8          1           0       -0.859114   -1.217785    0.962296
      9          6           0        2.003023   -0.141489   -0.155438
     10          1           0        0.572993    1.380450    1.293645
     11          1           0        0.411436    1.299033   -0.676276
     12          1           0        2.559325   -0.834445    0.746622
     13          1           0        2.804448    0.615299   -0.639191
     14          1           0        1.854857   -0.847229   -1.044564
 ---------------------------------------------------------------------

 SCF Done:  E(RB2PLYPD3) =  -157.982228877     A.U. after   11 cycles
 E2(B2PLYPD3) =    -0.2530834457D+00 E(B2PLYPD3) =    -0.15823531232242D+03

 The electronic state is 1-A.
 Alpha  occ. eigenvalues --  -10.66471 -10.64439 -10.61801 -10.61085  -0.89165
 Alpha  occ. eigenvalues --   -0.79992  -0.71349  -0.66109  -0.52797  -0.49330
 Alpha  occ. eigenvalues --   -0.46295  -0.44192  -0.42073  -0.39424  -0.38700
 Alpha  occ. eigenvalues --   -0.36398  -0.35339
 Alpha virt. eigenvalues --    0.05075   0.06208   0.07230   0.08217   0.10538
 Alpha virt. eigenvalues --    0.11347   0.11920   0.12648   0.13978   0.14901
 Alpha virt. eigenvalues --    0.15696   0.16323   0.18730   0.18807   0.20345

 Mulliken charges:
               1
     1  C   -0.180470
     2  C   -0.020774
     3  H    0.070767
     4  H    0.063252
     5  H    0.010157
     6  C   -0.060284
     7  H    0.030321
     8  H    0.044107
     9  C   -0.159139
    10  H    0.036939
    11  H    0.033448
    12  H    0.037199
    13  H    0.042791
    14  H    0.051685
 Sum of Mulliken charges =   0.00000

 Dipole moment (field-independent basis, Debye):
    X=             -0.2474    Y=             -0.3766    Z=             -0.2119  Tot=              0.4979
 Quadrupole moment (field-independent basis, Debye-Ang):
   XX=            -31.2181   YY=            -28.9942   ZZ=            -28.9052
   XY=              1.3227   XZ=             -0.9241   YZ=             -0.7250

 Normal termination of Gaussian 09 at Wed Aug 26 11:13:38 2020.
