 Gaussian 09, Revision D.01,
 Gaussian 09:  ES64L-G09RevD.01 24-Apr-2013

 --------------------
 #p B2PLYPD3/Def2QZVP
 --------------------

 ----------
 butane_opt
 ----------
 Symbolic Z-matrix:
 Charge =  0 Multiplicity = 1

                         Standard orientation:
 ---------------------------------------------------------------------
 Center     Atomic      Atomic             Coordinates (Angstroms)
 Number     Number       Type             X           Y           Z
 ---------------------------------------------------------------------
      1          6           0        1.996422   -0.200952   -0.064795
      2          6           0        0.538233    0.656797    0.121922
      3          1           0        2.950078    0.498855   -0.619465
      4          1           0        2.090802   -0.608867   -0.774765
      5          1           0        2.471721   -0.771229    0.909236
      6          6           0       -0.646729   -0.487997    0.154815
      7          1           0        0.277637    1.157555   -0.814111
      8          1           0        0.484240    1.253408    0.999731
      9          6           0       -1.937083    0.055098   -0.110077
     10          1           0       -0.524651   -1.047044    0.976253
     11          1           0       -0.485884   -1.458846   -0.920179
     12          1           0       -2.233416    0.710157    0.787549
     13          1           0       -2.670080   -0.670062   -0.137507
     14          1           0       -2.065503    0.798402   -1.017931
 ---------------------------------------------------------------------

 SCF Done:  E(RB2PLYPD3) =  -157.916144004     A.U. after   11 cycles
 E2(B2PLYPD3) =    -0.2509426905D+00 E(B2PLYPD3) =    -0.15816708669476D+03

 The electronic state is 1-A.
 Alpha  occ. eigenvalues --  -10.63429 -10.63348 -10.61523 -10.60731  -0.90596
 Alpha  occ. eigenvalues --   -0.83480  -0.74910  -0.66944  -0.54237  -0.49799
 Alpha  occ. eigenvalues --   -0.48277  -0.47169  -0.44217  -0.40814  -0.39603
 Alpha  occ. eigenvalues --   -0.34795  -0.33579
 Alpha virt. eigenvalues --    0.04987   0.06076   0.07023   0.08546   0.09781
 Alpha virt. eigenvalues --    0.11310   0.12163   0.12595   0.14673   0.15342
 Alpha virt. eigenvalues --    0.15952   0.16268   0.18309   0.19411   0.21022

 Mulliken charges:
               1
     1  C   -0.309826
     2  C   -0.066670
     3  H   -0.012328
     4  H    0.218837
     5  H    0.059597
     6  C   -0.047070
     7  H    0.056945
     8  H    0.066138
     9  C   -0.118517
    10  H    0.073650
    11  H   -0.042338
    12  H    0.018656
    13  H    0.064475
    14  H    0.038451
 Sum of Mulliken charges =   0.00000

 Dipole moment (field-independent basis, Debye):
    X=             -0.5450    Y=              0.0711    Z=              0.2960  Tot=              0.6242
 Quadrupole moment (field-independent basis, Debye-Ang):
   XX=            -30.4330   YY=            -29.9930   ZZ=            -27.9640
   XY=             -0.8437   XZ=             -0.4144   YZ=             -0.6658

 Normal termination of Gaussian 09 at Wed Aug 26 22:36:12 2020.
