 Gaussian 09, Revision D.01,
 Gaussian 09:  ES64L-G09RevD.01 24-Apr-2013

 --------------------
 #p B2PLYPD3/Def2QZVP
 --------------------

 ----------
 butane_opt
 ----------
 Symbolic Z-matrix:
 Charge =  0 Multiplicity = 1

                         Standard orientation:
 ---------------------------------------------------------------------
 Center     Atomic      Atomic             Coordinates (Angstroms)
 Number     Number       Type             X           Y           Z
 ---------------------------------------------------------------------
      1          6           0        1.919029    0.097771   -0.202870
      2          6           0        0.615355   -0.531216    0.251665
      3          1           0        2.687805   -0.604654   -0.207499
      4          1           0        2.198418    0.648737    0.510938
      5          1           0        1.854249    0.613724   -1.213402
      6          6           0       -0.532562    0.589393    0.098568
      7          1           0        0.795389   -1.060675    1.271557
      8          1           0        0.425428   -1.134088   -0.460615
      9          6           0       -2.029939   -0.178524   -0.157582
     10          1           0       -0.341451    0.952100   -0.492421
     11          1           0       -0.577363    1.915502    1.206744
     12          1           0       -1.920184   -0.722634   -0.883050
     13          1           0       -2.664503    0.283998   -0.686153
     14          1           0       -2.289089   -0.756557    1.015220
 ---------------------------------------------------------------------

 SCF Done:  E(RB2PLYPD3) =  -157.687985061     A.U. after   12 cycles
 E2(B2PLYPD3) =    -0.2506171158D+00 E(B2PLYPD3) =    -0.15793860217626D+03

 The electronic state is 1-A.
 Alpha  occ. eigenvalues --  -10.63673 -10.61016 -10.60454 -10.58022  -0.92735
 Alpha  occ. eigenvalues --   -0.85643  -0.78441  -0.71061  -0.54463  -0.51522
 Alpha  occ. eigenvalues --   -0.49321  -0.46452  -0.42848  -0.42097  -0.40077
 Alpha  occ. eigenvalues --   -0.37073  -0.33288
 Alpha virt. eigenvalues --    0.02675   0.05978   0.06765   0.08273   0.10660
 Alpha virt. eigenvalues --    0.11208   0.12316   0.12888   0.14293   0.15220
 Alpha virt. eigenvalues --    0.16298   0.17283   0.18049   0.18412   0.20639

 Mulliken charges:
               1
     1  C   -0.144053
     2  C   -0.055363
     3  H    0.030706
     4  H    0.074374
     5  H    0.032417
     6  C   -0.488116
     7  H    0.036574
     8  H    0.098060
     9  C   -0.185177
    10  H    0.435416
    11  H   -0.050539
    12  H    0.086714
    13  H    0.061933
    14  H    0.067052
 Sum of Mulliken charges =   0.00000

 Dipole moment (field-independent basis, Debye):
    X=              0.3128    Y=             -0.8738    Z=             -1.0573  Tot=              1.4069
 Quadrupole moment (field-independent basis, Debye-Ang):
   XX=            -28.9848   YY=            -30.4452   ZZ=            -27.5596
   XY=              0.1499   XZ=              1.9946   YZ=             -1.2192

 Normal termination of Gaussian 09 at Wed Aug 26 15:21:03 2020.
