 Gaussian 09, Revision D.01,
 Gaussian 09:  ES64L-G09RevD.01 24-Apr-2013

 --------------------
 #p B2PLYPD3/Def2QZVP
 --------------------

 ----------
 butane_opt
 ----------
 Symbolic Z-matrix:
 Charge =  0 Multiplicity = 1

                         Standard orientation:
 ---------------------------------------------------------------------
 Center     Atomic      Atomic             Coordinates (Angstroms)
 Number     Number       Type             X           Y           Z
 ---------------------------------------------------------------------
      1          6           0        2.042127   -0.223734   -0.113965
      2          6           0        0.513556    0.626329    0.209883
      3          1           0        2.915127    0.538590   -1.111088
      4          1           0        1.709363   -0.778774   -0.848575
      5          1           0        2.819845   -0.888806    0.811240
      6          6           0       -0.669043   -0.448617    0.146483
      7          1           0        0.450918    0.864558   -0.373016
      8          1           0        0.502652    1.655505    1.242949
      9          6           0       -1.956276    0.086013   -0.208300
     10          1           0       -0.750903   -1.193754    1.212166
     11          1           0       -0.615582   -0.933544   -0.380353
     12          1           0       -1.997357    0.513783    0.585101
     13          1           0       -2.713358   -0.724831   -0.156938
     14          1           0       -1.902888    0.707333   -1.186088
 ---------------------------------------------------------------------

 SCF Done:  E(RB2PLYPD3) =  -157.286782502     A.U. after   12 cycles
 E2(B2PLYPD3) =    -0.2546396698D+00 E(B2PLYPD3) =    -0.15754142217135D+03

 The electronic state is 1-A.
 Alpha  occ. eigenvalues --  -10.67111 -10.63711 -10.59257 -10.58372  -0.96657
 Alpha  occ. eigenvalues --   -0.86825  -0.73765  -0.73601  -0.56824  -0.50446
 Alpha  occ. eigenvalues --   -0.48797  -0.45458  -0.41343  -0.40486  -0.38456
 Alpha  occ. eigenvalues --   -0.36837  -0.35039
 Alpha virt. eigenvalues --    0.03254   0.04834   0.07024   0.07957   0.08844
 Alpha virt. eigenvalues --    0.10499   0.11834   0.12378   0.14499   0.14869
 Alpha virt. eigenvalues --    0.15549   0.16281   0.17457   0.18198   0.19943

 Mulliken charges:
               1
     1  C   -0.217307
     2  C   -0.754670
     3  H   -0.007243
     4  H    0.114714
     5  H    0.070864
     6  C   -0.454876
     7  H    0.705890
     8  H    0.046108
     9  C   -0.183004
    10  H    0.016946
    11  H    0.450798
    12  H    0.119950
    13  H    0.047888
    14  H    0.043943
 Sum of Mulliken charges =   0.00000

 Dipole moment (field-independent basis, Debye):
    X=             -0.6678    Y=             -0.4626    Z=             -0.4213  Tot=              0.9151
 Quadrupole moment (field-independent basis, Debye-Ang):
   XX=            -31.7865   YY=            -29.1794   ZZ=            -28.0231
   XY=             -0.4977   XZ=              0.3709   YZ=              0.0417

 Normal termination of Gaussian 09 at Wed Aug 26 14:14:30 2020.
