 Gaussian 09, Revision D.01,
 Gaussian 09:  ES64L-G09RevD.01 24-Apr-2013

 --------------------
 #p B2PLYPD3/Def2QZVP
 --------------------

 ----------
 butane_opt
 ----------
 Symbolic Z-matrix:
 Charge =  0 Multiplicity = 1

                         Standard orientation:
 ---------------------------------------------------------------------
 Center     Atomic      Atomic             Coordinates (Angstroms)
 Number     Number       Type             X           Y           Z
 ---------------------------------------------------------------------
      1          6           0        1.985736   -0.208964   -0.128426
      2          6           0        0.528291    0.689787    0.025880
      3          1           0        2.672626    0.333723   -0.049012
      4          1           0        2.089996   -1.118915   -0.967633
      5          1           0        2.615476   -0.402079    0.658287
      6          6           0       -0.551464   -0.412227    0.334698
      7          1           0        0.290570    1.165021   -0.785556
      8          1           0        0.478543    1.239493    0.767630
      9          6           0       -1.974267    0.069446   -0.157079
     10          1           0       -0.714960   -1.087342    1.531970
     11          1           0       -0.437265   -1.081482   -0.394520
     12          1           0       -2.785036    0.805071    0.645704
     13          1           0       -2.768470   -0.991603   -0.831368
     14          1           0       -1.371259    0.309867   -1.025945
 ---------------------------------------------------------------------

 SCF Done:  E(RB2PLYPD3) =  -157.767718500     A.U. after   11 cycles
 E2(B2PLYPD3) =    -0.2560722867D+00 E(B2PLYPD3) =    -0.15802379078711D+03

 The electronic state is 1-A.
 Alpha  occ. eigenvalues --  -10.65957 -10.63343 -10.61078 -10.59978  -0.92295
 Alpha  occ. eigenvalues --   -0.86300  -0.77549  -0.65094  -0.56085  -0.50390
 Alpha  occ. eigenvalues --   -0.47247  -0.45644  -0.43413  -0.39708  -0.36864
 Alpha  occ. eigenvalues --   -0.34449  -0.33009
 Alpha virt. eigenvalues --    0.03954   0.05609   0.06715   0.08431   0.09516
 Alpha virt. eigenvalues --    0.09642   0.11819   0.13384   0.14660   0.15441
 Alpha virt. eigenvalues --    0.16131   0.16772   0.18312   0.18548   0.20623

 Mulliken charges:
               1
     1  C   -0.250617
     2  C   -0.108377
     3  H    0.131793
     4  H    0.045849
     5  H    0.053926
     6  C   -0.119033
     7  H    0.073807
     8  H    0.098592
     9  C   -0.173821
    10  H    0.015564
    11  H    0.114631
    12  H    0.063634
    13  H   -0.004732
    14  H    0.058785
 Sum of Mulliken charges =   0.00000

 Dipole moment (field-independent basis, Debye):
    X=              1.1251    Y=              0.6482    Z=              0.0341  Tot=              1.2990
 Quadrupole moment (field-independent basis, Debye-Ang):
   XX=            -29.4028   YY=            -29.7868   ZZ=            -29.3408
   XY=             -0.1924   XZ=             -0.1307   YZ=              1.6975

 Normal termination of Gaussian 09 at Wed Aug 26 15:04:44 2020.
