 Gaussian 09, Revision D.01,
 Gaussian 09:  ES64L-G09RevD.01 24-Apr-2013

 --------------------
 #p B2PLYPD3/Def2QZVP
 --------------------

 ----------
 butane_opt
 ----------
 Symbolic Z-matrix:
 Charge =  0 Multiplicity = 1

                         Standard orientation:
 ---------------------------------------------------------------------
 Center     Atomic      Atomic             Coordinates (Angstroms)
 Number     Number       Type             X           Y           Z
 ---------------------------------------------------------------------
      1          6           0       -2.010218   -0.088037    0.217564
      2          6           0       -0.631377    0.459263   -0.234785
      3          1           0       -2.853368    0.774482   -0.147280
      4          1           0       -2.084664   -0.860331    1.241512
      5          1           0       -1.954780   -0.719855   -0.670941
      6          6           0        0.607903   -0.520968   -0.033034
      7          1           0       -0.382397    1.014909    0.459741
      8          1           0       -0.680664    1.302279   -1.440741
      9          6           0        2.004068    0.102537    0.105454
     10          1           0        0.418281   -1.356630   -0.772409
     11          1           0        0.548365   -1.042586    0.842577
     12          1           0        2.078382    0.214416   -0.448852
     13          1           0        2.594788   -0.623519   -0.759295
     14          1           0        2.493801    1.580064    1.364498
 ---------------------------------------------------------------------

 SCF Done:  E(RB2PLYPD3) =  -157.110347181     A.U. after   14 cycles
 E2(B2PLYPD3) =    -0.2656993119D+00 E(B2PLYPD3) =    -0.15737604649279D+03

 The electronic state is 1-A.
 Alpha  occ. eigenvalues --  -10.64790 -10.63942 -10.62707 -10.62206  -0.96600
 Alpha  occ. eigenvalues --   -0.88123  -0.76426  -0.67411  -0.53679  -0.48177
 Alpha  occ. eigenvalues --   -0.46602  -0.45292  -0.39630  -0.37641  -0.36532
 Alpha  occ. eigenvalues --   -0.35534  -0.32847
 Alpha virt. eigenvalues --   -0.06222   0.03676   0.05452   0.05726   0.09763
 Alpha virt. eigenvalues --    0.10696   0.11621   0.12121   0.12925   0.14684
 Alpha virt. eigenvalues --    0.15648   0.16795   0.17464   0.18252   0.19573

 Mulliken charges:
               1
     1  C   -0.190199
     2  C   -0.132770
     3  H    0.054818
     4  H    0.062435
     5  H    0.054346
     6  C   -0.011876
     7  H    0.125786
     8  H   -0.001168
     9  C   -0.941683
    10  H    0.018239
    11  H    0.057174
    12  H    0.796019
    13  H    0.045943
    14  H    0.062935
 Sum of Mulliken charges =   0.00000

 Dipole moment (field-independent basis, Debye):
    X=             -0.0858    Y=              0.1304    Z=             -0.4076  Tot=              0.4365
 Quadrupole moment (field-independent basis, Debye-Ang):
   XX=            -32.8592   YY=            -29.1825   ZZ=            -28.0954
   XY=              1.2268   XZ=             -1.4164   YZ=              0.8495

 Normal termination of Gaussian 09 at Wed Aug 26 13:25:25 2020.
