 Gaussian 09, Revision D.01,
 Gaussian 09:  ES64L-G09RevD.01 24-Apr-2013

 --------------------
 #p B2PLYPD3/Def2QZVP
 --------------------

 ----------
 butane_opt
 ----------
 Symbolic Z-matrix:
 Charge =  0 Multiplicity = 1

                         Standard orientation:
 ---------------------------------------------------------------------
 Center     Atomic      Atomic             Coordinates (Angstroms)
 Number     Number       Type             X           Y           Z
 ---------------------------------------------------------------------
      1          6           0        1.899683   -0.077679    0.041478
      2          6           0        0.570995    0.460208   -0.054019
      3          1           0        2.649420    0.688908   -0.145687
      4          1           0        1.941738   -0.486003   -0.695315
      5          1           0        2.160622   -0.909984    0.968424
      6          6           0       -0.539569   -0.558076   -0.015906
      7          1           0        0.303641    1.253946   -0.986776
      8          1           0        0.438674    1.050793    0.765793
      9          6           0       -1.913509    0.118235    0.052880
     10          1           0       -0.372848   -1.096939    0.768248
     11          1           0       -0.508351   -1.164887   -0.857521
     12          1           0       -2.301288    1.016186    1.081866
     13          1           0       -2.641258   -0.491510   -0.414342
     14          1           0       -1.775957    0.483368   -0.631285
 ---------------------------------------------------------------------

 SCF Done:  E(RB2PLYPD3) =  -157.825066870     A.U. after   11 cycles
 E2(B2PLYPD3) =    -0.2481854862D+00 E(B2PLYPD3) =    -0.15807325235663D+03

 The electronic state is 1-A.
 Alpha  occ. eigenvalues --  -10.60139 -10.58547 -10.58480 -10.58132  -0.94642
 Alpha  occ. eigenvalues --   -0.87934  -0.76226  -0.68272  -0.55327  -0.50159
 Alpha  occ. eigenvalues --   -0.49929  -0.47725  -0.42474  -0.40755  -0.39760
 Alpha  occ. eigenvalues --   -0.37682  -0.36854
 Alpha virt. eigenvalues --    0.05600   0.06219   0.07625   0.08137   0.10775
 Alpha virt. eigenvalues --    0.11927   0.12541   0.13082   0.14465   0.15782
 Alpha virt. eigenvalues --    0.16428   0.17016   0.19231   0.19256   0.21750

 Mulliken charges:
               1
     1  C   -0.269894
     2  C   -0.022549
     3  H    0.046063
     4  H    0.163121
     5  H    0.035842
     6  C   -0.020314
     7  H   -0.012474
     8  H    0.052355
     9  C   -0.445293
    10  H    0.047136
    11  H    0.028165
    12  H    0.045442
    13  H    0.045979
    14  H    0.306419
 Sum of Mulliken charges =   0.00000

 Dipole moment (field-independent basis, Debye):
    X=              0.2165    Y=             -0.1664    Z=             -0.5087  Tot=              0.5774
 Quadrupole moment (field-independent basis, Debye-Ang):
   XX=            -29.9218   YY=            -28.7651   ZZ=            -27.7040
   XY=             -0.1146   XZ=              0.5950   YZ=              0.3764

 Normal termination of Gaussian 09 at Wed Aug 26 13:06:36 2020.
