 Gaussian 09, Revision D.01,
 Gaussian 09:  ES64L-G09RevD.01 24-Apr-2013

 --------------------
 #p B2PLYPD3/Def2QZVP
 --------------------

 ----------
 butane_opt
 ----------
 Symbolic Z-matrix:
 Charge =  0 Multiplicity = 1

                         Standard orientation:
 ---------------------------------------------------------------------
 Center     Atomic      Atomic             Coordinates (Angstroms)
 Number     Number       Type             X           Y           Z
 ---------------------------------------------------------------------
      1          6           0        1.992677    0.158607    0.072807
      2          6           0        0.557497   -0.679848   -0.111466
      3          1           0        2.618964   -0.364163   -0.428888
      4          1           0        2.380113    1.104438    1.280655
      5          1           0        1.960239    0.625429   -0.704071
      6          6           0       -0.578085    0.491983    0.019806
      7          1           0        0.589913   -1.030655    0.611934
      8          1           0        0.498909   -1.222214   -1.047262
      9          6           0       -1.987644   -0.099573    0.124458
     10          1           0       -0.743101    1.448942   -0.949190
     11          1           0       -0.465853    0.774514    0.750314
     12          1           0       -1.686858   -0.372720   -0.605748
     13          1           0       -2.779229    0.825156   -0.680838
     14          1           0       -2.279763   -1.015735    1.139459
 ---------------------------------------------------------------------

 SCF Done:  E(RB2PLYPD3) =  -157.488017738     A.U. after   11 cycles
 E2(B2PLYPD3) =    -0.2576391609D+00 E(B2PLYPD3) =    -0.15774565689850D+03

 The electronic state is 1-A.
 Alpha  occ. eigenvalues --  -10.61949 -10.61277 -10.61044 -10.60319  -0.94397
 Alpha  occ. eigenvalues --   -0.87326  -0.77360  -0.71417  -0.56508  -0.49569
 Alpha  occ. eigenvalues --   -0.47295  -0.44658  -0.40910  -0.39654  -0.39290
 Alpha  occ. eigenvalues --   -0.35561  -0.33107
 Alpha virt. eigenvalues --    0.02575   0.03037   0.05973   0.07227   0.10073
 Alpha virt. eigenvalues --    0.10601   0.11389   0.12843   0.13515   0.15015
 Alpha virt. eigenvalues --    0.15910   0.16398   0.17334   0.18925   0.20124

 Mulliken charges:
               1
     1  C   -0.270883
     2  C   -0.286719
     3  H    0.069176
     4  H    0.059046
     5  H    0.120482
     6  C   -0.302905
     7  H    0.272576
     8  H    0.068069
     9  C   -0.382340
    10  H    0.033484
    11  H    0.290587
    12  H    0.265065
    13  H    0.002436
    14  H    0.061924
 Sum of Mulliken charges =   0.00000

 Dipole moment (field-independent basis, Debye):
    X=              0.8615    Y=             -0.3756    Z=             -0.4596  Tot=              1.0462
 Quadrupole moment (field-independent basis, Debye-Ang):
   XX=            -33.5224   YY=            -29.2023   ZZ=            -26.8196
   XY=              0.5027   XZ=             -0.7356   YZ=             -0.3282

 Normal termination of Gaussian 09 at Wed Aug 26 16:07:12 2020.
