 Gaussian 09, Revision D.01,
 Gaussian 09:  ES64L-G09RevD.01 24-Apr-2013

 --------------------
 #p B2PLYPD3/Def2QZVP
 --------------------

 ----------
 butane_opt
 ----------
 Symbolic Z-matrix:
 Charge =  0 Multiplicity = 1

                         Standard orientation:
 ---------------------------------------------------------------------
 Center     Atomic      Atomic             Coordinates (Angstroms)
 Number     Number       Type             X           Y           Z
 ---------------------------------------------------------------------
      1          6           0        1.996974   -0.137791    0.168676
      2          6           0        0.488811    0.557892   -0.200987
      3          1           0        2.689423    0.406665    0.342280
      4          1           0        2.413783   -0.864868   -0.756784
      5          1           0        1.844879   -0.643345    1.105008
      6          6           0       -0.630550   -0.469072   -0.129047
      7          1           0        0.313086    1.384237   -1.307437
      8          1           0        0.372561    0.862659    0.359602
      9          6           0       -1.830354    0.033721    0.128363
     10          1           0       -0.541879   -0.818800    0.676482
     11          1           0       -0.506774   -1.067916   -1.062529
     12          1           0       -1.895072    1.165280    1.326924
     13          1           0       -2.770978   -0.814543    0.040933
     14          1           0       -2.068315    0.482127   -0.526510
 ---------------------------------------------------------------------

 SCF Done:  E(RB2PLYPD3) =  -157.437402717     A.U. after   12 cycles
 E2(B2PLYPD3) =    -0.2518684829D+00 E(B2PLYPD3) =    -0.15768927119951D+03

 The electronic state is 1-A.
 Alpha  occ. eigenvalues --  -10.62008 -10.60743 -10.60669 -10.57407  -0.98280
 Alpha  occ. eigenvalues --   -0.86834  -0.77686  -0.71631  -0.59231  -0.50778
 Alpha  occ. eigenvalues --   -0.48671  -0.47134  -0.44271  -0.41415  -0.38679
 Alpha  occ. eigenvalues --   -0.35941  -0.34567
 Alpha virt. eigenvalues --    0.02588   0.05485   0.06569   0.07820   0.10603
 Alpha virt. eigenvalues --    0.10927   0.12300   0.13339   0.13547   0.15116
 Alpha virt. eigenvalues --    0.15646   0.16518   0.18225   0.19413   0.21356

 Mulliken charges:
               1
     1  C   -0.156993
     2  C   -0.730853
     3  H    0.096392
     4  H    0.026029
     5  H    0.046576
     6  C   -0.081294
     7  H    0.023762
     8  H    0.631190
     9  C   -0.264520
    10  H    0.155734
    11  H    0.054292
    12  H   -0.023306
    13  H    0.041357
    14  H    0.181634
 Sum of Mulliken charges =   0.00000

 Dipole moment (field-independent basis, Debye):
    X=              0.2348    Y=             -0.2884    Z=             -0.2370  Tot=              0.4410
 Quadrupole moment (field-independent basis, Debye-Ang):
   XX=            -29.4264   YY=            -29.8173   ZZ=            -28.1378
   XY=              0.9252   XZ=              2.2518   YZ=              0.3537

 Normal termination of Gaussian 09 at Wed Aug 26 14:00:13 2020.
