 Gaussian 09, Revision D.01,
 Gaussian 09:  ES64L-G09RevD.01 24-Apr-2013

 --------------------
 #p B2PLYPD3/Def2QZVP
 --------------------

 ----------
 butane_opt
 ----------
 Symbolic Z-matrix:
 Charge =  0 Multiplicity = 1

                         Standard orientation:
 ---------------------------------------------------------------------
 Center     Atomic      Atomic             Coordinates (Angstroms)
 Number     Number       Type             X           Y           Z
 ---------------------------------------------------------------------
      1          6           0       -2.023212    0.139071   -0.102283
      2          6           0       -0.517407   -0.554561    0.162383
      3          1           0       -2.883471   -0.551487   -0.394575
      4          1           0       -2.055787    1.254947   -1.140994
      5          1           0       -2.455346    0.466167    0.729804
      6          6           0        0.607835    0.430855    0.297309
      7          1           0       -0.560832   -1.062401   -0.763323
      8          1           0       -0.318251   -1.144070    0.855186
      9          6           0        2.010568   -0.066538   -0.207361
     10          1           0        0.677056    1.122489    1.349226
     11          1           0        0.479548    0.829840   -0.454445
     12          1           0        2.333648   -0.864505    0.573112
     13          1           0        2.728996    0.723154   -0.503109
     14          1           0        1.587742   -0.467098   -1.151170
 ---------------------------------------------------------------------

 SCF Done:  E(RB2PLYPD3) =  -157.899036114     A.U. after   11 cycles
 E2(B2PLYPD3) =    -0.2512732968D+00 E(B2PLYPD3) =    -0.15815030941070D+03

 The electronic state is 1-A.
 Alpha  occ. eigenvalues --  -10.64389 -10.61538 -10.60114 -10.59136  -0.92895
 Alpha  occ. eigenvalues --   -0.82163  -0.74076  -0.67886  -0.56758  -0.49201
 Alpha  occ. eigenvalues --   -0.48572  -0.46571  -0.41688  -0.40264  -0.38171
 Alpha  occ. eigenvalues --   -0.37565  -0.34541
 Alpha virt. eigenvalues --    0.04193   0.05994   0.08133   0.08487   0.10651
 Alpha virt. eigenvalues --    0.10871   0.12283   0.13124   0.13207   0.15318
 Alpha virt. eigenvalues --    0.16130   0.16648   0.18292   0.19208   0.21473

 Mulliken charges:
               1
     1  C   -0.157028
     2  C   -0.074942
     3  H    0.041828
     4  H    0.008657
     5  H    0.070997
     6  C   -0.250351
     7  H    0.040415
     8  H    0.077127
     9  C   -0.148648
    10  H    0.027393
    11  H    0.218534
    12  H    0.039281
    13  H    0.059823
    14  H    0.046913
 Sum of Mulliken charges =   0.00000

 Dipole moment (field-independent basis, Debye):
    X=             -0.1316    Y=             -0.2398    Z=              0.0908  Tot=              0.2882
 Quadrupole moment (field-independent basis, Debye-Ang):
   XX=            -29.3885   YY=            -29.8443   ZZ=            -28.3403
   XY=              1.4701   XZ=             -0.3805   YZ=             -0.6009

 Normal termination of Gaussian 09 at Wed Aug 26 21:21:46 2020.
