 Gaussian 09, Revision D.01,
 Gaussian 09:  ES64L-G09RevD.01 24-Apr-2013

 --------------------
 #p B2PLYPD3/Def2QZVP
 --------------------

 ----------
 butane_opt
 ----------
 Symbolic Z-matrix:
 Charge =  0 Multiplicity = 1

                         Standard orientation:
 ---------------------------------------------------------------------
 Center     Atomic      Atomic             Coordinates (Angstroms)
 Number     Number       Type             X           Y           Z
 ---------------------------------------------------------------------
      1          6           0       -2.029080    0.132939   -0.013259
      2          6           0       -0.580912   -0.606685   -0.000469
      3          1           0       -2.753308   -0.599633    0.115044
      4          1           0       -2.272243    1.162974   -1.043363
      5          1           0       -2.033592    0.597493    0.737033
      6          6           0        0.621673    0.461514    0.118005
      7          1           0       -0.117238   -1.210273   -0.890697
      8          1           0       -0.436157   -1.102281    0.787705
      9          6           0        1.937283   -0.112688   -0.070990
     10          1           0        0.673778    1.391203    1.194489
     11          1           0        0.477101    1.147401   -0.602683
     12          1           0        2.368100   -1.010436    0.863489
     13          1           0        2.751929    0.878105   -0.374922
     14          1           0        1.647844   -0.505031   -0.985817
 ---------------------------------------------------------------------

 SCF Done:  E(RB2PLYPD3) =  -157.869686423     A.U. after   11 cycles
 E2(B2PLYPD3) =    -0.2532078326D+00 E(B2PLYPD3) =    -0.15812289425527D+03

 The electronic state is 1-A.
 Alpha  occ. eigenvalues --  -10.64137 -10.62694 -10.62196 -10.62170  -0.92230
 Alpha  occ. eigenvalues --   -0.84829  -0.74155  -0.65540  -0.53642  -0.50840
 Alpha  occ. eigenvalues --   -0.47984  -0.46674  -0.42513  -0.40677  -0.39018
 Alpha  occ. eigenvalues --   -0.35849  -0.34090
 Alpha virt. eigenvalues --    0.04380   0.04930   0.06849   0.08201   0.09910
 Alpha virt. eigenvalues --    0.10332   0.12007   0.13133   0.13874   0.14614
 Alpha virt. eigenvalues --    0.15310   0.15592   0.18259   0.19118   0.20144

 Mulliken charges:
               1
     1  C   -0.229021
     2  C   -0.106588
     3  H    0.062551
     4  H    0.015582
     5  H    0.151252
     6  C   -0.043197
     7  H    0.035275
     8  H    0.104781
     9  C   -0.173104
    10  H   -0.042216
    11  H    0.076658
    12  H    0.041231
    13  H    0.037035
    14  H    0.069760
 Sum of Mulliken charges =   0.00000

 Dipole moment (field-independent basis, Debye):
    X=             -0.3277    Y=             -0.3666    Z=             -0.0818  Tot=              0.4985
 Quadrupole moment (field-independent basis, Debye-Ang):
   XX=            -30.8697   YY=            -29.3863   ZZ=            -29.4545
   XY=              0.4181   XZ=             -1.3561   YZ=             -1.4183

 Normal termination of Gaussian 09 at Wed Aug 26 20:54:52 2020.
