 Gaussian 09, Revision D.01,
 Gaussian 09:  ES64L-G09RevD.01 24-Apr-2013

 --------------------
 #p B2PLYPD3/Def2QZVP
 --------------------

 ----------
 butane_opt
 ----------
 Symbolic Z-matrix:
 Charge =  0 Multiplicity = 1

                         Standard orientation:
 ---------------------------------------------------------------------
 Center     Atomic      Atomic             Coordinates (Angstroms)
 Number     Number       Type             X           Y           Z
 ---------------------------------------------------------------------
      1          6           0       -1.987274    0.158827    0.119273
      2          6           0       -0.525332   -0.627035   -0.189251
      3          1           0       -2.769815   -0.447841    0.596647
      4          1           0       -2.786914    0.703794   -0.701898
      5          1           0       -1.652574    0.944002    1.050884
      6          6           0        0.543187    0.447132   -0.176661
      7          1           0       -0.536969   -1.305657   -1.007367
      8          1           0       -0.268483   -1.069740    0.632075
      9          6           0        1.930404   -0.101932    0.112364
     10          1           0        0.460744    1.275227    0.630366
     11          1           0        0.730757    1.199271   -1.186907
     12          1           0        2.106470   -0.796758    1.112156
     13          1           0        2.844938    0.881472    0.095528
     14          1           0        2.105936   -0.645727   -0.415833
 ---------------------------------------------------------------------

 SCF Done:  E(RB2PLYPD3) =  -157.876359306     A.U. after   11 cycles
 E2(B2PLYPD3) =    -0.2515608854D+00 E(B2PLYPD3) =    -0.15812792019113D+03

 The electronic state is 1-A.
 Alpha  occ. eigenvalues --  -10.64450 -10.63309 -10.61775 -10.60221  -0.91862
 Alpha  occ. eigenvalues --   -0.82903  -0.72941  -0.67920  -0.53972  -0.50384
 Alpha  occ. eigenvalues --   -0.47795  -0.45211  -0.40420  -0.39843  -0.39314
 Alpha  occ. eigenvalues --   -0.37815  -0.35462
 Alpha virt. eigenvalues --    0.05055   0.05811   0.07485   0.08369   0.10205
 Alpha virt. eigenvalues --    0.11109   0.12171   0.13349   0.14305   0.15416
 Alpha virt. eigenvalues --    0.15618   0.16414   0.18060   0.19139   0.21083

 Mulliken charges:
               1
     1  C   -0.183966
     2  C   -0.094152
     3  H    0.044353
     4  H    0.051813
     5  H    0.033539
     6  C    0.015131
     7  H    0.052536
     8  H    0.106177
     9  C   -0.387845
    10  H    0.030970
    11  H    0.006275
    12  H    0.018747
    13  H    0.033459
    14  H    0.272965
 Sum of Mulliken charges =   0.00000

 Dipole moment (field-independent basis, Debye):
    X=             -0.0632    Y=             -0.6096    Z=             -0.0270  Tot=              0.6134
 Quadrupole moment (field-independent basis, Debye-Ang):
   XX=            -29.9802   YY=            -28.9022   ZZ=            -29.3797
   XY=              0.1993   XZ=             -0.1488   YZ=              0.3981

 Normal termination of Gaussian 09 at Wed Aug 26 23:28:14 2020.
