 Gaussian 09, Revision D.01,
 Gaussian 09:  ES64L-G09RevD.01 24-Apr-2013

 --------------------
 #p B2PLYPD3/Def2QZVP
 --------------------

 ----------
 butane_opt
 ----------
 Symbolic Z-matrix:
 Charge =  0 Multiplicity = 1

                         Standard orientation:
 ---------------------------------------------------------------------
 Center     Atomic      Atomic             Coordinates (Angstroms)
 Number     Number       Type             X           Y           Z
 ---------------------------------------------------------------------
      1          6           0       -1.901509    0.077387   -0.136043
      2          6           0       -0.604711   -0.377198    0.325304
      3          1           0       -2.844789   -0.939696   -0.801832
      4          1           0       -1.410346    0.445336   -1.042801
      5          1           0       -2.354544    0.784296    0.525687
      6          6           0        0.515390    0.489598    0.076968
      7          1           0       -0.195954   -1.005626   -0.376420
      8          1           0       -0.554079   -0.883632    1.488366
      9          6           0        1.900008   -0.177617   -0.135573
     10          1           0        0.458284    1.582009    0.847565
     11          1           0        0.300195    0.958474   -0.967339
     12          1           0        2.389408   -0.478966    0.869475
     13          1           0        2.743064    0.479154   -0.454537
     14          1           0        2.013696   -1.014365   -0.872095
 ---------------------------------------------------------------------

 SCF Done:  E(RB2PLYPD3) =  -157.954610455     A.U. after   11 cycles
 E2(B2PLYPD3) =    -0.2544295507D+00 E(B2PLYPD3) =    -0.15820904000542D+03

 The electronic state is 1-A.
 Alpha  occ. eigenvalues --  -10.64828 -10.63702 -10.62488 -10.61455  -0.95232
 Alpha  occ. eigenvalues --   -0.83417  -0.73283  -0.64196  -0.56244  -0.50505
 Alpha  occ. eigenvalues --   -0.48118  -0.47237  -0.42484  -0.40610  -0.38284
 Alpha  occ. eigenvalues --   -0.36058  -0.33680
 Alpha virt. eigenvalues --    0.03862   0.05837   0.06926   0.07481   0.09415
 Alpha virt. eigenvalues --    0.10985   0.12137   0.12674   0.14731   0.15046
 Alpha virt. eigenvalues --    0.15446   0.16543   0.17817   0.19493   0.20659

 Mulliken charges:
               1
     1  C   -0.164541
     2  C   -0.052904
     3  H    0.009937
     4  H    0.054166
     5  H    0.082992
     6  C   -0.027806
     7  H    0.076362
     8  H    0.009773
     9  C   -0.110287
    10  H   -0.009452
    11  H    0.018783
    12  H    0.032056
    13  H    0.038479
    14  H    0.042441
 Sum of Mulliken charges =   0.00000

 Dipole moment (field-independent basis, Debye):
    X=              0.6703    Y=              0.1154    Z=             -0.3583  Tot=              0.7687
 Quadrupole moment (field-independent basis, Debye-Ang):
   XX=            -30.4532   YY=            -30.8567   ZZ=            -29.0734
   XY=             -1.0824   XZ=             -1.0388   YZ=              0.8920

 Normal termination of Gaussian 09 at Wed Aug 26 21:33:42 2020.
