 Gaussian 09, Revision D.01,
 Gaussian 09:  ES64L-G09RevD.01 24-Apr-2013

 --------------------
 #p B2PLYPD3/Def2QZVP
 --------------------

 ----------
 butane_opt
 ----------
 Symbolic Z-matrix:
 Charge =  0 Multiplicity = 1

                         Standard orientation:
 ---------------------------------------------------------------------
 Center     Atomic      Atomic             Coordinates (Angstroms)
 Number     Number       Type             X           Y           Z
 ---------------------------------------------------------------------
      1          6           0       -1.915703   -0.173464   -0.148965
      2          6           0       -0.558401    0.505936    0.090526
      3          1           0       -2.668193    0.499417   -0.255280
      4          1           0       -2.187501   -0.453399    0.645442
      5          1           0       -1.978283   -0.945133   -0.992569
      6          6           0        0.628427   -0.466163    0.235561
      7          1           0       -0.619010    1.573762    1.126106
      8          1           0       -0.271851    0.929758   -0.695308
      9          6           0        1.927345    0.129013   -0.208902
     10          1           0        0.139475   -0.958328   -0.416871
     11          1           0        0.657789   -1.343681    1.551752
     12          1           0        1.705881    0.572220   -1.069140
     13          1           0        2.744663   -0.790040   -0.441033
     14          1           0        1.987029    0.943491    0.737584
 ---------------------------------------------------------------------

 SCF Done:  E(RB2PLYPD3) =  -157.850198381     A.U. after   11 cycles
 E2(B2PLYPD3) =    -0.2530609178D+00 E(B2PLYPD3) =    -0.15810325929920D+03

 The electronic state is 1-A.
 Alpha  occ. eigenvalues --  -10.63529 -10.63373 -10.63049 -10.58229  -0.94513
 Alpha  occ. eigenvalues --   -0.85692  -0.75743  -0.66514  -0.54426  -0.51388
 Alpha  occ. eigenvalues --   -0.49045  -0.48223  -0.43618  -0.40366  -0.39933
 Alpha  occ. eigenvalues --   -0.35306  -0.33736
 Alpha virt. eigenvalues --    0.03628   0.06385   0.06641   0.06791   0.10573
 Alpha virt. eigenvalues --    0.11518   0.11755   0.13028   0.14010   0.15177
 Alpha virt. eigenvalues --    0.15465   0.16153   0.18175   0.18895   0.20173

 Mulliken charges:
               1
     1  C   -0.165410
     2  C   -0.108697
     3  H    0.037774
     4  H    0.103573
     5  H    0.040331
     6  C   -0.096920
     7  H   -0.037708
     8  H    0.122868
     9  C   -0.178124
    10  H    0.112622
    11  H   -0.027842
    12  H    0.072673
    13  H    0.055696
    14  H    0.069163
 Sum of Mulliken charges =   0.00000

 Dipole moment (field-independent basis, Debye):
    X=             -0.4934    Y=             -0.0778    Z=             -1.1071  Tot=              1.2145
 Quadrupole moment (field-independent basis, Debye-Ang):
   XX=            -29.2801   YY=            -30.7188   ZZ=            -29.0622
   XY=             -0.0266   XZ=             -0.7120   YZ=              0.5752

 Normal termination of Gaussian 09 at Wed Aug 26 14:04:18 2020.
