 Gaussian 09, Revision D.01,
 Gaussian 09:  ES64L-G09RevD.01 24-Apr-2013

 --------------------
 #p B2PLYPD3/Def2QZVP
 --------------------

 ----------
 butane_opt
 ----------
 Symbolic Z-matrix:
 Charge =  0 Multiplicity = 1

                         Standard orientation:
 ---------------------------------------------------------------------
 Center     Atomic      Atomic             Coordinates (Angstroms)
 Number     Number       Type             X           Y           Z
 ---------------------------------------------------------------------
      1          6           0        1.955815    0.088068   -0.195856
      2          6           0        0.527785   -0.428727    0.335424
      3          1           0        2.722743   -0.750944   -0.401245
      4          1           0        2.462292    0.647350    0.543923
      5          1           0        1.759095    0.842324   -1.135491
      6          6           0       -0.567512    0.487330    0.159736
      7          1           0        0.365786   -0.913077    1.177490
      8          1           0        0.043905   -1.160456   -0.499296
      9          6           0       -1.899272   -0.112809   -0.193845
     10          1           0       -0.455516    0.811588   -0.569248
     11          1           0       -0.551923    1.295719    1.070341
     12          1           0       -1.523662   -0.990704   -1.152495
     13          1           0       -2.701483    0.707932   -0.477514
     14          1           0       -2.222132   -0.692905    0.810771
 ---------------------------------------------------------------------

 SCF Done:  E(RB2PLYPD3) =  -157.913211915     A.U. after   11 cycles
 E2(B2PLYPD3) =    -0.2518395281D+00 E(B2PLYPD3) =    -0.15816505144282D+03

 The electronic state is 1-A.
 Alpha  occ. eigenvalues --  -10.64698 -10.62807 -10.60359 -10.57514  -0.94690
 Alpha  occ. eigenvalues --   -0.81772  -0.72739  -0.67860  -0.55418  -0.49544
 Alpha  occ. eigenvalues --   -0.48832  -0.45619  -0.42354  -0.40493  -0.38554
 Alpha  occ. eigenvalues --   -0.38074  -0.34589
 Alpha virt. eigenvalues --    0.05130   0.06256   0.07396   0.08697   0.10720
 Alpha virt. eigenvalues --    0.11770   0.11815   0.13016   0.14587   0.15104
 Alpha virt. eigenvalues --    0.15396   0.16029   0.18144   0.20250   0.20990

 Mulliken charges:
               1
     1  C   -0.145742
     2  C   -0.036602
     3  H    0.051766
     4  H    0.050542
     5  H    0.040135
     6  C   -0.277905
     7  H    0.069111
     8  H   -0.006219
     9  C   -0.165630
    10  H    0.278862
    11  H    0.015427
    12  H    0.027201
    13  H    0.064354
    14  H    0.034699
 Sum of Mulliken charges =   0.00000

 Dipole moment (field-independent basis, Debye):
    X=              0.2323    Y=              0.3306    Z=              0.1307  Tot=              0.4247
 Quadrupole moment (field-independent basis, Debye-Ang):
   XX=            -29.7141   YY=            -30.0052   ZZ=            -28.5916
   XY=             -0.8206   XZ=              0.2526   YZ=             -0.5487

 Normal termination of Gaussian 09 at Wed Aug 26 12:38:04 2020.
