 Gaussian 09, Revision D.01,
 Gaussian 09:  ES64L-G09RevD.01 24-Apr-2013

 --------------------
 #p B2PLYPD3/Def2QZVP
 --------------------

 ----------
 butane_opt
 ----------
 Symbolic Z-matrix:
 Charge =  0 Multiplicity = 1

                         Standard orientation:
 ---------------------------------------------------------------------
 Center     Atomic      Atomic             Coordinates (Angstroms)
 Number     Number       Type             X           Y           Z
 ---------------------------------------------------------------------
      1          6           0        1.960043   -0.086941   -0.101452
      2          6           0        0.662495    0.500323    0.057125
      3          1           0        2.558534    0.643638    0.103651
      4          1           0        2.163369   -0.963752   -1.125086
      5          1           0        2.081696   -0.440143    0.436448
      6          6           0       -0.553461   -0.578397    0.220610
      7          1           0        0.379509    1.005712   -0.776897
      8          1           0        0.544709    1.435019    1.042380
      9          6           0       -2.028186    0.083717   -0.177886
     10          1           0       -0.294934   -1.461590    1.452553
     11          1           0       -0.636950   -0.969100   -0.512563
     12          1           0       -2.672872    1.112357    0.897232
     13          1           0       -2.655956   -0.490513   -0.465021
     14          1           0       -1.712456    0.616155   -1.043082
 ---------------------------------------------------------------------

 SCF Done:  E(RB2PLYPD3) =  -157.451527323     A.U. after   11 cycles
 E2(B2PLYPD3) =    -0.2541104141D+00 E(B2PLYPD3) =    -0.15770563773676D+03

 The electronic state is 1-A.
 Alpha  occ. eigenvalues --  -10.63891 -10.63848 -10.63256 -10.57194  -0.94854
 Alpha  occ. eigenvalues --   -0.88534  -0.76546  -0.69740  -0.54372  -0.52184
 Alpha  occ. eigenvalues --   -0.50398  -0.46195  -0.45160  -0.39587  -0.37229
 Alpha  occ. eigenvalues --   -0.35689  -0.34569
 Alpha virt. eigenvalues --    0.03418   0.04964   0.05937   0.06757   0.09178
 Alpha virt. eigenvalues --    0.10840   0.11422   0.13187   0.14217   0.15162
 Alpha virt. eigenvalues --    0.15514   0.15788   0.17835   0.19286   0.19977

 Mulliken charges:
               1
     1  C   -0.599853
     2  C    0.021248
     3  H    0.059932
     4  H    0.040913
     5  H    0.464339
     6  C   -0.319879
     7  H    0.056175
     8  H    0.005156
     9  C   -0.198450
    10  H    0.008960
    11  H    0.289284
    12  H   -0.010998
    13  H    0.113010
    14  H    0.070163
 Sum of Mulliken charges =   0.00000

 Dipole moment (field-independent basis, Debye):
    X=              0.5439    Y=             -0.2939    Z=             -0.8616  Tot=              1.0605
 Quadrupole moment (field-independent basis, Debye-Ang):
   XX=            -30.2104   YY=            -29.7879   ZZ=            -28.5860
   XY=              1.1473   XZ=              2.6079   YZ=              0.6193

 Normal termination of Gaussian 09 at Wed Aug 26 17:49:45 2020.
