 Gaussian 09, Revision D.01,
 Gaussian 09:  ES64L-G09RevD.01 24-Apr-2013

 --------------------
 #p B2PLYPD3/Def2QZVP
 --------------------

 ----------
 butane_opt
 ----------
 Symbolic Z-matrix:
 Charge =  0 Multiplicity = 1

                         Standard orientation:
 ---------------------------------------------------------------------
 Center     Atomic      Atomic             Coordinates (Angstroms)
 Number     Number       Type             X           Y           Z
 ---------------------------------------------------------------------
      1          6           0       -1.927032    0.060650    0.127648
      2          6           0       -0.595204   -0.521382   -0.184933
      3          1           0       -2.710401   -0.634922    0.874774
      4          1           0       -2.784947    1.046780   -0.933168
      5          1           0       -1.658702    0.335168    0.815741
      6          6           0        0.530398    0.575928   -0.098916
      7          1           0       -0.644182   -1.264032   -1.224457
      8          1           0       -0.462146   -0.971256    0.363327
      9          6           0        2.060104   -0.064279    0.027729
     10          1           0        0.269888    1.354826    0.975390
     11          1           0        0.347188    1.024882   -0.731991
     12          1           0        2.149212   -1.165614    1.190601
     13          1           0        2.678088    0.541826    0.257729
     14          1           0        2.406402   -0.573164   -0.817117
 ---------------------------------------------------------------------

 SCF Done:  E(RB2PLYPD3) =  -157.432162832     A.U. after   12 cycles
 E2(B2PLYPD3) =    -0.2544146129D+00 E(B2PLYPD3) =    -0.15768657744523D+03

 The electronic state is 1-A.
 Alpha  occ. eigenvalues --  -10.63871 -10.62973 -10.62614 -10.59924  -0.96091
 Alpha  occ. eigenvalues --   -0.85679  -0.77402  -0.73828  -0.54780  -0.51852
 Alpha  occ. eigenvalues --   -0.48917  -0.47359  -0.42382  -0.39301  -0.37377
 Alpha  occ. eigenvalues --   -0.36471  -0.34994
 Alpha virt. eigenvalues --    0.01927   0.03110   0.06357   0.07748   0.08731
 Alpha virt. eigenvalues --    0.10165   0.11587   0.13026   0.13688   0.14627
 Alpha virt. eigenvalues --    0.16106   0.17113   0.18075   0.18924   0.20149

 Mulliken charges:
               1
     1  C   -0.451324
     2  C   -0.487475
     3  H    0.033476
     4  H    0.023905
     5  H    0.364828
     6  C   -0.255974
     7  H    0.031480
     8  H    0.467326
     9  C   -0.183358
    10  H    0.006738
    11  H    0.279989
    12  H   -0.023822
    13  H    0.122030
    14  H    0.072181
 Sum of Mulliken charges =   0.00000

 Dipole moment (field-independent basis, Debye):
    X=              0.6740    Y=              0.3077    Z=             -0.0116  Tot=              0.7410
 Quadrupole moment (field-independent basis, Debye-Ang):
   XX=            -30.5975   YY=            -29.9514   ZZ=            -28.4739
   XY=              0.8536   XZ=             -1.9513   YZ=             -0.4284

 Normal termination of Gaussian 09 at Wed Aug 26 12:54:28 2020.
