 Gaussian 09, Revision D.01,
 Gaussian 09:  ES64L-G09RevD.01 24-Apr-2013

 --------------------
 #p B2PLYPD3/Def2QZVP
 --------------------

 ----------
 butane_opt
 ----------
 Symbolic Z-matrix:
 Charge =  0 Multiplicity = 1

                         Standard orientation:
 ---------------------------------------------------------------------
 Center     Atomic      Atomic             Coordinates (Angstroms)
 Number     Number       Type             X           Y           Z
 ---------------------------------------------------------------------
      1          6           0       -1.988959   -0.247475    0.095310
      2          6           0       -0.605294    0.623741   -0.100155
      3          1           0       -2.727486    0.364493    0.856444
      4          1           0       -1.765067   -0.582493    0.750033
      5          1           0       -2.796362   -0.831535   -0.877279
      6          6           0        0.638035   -0.433830   -0.203951
      7          1           0       -0.246610    1.053622    0.779456
      8          1           0       -0.681913    1.610379   -1.098358
      9          6           0        2.004909    0.073732    0.053780
     10          1           0        0.467756   -0.884710   -1.112107
     11          1           0        0.536235   -1.396882    0.698048
     12          1           0        2.242884    0.679437   -0.566502
     13          1           0        2.938085   -0.906899    0.302808
     14          1           0        1.740332    0.797583    1.197554
 ---------------------------------------------------------------------

 SCF Done:  E(RB2PLYPD3) =  -157.732076106     A.U. after   11 cycles
 E2(B2PLYPD3) =    -0.2559093070D+00 E(B2PLYPD3) =    -0.15798798541312D+03

 The electronic state is 1-A.
 Alpha  occ. eigenvalues --  -10.65550 -10.63801 -10.63046 -10.62035  -0.90923
 Alpha  occ. eigenvalues --   -0.85499  -0.74012  -0.66200  -0.54531  -0.49536
 Alpha  occ. eigenvalues --   -0.46371  -0.44747  -0.41525  -0.39577  -0.38338
 Alpha  occ. eigenvalues --   -0.35961  -0.34438
 Alpha virt. eigenvalues --    0.04020   0.04890   0.06329   0.07773   0.09350
 Alpha virt. eigenvalues --    0.09823   0.10877   0.12711   0.14176   0.14459
 Alpha virt. eigenvalues --    0.16108   0.16457   0.17789   0.18462   0.19787

 Mulliken charges:
               1
     1  C   -0.484309
     2  C   -0.077094
     3  H    0.019669
     4  H    0.357405
     5  H    0.085770
     6  C   -0.024015
     7  H    0.082689
     8  H    0.011066
     9  C   -0.210829
    10  H    0.061006
    11  H   -0.001994
    12  H    0.126657
    13  H    0.055602
    14  H   -0.001622
 Sum of Mulliken charges =   0.00000

 Dipole moment (field-independent basis, Debye):
    X=              0.0074    Y=             -0.2519    Z=             -0.0913  Tot=              0.2681
 Quadrupole moment (field-independent basis, Debye-Ang):
   XX=            -30.0837   YY=            -30.4355   ZZ=            -28.7300
   XY=              0.4293   XZ=             -0.6643   YZ=             -0.0970

 Normal termination of Gaussian 09 at Wed Aug 26 10:19:23 2020.
