 Gaussian 09, Revision D.01,
 Gaussian 09:  ES64L-G09RevD.01 24-Apr-2013

 --------------------
 #p B2PLYPD3/Def2QZVP
 --------------------

 ----------
 butane_opt
 ----------
 Symbolic Z-matrix:
 Charge =  0 Multiplicity = 1

                         Standard orientation:
 ---------------------------------------------------------------------
 Center     Atomic      Atomic             Coordinates (Angstroms)
 Number     Number       Type             X           Y           Z
 ---------------------------------------------------------------------
      1          6           0        1.969287   -0.188942   -0.069996
      2          6           0        0.524424    0.615201   -0.082036
      3          1           0        2.698585    0.276587    0.040913
      4          1           0        2.259850   -1.131248   -0.960919
      5          1           0        2.197609   -0.449554    0.733359
      6          6           0       -0.561885   -0.428067    0.195474
      7          1           0        0.199748    1.017037   -0.884349
      8          1           0        0.541015    1.724164    0.913772
      9          6           0       -1.978760    0.030416   -0.052495
     10          1           0       -0.441053   -1.138917    1.409923
     11          1           0       -0.653188   -0.979238   -0.348611
     12          1           0       -2.140003    0.813449    0.722993
     13          1           0       -2.801424   -0.814731   -0.580913
     14          1           0       -1.579535    0.510801   -0.991855
 ---------------------------------------------------------------------

 SCF Done:  E(RB2PLYPD3) =  -157.688519350     A.U. after   11 cycles
 E2(B2PLYPD3) =    -0.2532648790D+00 E(B2PLYPD3) =    -0.15794178422928D+03

 The electronic state is 1-A.
 Alpha  occ. eigenvalues --  -10.65302 -10.62906 -10.60219 -10.58828  -0.94421
 Alpha  occ. eigenvalues --   -0.87803  -0.76482  -0.68951  -0.54852  -0.50051
 Alpha  occ. eigenvalues --   -0.47494  -0.46492  -0.42651  -0.41087  -0.39387
 Alpha  occ. eigenvalues --   -0.35706  -0.34382
 Alpha virt. eigenvalues --    0.04176   0.05966   0.06383   0.07727   0.10209
 Alpha virt. eigenvalues --    0.10975   0.12099   0.13693   0.14294   0.14602
 Alpha virt. eigenvalues --    0.15943   0.16845   0.18654   0.18964   0.19499

 Mulliken charges:
               1
     1  C   -0.238239
     2  C   -0.059181
     3  H    0.105762
     4  H    0.026538
     5  H    0.111346
     6  C   -0.334841
     7  H    0.104856
     8  H   -0.015607
     9  C   -0.177002
    10  H   -0.019693
    11  H    0.334883
    12  H    0.070045
    13  H    0.057509
    14  H    0.033626
 Sum of Mulliken charges =   0.00000

 Dipole moment (field-independent basis, Debye):
    X=              0.3476    Y=             -0.0051    Z=             -0.5489  Tot=              0.6498
 Quadrupole moment (field-independent basis, Debye-Ang):
   XX=            -28.5943   YY=            -30.0243   ZZ=            -28.9339
   XY=              0.4789   XZ=              1.6976   YZ=              1.3851

 Normal termination of Gaussian 09 at Wed Aug 26 11:18:48 2020.
