 Gaussian 09, Revision D.01,
 Gaussian 09:  ES64L-G09RevD.01 24-Apr-2013

 --------------------
 #p B2PLYPD3/Def2QZVP
 --------------------

 ----------
 butane_opt
 ----------
 Symbolic Z-matrix:
 Charge =  0 Multiplicity = 1

                         Standard orientation:
 ---------------------------------------------------------------------
 Center     Atomic      Atomic             Coordinates (Angstroms)
 Number     Number       Type             X           Y           Z
 ---------------------------------------------------------------------
      1          6           0       -1.970636   -0.145779   -0.193705
      2          6           0       -0.580867    0.641933    0.145723
      3          1           0       -2.573770    0.372253   -0.792134
      4          1           0       -2.632883   -1.180199    1.061283
      5          1           0       -1.898741   -0.644426   -0.874187
      6          6           0        0.597077   -0.415029    0.174450
      7          1           0       -0.530901    1.686771    1.183898
      8          1           0       -0.180520    0.872671   -0.419610
      9          6           0        1.927942    0.040570   -0.133267
     10          1           0        0.585598   -1.201157   -0.697118
     11          1           0        0.598037   -1.233337    1.092826
     12          1           0        2.276355    0.749851   -1.165031
     13          1           0        2.694002   -0.890323    0.004093
     14          1           0        1.821725    0.737723    0.646774
 ---------------------------------------------------------------------

 SCF Done:  E(RB2PLYPD3) =  -157.576449277     A.U. after   11 cycles
 E2(B2PLYPD3) =    -0.2577370467D+00 E(B2PLYPD3) =    -0.15783418632379D+03

 The electronic state is 1-A.
 Alpha  occ. eigenvalues --  -10.63525 -10.63143 -10.63103 -10.62692  -0.95303
 Alpha  occ. eigenvalues --   -0.86664  -0.79596  -0.64930  -0.53695  -0.52580
 Alpha  occ. eigenvalues --   -0.48174  -0.45371  -0.42073  -0.40254  -0.37188
 Alpha  occ. eigenvalues --   -0.35578  -0.32354
 Alpha virt. eigenvalues --    0.00673   0.05094   0.05668   0.07284   0.08445
 Alpha virt. eigenvalues --    0.10741   0.12102   0.12588   0.13471   0.15132
 Alpha virt. eigenvalues --    0.15994   0.16217   0.17642   0.18417   0.19727

 Mulliken charges:
               1
     1  C   -0.226967
     2  C   -0.574606
     3  H    0.058486
     4  H    0.010068
     5  H    0.181720
     6  C   -0.006986
     7  H    0.028586
     8  H    0.529009
     9  C   -0.182988
    10  H   -0.005206
    11  H    0.030057
    12  H    0.031466
    13  H    0.063501
    14  H    0.063860
 Sum of Mulliken charges =   0.00000

 Dipole moment (field-independent basis, Debye):
    X=              0.3132    Y=             -0.0699    Z=             -0.9286  Tot=              0.9824
 Quadrupole moment (field-independent basis, Debye-Ang):
   XX=            -31.5172   YY=            -29.5198   ZZ=            -28.7144
   XY=             -0.6577   XZ=              1.3634   YZ=             -0.3060

 Normal termination of Gaussian 09 at Wed Aug 26 15:35:35 2020.
