 Gaussian 09, Revision D.01,
 Gaussian 09:  ES64L-G09RevD.01 24-Apr-2013

 --------------------
 #p B2PLYPD3/Def2QZVP
 --------------------

 ----------
 butane_opt
 ----------
 Symbolic Z-matrix:
 Charge =  0 Multiplicity = 1

                         Standard orientation:
 ---------------------------------------------------------------------
 Center     Atomic      Atomic             Coordinates (Angstroms)
 Number     Number       Type             X           Y           Z
 ---------------------------------------------------------------------
      1          6           0        2.016529    0.101288    0.069863
      2          6           0        0.560935   -0.479479   -0.118751
      3          1           0        2.815738   -0.605224   -0.178501
      4          1           0        2.175399    1.014733    1.168404
      5          1           0        1.894861    0.286501   -0.584417
      6          6           0       -0.566163    0.539317   -0.082598
      7          1           0        0.377222   -1.174552    0.845759
      8          1           0        0.632640   -1.009239   -0.945923
      9          6           0       -1.982688   -0.122153    0.089474
     10          1           0       -0.571925    1.304290   -1.029356
     11          1           0       -0.370949    0.943119    0.659969
     12          1           0       -2.237562   -0.636142   -0.745120
     13          1           0       -2.719036    0.544134    0.044346
     14          1           0       -2.168068   -0.901461    1.016911
 ---------------------------------------------------------------------

 SCF Done:  E(RB2PLYPD3) =  -157.701686650     A.U. after   11 cycles
 E2(B2PLYPD3) =    -0.2491181853D+00 E(B2PLYPD3) =    -0.15795080483551D+03

 The electronic state is 1-A.
 Alpha  occ. eigenvalues --  -10.61144 -10.60060 -10.59523 -10.58960  -0.94283
 Alpha  occ. eigenvalues --   -0.86916  -0.76475  -0.68307  -0.54601  -0.49944
 Alpha  occ. eigenvalues --   -0.49014  -0.47776  -0.42480  -0.41588  -0.39604
 Alpha  occ. eigenvalues --   -0.39022  -0.34116
 Alpha virt. eigenvalues --    0.05419   0.06502   0.07669   0.08227   0.10442
 Alpha virt. eigenvalues --    0.11545   0.12762   0.13368   0.14394   0.15028
 Alpha virt. eigenvalues --    0.15920   0.16712   0.18787   0.19750   0.22217

 Mulliken charges:
               1
     1  C   -0.705896
     2  C   -0.031758
     3  H    0.072083
     4  H    0.045123
     5  H    0.535086
     6  C   -0.152097
     7  H    0.015176
     8  H    0.058014
     9  C   -0.114928
    10  H    0.010001
    11  H    0.159550
    12  H    0.036157
    13  H    0.045296
    14  H    0.028193
 Sum of Mulliken charges =   0.00000

 Dipole moment (field-independent basis, Debye):
    X=             -0.2669    Y=              0.0329    Z=             -0.5114  Tot=              0.5778
 Quadrupole moment (field-independent basis, Debye-Ang):
   XX=            -29.2305   YY=            -29.3968   ZZ=            -27.5495
   XY=             -0.7220   XZ=             -0.4195   YZ=              0.6267

 Normal termination of Gaussian 09 at Wed Aug 26 19:05:26 2020.
