 Gaussian 09, Revision D.01,
 Gaussian 09:  ES64L-G09RevD.01 24-Apr-2013

 --------------------
 #p B2PLYPD3/Def2QZVP
 --------------------

 ----------
 butane_opt
 ----------
 Symbolic Z-matrix:
 Charge =  0 Multiplicity = 1

                         Standard orientation:
 ---------------------------------------------------------------------
 Center     Atomic      Atomic             Coordinates (Angstroms)
 Number     Number       Type             X           Y           Z
 ---------------------------------------------------------------------
      1          6           0        1.918563    0.016643   -0.214910
      2          6           0        0.609850   -0.418991    0.339589
      3          1           0        2.728471   -0.802579   -0.509530
      4          1           0        2.362374    1.034524    0.699348
      5          1           0        1.819380    0.360587   -0.972224
      6          6           0       -0.524129    0.694706    0.079687
      7          1           0        0.730171   -1.093829    1.356491
      8          1           0        0.585374   -1.066406   -0.442727
      9          6           0       -2.062867   -0.192747   -0.083592
     10          1           0       -0.263893    1.174510   -0.843202
     11          1           0       -0.677067    1.182418    0.613488
     12          1           0       -2.141073   -1.276926   -1.055199
     13          1           0       -2.633255    0.437629   -0.174039
     14          1           0       -2.158988   -0.547598    0.602948
 ---------------------------------------------------------------------

 SCF Done:  E(RB2PLYPD3) =  -157.568578587     A.U. after   11 cycles
 E2(B2PLYPD3) =    -0.2498762179D+00 E(B2PLYPD3) =    -0.15781845480494D+03

 The electronic state is 1-A.
 Alpha  occ. eigenvalues --  -10.61613 -10.61219 -10.59930 -10.58584  -0.92613
 Alpha  occ. eigenvalues --   -0.86990  -0.79333  -0.70160  -0.55829  -0.54897
 Alpha  occ. eigenvalues --   -0.49362  -0.46819  -0.45474  -0.40460  -0.39599
 Alpha  occ. eigenvalues --   -0.36255  -0.32727
 Alpha virt. eigenvalues --    0.04725   0.05500   0.07807   0.08834   0.10519
 Alpha virt. eigenvalues --    0.10741   0.11768   0.13337   0.14120   0.14987
 Alpha virt. eigenvalues --    0.16267   0.16938   0.18421   0.19694   0.20700

 Mulliken charges:
               1
     1  C   -0.268889
     2  C   -0.039786
     3  H    0.040598
     4  H   -0.020371
     5  H    0.182970
     6  C   -0.384694
     7  H    0.037953
     8  H    0.083285
     9  C   -0.428441
    10  H    0.062132
    11  H    0.329701
    12  H    0.010077
    13  H    0.132275
    14  H    0.263189
 Sum of Mulliken charges =   0.00000

 Dipole moment (field-independent basis, Debye):
    X=             -0.5329    Y=              0.0259    Z=             -0.1730  Tot=              0.5609
 Quadrupole moment (field-independent basis, Debye-Ang):
   XX=            -31.0718   YY=            -28.3471   ZZ=            -27.8388
   XY=             -2.2970   XZ=             -2.4342   YZ=              0.1145

 Normal termination of Gaussian 09 at Wed Aug 26 23:19:44 2020.
