 Gaussian 09, Revision D.01,
 Gaussian 09:  ES64L-G09RevD.01 24-Apr-2013

 --------------------
 #p B2PLYPD3/Def2QZVP
 --------------------

 ----------
 butane_opt
 ----------
 Symbolic Z-matrix:
 Charge =  0 Multiplicity = 1

                         Standard orientation:
 ---------------------------------------------------------------------
 Center     Atomic      Atomic             Coordinates (Angstroms)
 Number     Number       Type             X           Y           Z
 ---------------------------------------------------------------------
      1          6           0        1.921893   -0.118956   -0.055453
      2          6           0        0.519821    0.504723    0.076343
      3          1           0        2.685245    0.732415   -0.235891
      4          1           0        1.749174   -0.559116   -0.833371
      5          1           0        2.244433   -0.840740    0.912442
      6          6           0       -0.509802   -0.526731    0.011611
      7          1           0        0.532504    1.156735   -0.714855
      8          1           0        0.353894    1.213057    1.077191
      9          6           0       -1.925277    0.082631   -0.027159
     10          1           0       -0.443685   -1.167129    0.805070
     11          1           0       -0.375948   -1.304900   -0.945092
     12          1           0       -2.072906    0.697448    0.835121
     13          1           0       -2.621390   -0.592444    0.097186
     14          1           0       -2.091130    1.014669   -1.029861
 ---------------------------------------------------------------------

 SCF Done:  E(RB2PLYPD3) =  -158.003224932     A.U. after   11 cycles
 E2(B2PLYPD3) =    -0.2487095052D+00 E(B2PLYPD3) =    -0.15825193443689D+03

 The electronic state is 1-A.
 Alpha  occ. eigenvalues --  -10.61400 -10.61219 -10.60916 -10.60119  -0.92722
 Alpha  occ. eigenvalues --   -0.83944  -0.73265  -0.66641  -0.53883  -0.51031
 Alpha  occ. eigenvalues --   -0.49796  -0.46315  -0.42651  -0.39911  -0.39014
 Alpha  occ. eigenvalues --   -0.37508  -0.36321
 Alpha virt. eigenvalues --    0.05402   0.06459   0.07287   0.08244   0.10830
 Alpha virt. eigenvalues --    0.11491   0.12507   0.13783   0.14189   0.15084
 Alpha virt. eigenvalues --    0.15736   0.16268   0.19254   0.20185   0.21000

 Mulliken charges:
               1
     1  C   -0.206916
     2  C   -0.035117
     3  H    0.038417
     4  H    0.120661
     5  H    0.028462
     6  C   -0.021728
     7  H    0.054702
     8  H    0.003918
     9  C   -0.149498
    10  H    0.053907
    11  H   -0.007122
    12  H    0.039652
    13  H    0.066335
    14  H    0.014326
 Sum of Mulliken charges =   0.00000

 Dipole moment (field-independent basis, Debye):
    X=             -0.1117    Y=             -0.1271    Z=              0.1725  Tot=              0.2416
 Quadrupole moment (field-independent basis, Debye-Ang):
   XX=            -30.5915   YY=            -28.8503   ZZ=            -28.6712
   XY=              0.9798   XZ=             -1.2688   YZ=             -0.6711

 Normal termination of Gaussian 09 at Wed Aug 26 20:54:33 2020.
