 Gaussian 09, Revision D.01,
 Gaussian 09:  ES64L-G09RevD.01 24-Apr-2013

 --------------------
 #p B2PLYPD3/Def2QZVP
 --------------------

 ----------
 butane_opt
 ----------
 Symbolic Z-matrix:
 Charge =  0 Multiplicity = 1

                         Standard orientation:
 ---------------------------------------------------------------------
 Center     Atomic      Atomic             Coordinates (Angstroms)
 Number     Number       Type             X           Y           Z
 ---------------------------------------------------------------------
      1          6           0        1.889906    0.091816   -0.212605
      2          6           0        0.654825   -0.524411    0.171934
      3          1           0        2.732866   -0.693900   -0.128670
      4          1           0        2.234469    0.688215    0.637764
      5          1           0        1.887139    0.646500   -1.117147
      6          6           0       -0.478835    0.632286    0.187414
      7          1           0        0.843078   -1.128420    1.154391
      8          1           0        0.294983   -0.928955   -0.621148
      9          6           0       -2.013274   -0.183886   -0.141791
     10          1           0       -0.424146    0.814862   -0.439352
     11          1           0       -0.519289    1.557868    1.098612
     12          1           0       -1.999940   -0.651898   -1.003745
     13          1           0       -2.832453    0.604807   -0.563425
     14          1           0       -2.532436   -1.003910    0.953008
 ---------------------------------------------------------------------

 SCF Done:  E(RB2PLYPD3) =  -157.645605968     A.U. after   12 cycles
 E2(B2PLYPD3) =    -0.2517129710D+00 E(B2PLYPD3) =    -0.15789731893911D+03

 The electronic state is 1-A.
 Alpha  occ. eigenvalues --  -10.64344 -10.61326 -10.60317 -10.59694  -0.94204
 Alpha  occ. eigenvalues --   -0.84212  -0.74125  -0.69018  -0.56108  -0.50259
 Alpha  occ. eigenvalues --   -0.47744  -0.45589  -0.42021  -0.41645  -0.39790
 Alpha  occ. eigenvalues --   -0.35806  -0.34622
 Alpha virt. eigenvalues --    0.04774   0.05840   0.08156   0.08444   0.10298
 Alpha virt. eigenvalues --    0.10960   0.11572   0.12550   0.13966   0.15140
 Alpha virt. eigenvalues --    0.15915   0.16879   0.18321   0.19484   0.20401

 Mulliken charges:
               1
     1  C   -0.138894
     2  C   -0.050851
     3  H    0.030250
     4  H    0.042438
     5  H    0.049706
     6  C   -0.759306
     7  H    0.045605
     8  H    0.096192
     9  C   -0.193087
    10  H    0.668101
    11  H    0.068157
    12  H    0.082882
    13  H    0.026835
    14  H    0.031970
 Sum of Mulliken charges =   0.00000

 Dipole moment (field-independent basis, Debye):
    X=              0.5482    Y=              0.1226    Z=             -0.5360  Tot=              0.7764
 Quadrupole moment (field-independent basis, Debye-Ang):
   XX=            -31.2308   YY=            -29.4330   ZZ=            -27.3399
   XY=             -0.3541   XZ=              1.6454   YZ=             -0.3311

 Normal termination of Gaussian 09 at Wed Aug 26 12:31:53 2020.
