 Gaussian 09, Revision D.01,
 Gaussian 09:  ES64L-G09RevD.01 24-Apr-2013

 --------------------
 #p B2PLYPD3/Def2QZVP
 --------------------

 ----------
 butane_opt
 ----------
 Symbolic Z-matrix:
 Charge =  0 Multiplicity = 1

                         Standard orientation:
 ---------------------------------------------------------------------
 Center     Atomic      Atomic             Coordinates (Angstroms)
 Number     Number       Type             X           Y           Z
 ---------------------------------------------------------------------
      1          6           0        1.969325    0.129950   -0.170444
      2          6           0        0.608462   -0.539034    0.112253
      3          1           0        2.869453   -0.897646    0.233574
      4          1           0        2.124969    0.498136    0.676243
      5          1           0        2.103143    0.885119   -1.168243
      6          6           0       -0.567184    0.603908    0.205284
      7          1           0        0.635971   -1.275507    1.064501
      8          1           0        0.329048   -1.066909   -0.770194
      9          6           0       -2.002857   -0.129463   -0.137621
     10          1           0       -0.179847    1.080737   -0.613338
     11          1           0       -0.528803    1.604629    1.306702
     12          1           0       -1.838043   -0.745812   -0.971803
     13          1           0       -2.706338    0.437173   -0.667926
     14          1           0       -2.856033   -0.912086    0.853647
 ---------------------------------------------------------------------

 SCF Done:  E(RB2PLYPD3) =  -157.864681217     A.U. after   11 cycles
 E2(B2PLYPD3) =    -0.2565683570D+00 E(B2PLYPD3) =    -0.15812124957409D+03

 The electronic state is 1-A.
 Alpha  occ. eigenvalues --  -10.66029 -10.64303 -10.63558 -10.63352  -0.90066
 Alpha  occ. eigenvalues --   -0.82225  -0.72822  -0.66005  -0.53302  -0.48122
 Alpha  occ. eigenvalues --   -0.46470  -0.44226  -0.41303  -0.40381  -0.37978
 Alpha  occ. eigenvalues --   -0.36717  -0.34018
 Alpha virt. eigenvalues --    0.03750   0.04124   0.06090   0.07458   0.08986
 Alpha virt. eigenvalues --    0.10249   0.11849   0.12418   0.14218   0.14543
 Alpha virt. eigenvalues --    0.15113   0.15770   0.17933   0.18504   0.19834

 Mulliken charges:
               1
     1  C   -0.217331
     2  C   -0.031444
     3  H    0.002723
     4  H    0.120074
     5  H    0.064814
     6  C   -0.120552
     7  H    0.035743
     8  H    0.067671
     9  C   -0.153110
    10  H    0.088261
    11  H    0.011776
    12  H    0.058031
    13  H    0.051257
    14  H    0.022087
 Sum of Mulliken charges =   0.00000

 Dipole moment (field-independent basis, Debye):
    X=              0.0183    Y=              0.2120    Z=             -0.6734  Tot=              0.7062
 Quadrupole moment (field-independent basis, Debye-Ang):
   XX=            -31.9450   YY=            -30.3467   ZZ=            -28.4798
   XY=              0.9505   XZ=              1.7570   YZ=             -0.9729

 Normal termination of Gaussian 09 at Wed Aug 26 10:21:35 2020.
