 Gaussian 09, Revision D.01,
 Gaussian 09:  ES64L-G09RevD.01 24-Apr-2013

 --------------------
 #p B2PLYPD3/Def2QZVP
 --------------------

 ----------
 butane_opt
 ----------
 Symbolic Z-matrix:
 Charge =  0 Multiplicity = 1

                         Standard orientation:
 ---------------------------------------------------------------------
 Center     Atomic      Atomic             Coordinates (Angstroms)
 Number     Number       Type             X           Y           Z
 ---------------------------------------------------------------------
      1          6           0        1.944684   -0.196490   -0.086792
      2          6           0        0.537991    0.581714    0.127954
      3          1           0        2.689422    0.446784   -0.654604
      4          1           0        1.920934   -0.798831   -0.890838
      5          1           0        2.350064   -0.877267    0.903837
      6          6           0       -0.625440   -0.356342    0.145427
      7          1           0        0.139811    1.078504   -0.731773
      8          1           0        0.638393    1.421392    1.146886
      9          6           0       -1.923281    0.037519   -0.091474
     10          1           0       -0.465952   -0.970510    1.082939
     11          1           0       -0.504903   -1.230495   -0.697715
     12          1           0       -2.098640    0.422381    0.581023
     13          1           0       -2.781885   -0.637840   -0.174668
     14          1           0       -1.490971    0.747474   -1.135775
 ---------------------------------------------------------------------

 SCF Done:  E(RB2PLYPD3) =  -157.862042881     A.U. after   11 cycles
 E2(B2PLYPD3) =    -0.2527218300D+00 E(B2PLYPD3) =    -0.15811476471077D+03

 The electronic state is 1-A.
 Alpha  occ. eigenvalues --  -10.63903 -10.62332 -10.61094 -10.58459  -0.94954
 Alpha  occ. eigenvalues --   -0.84660  -0.75010  -0.65216  -0.57317  -0.52361
 Alpha  occ. eigenvalues --   -0.48344  -0.46539  -0.42108  -0.39761  -0.39487
 Alpha  occ. eigenvalues --   -0.35264  -0.34187
 Alpha virt. eigenvalues --    0.05249   0.06164   0.07144   0.07767   0.10091
 Alpha virt. eigenvalues --    0.11656   0.12161   0.13158   0.13728   0.15047
 Alpha virt. eigenvalues --    0.15584   0.17096   0.18659   0.19092   0.20669

 Mulliken charges:
               1
     1  C   -0.146822
     2  C   -0.055974
     3  H    0.037041
     4  H    0.061408
     5  H    0.049308
     6  C    0.001001
     7  H    0.051672
     8  H    0.015232
     9  C   -0.318467
    10  H   -0.006196
    11  H    0.007503
    12  H    0.231742
    13  H    0.062524
    14  H    0.010027
 Sum of Mulliken charges =   0.00000

 Dipole moment (field-independent basis, Debye):
    X=             -0.1647    Y=             -0.2977    Z=              0.0312  Tot=              0.3417
 Quadrupole moment (field-independent basis, Debye-Ang):
   XX=            -28.9741   YY=            -30.4349   ZZ=            -28.5015
   XY=              0.4111   XZ=             -1.6325   YZ=              0.1095

 Normal termination of Gaussian 09 at Wed Aug 26 19:14:28 2020.
