 Gaussian 09, Revision D.01,
 Gaussian 09:  ES64L-G09RevD.01 24-Apr-2013

 --------------------
 #p B2PLYPD3/Def2QZVP
 --------------------

 ----------
 butane_opt
 ----------
 Symbolic Z-matrix:
 Charge =  0 Multiplicity = 1

                         Standard orientation:
 ---------------------------------------------------------------------
 Center     Atomic      Atomic             Coordinates (Angstroms)
 Number     Number       Type             X           Y           Z
 ---------------------------------------------------------------------
      1          6           0       -2.030614   -0.227262    0.139091
      2          6           0       -0.531955    0.668393   -0.170403
      3          1           0       -2.742251    0.258254    0.688306
      4          1           0       -1.646894   -0.890045    0.878092
      5          1           0       -2.887810   -0.694305   -0.769121
      6          6           0        0.655868   -0.431944   -0.205362
      7          1           0       -0.375064    0.966668    0.680941
      8          1           0       -0.611247    1.617884   -1.103640
      9          6           0        1.906144    0.055801    0.133346
     10          1           0        0.690989   -0.943372   -1.093412
     11          1           0        0.521443   -0.928460    0.532639
     12          1           0        2.236590    0.203779   -0.440117
     13          1           0        2.673949   -0.654409   -0.154986
     14          1           0        2.143629    0.674081    1.401261
 ---------------------------------------------------------------------

 SCF Done:  E(RB2PLYPD3) =  -157.569629879     A.U. after   11 cycles
 E2(B2PLYPD3) =    -0.2524740740D+00 E(B2PLYPD3) =    -0.15782210395327D+03

 The electronic state is 1-A.
 Alpha  occ. eigenvalues --  -10.63123 -10.62116 -10.58286 -10.57608  -0.97401
 Alpha  occ. eigenvalues --   -0.85439  -0.77265  -0.70166  -0.57133  -0.50750
 Alpha  occ. eigenvalues --   -0.46896  -0.45954  -0.42187  -0.41134  -0.39005
 Alpha  occ. eigenvalues --   -0.35978  -0.33358
 Alpha virt. eigenvalues --    0.05082   0.06056   0.06734   0.08236   0.09937
 Alpha virt. eigenvalues --    0.11200   0.12088   0.13888   0.14073   0.15470
 Alpha virt. eigenvalues --    0.16222   0.16641   0.17861   0.18844   0.21488

 Mulliken charges:
               1
     1  C   -0.182186
     2  C   -0.176057
     3  H    0.051533
     4  H    0.055909
     5  H    0.035078
     6  C   -0.057482
     7  H    0.150689
     8  H    0.030054
     9  C   -0.625092
    10  H    0.031356
    11  H    0.133821
    12  H    0.462417
    13  H    0.035842
    14  H    0.054117
 Sum of Mulliken charges =   0.00000

 Dipole moment (field-independent basis, Debye):
    X=              0.6237    Y=             -0.1366    Z=              0.1247  Tot=              0.6506
 Quadrupole moment (field-independent basis, Debye-Ang):
   XX=            -28.1977   YY=            -30.2878   ZZ=            -27.2602
   XY=             -0.6812   XZ=             -1.5923   YZ=              0.4637

 Normal termination of Gaussian 09 at Wed Aug 26 10:01:58 2020.
