 Gaussian 09, Revision D.01,
 Gaussian 09:  ES64L-G09RevD.01 24-Apr-2013

 --------------------
 #p B2PLYPD3/Def2QZVP
 --------------------

 ----------
 butane_opt
 ----------
 Symbolic Z-matrix:
 Charge =  0 Multiplicity = 1

                         Standard orientation:
 ---------------------------------------------------------------------
 Center     Atomic      Atomic             Coordinates (Angstroms)
 Number     Number       Type             X           Y           Z
 ---------------------------------------------------------------------
      1          6           0        1.861572   -0.157185   -0.027850
      2          6           0        0.510638    0.519424    0.037213
      3          1           0        2.872147    0.717715   -0.291163
      4          1           0        1.828586   -0.432573   -0.672456
      5          1           0        2.481782   -1.123031    1.116453
      6          6           0       -0.528798   -0.459746   -0.072926
      7          1           0        0.309149    1.419369   -0.866576
      8          1           0        0.448007    0.998447    0.892809
      9          6           0       -1.860394    0.058801    0.066785
     10          1           0       -0.529047   -0.962602    0.568567
     11          1           0       -0.614937   -1.171140   -0.982718
     12          1           0       -2.081859    0.837302    1.069197
     13          1           0       -2.602926   -0.679037   -0.138077
     14          1           0       -2.009014    0.627787   -0.715368
 ---------------------------------------------------------------------

 SCF Done:  E(RB2PLYPD3) =  -157.629380247     A.U. after   12 cycles
 E2(B2PLYPD3) =    -0.2512996600D+00 E(B2PLYPD3) =    -0.15788067990663D+03

 The electronic state is 1-A.
 Alpha  occ. eigenvalues --  -10.62877 -10.61581 -10.59458 -10.56996  -0.96605
 Alpha  occ. eigenvalues --   -0.87818  -0.75993  -0.70347  -0.56742  -0.51826
 Alpha  occ. eigenvalues --   -0.48953  -0.46040  -0.42611  -0.40621  -0.39157
 Alpha  occ. eigenvalues --   -0.38391  -0.34641
 Alpha virt. eigenvalues --    0.02795   0.05335   0.06823   0.07550   0.10334
 Alpha virt. eigenvalues --    0.10661   0.12502   0.12813   0.14378   0.15260
 Alpha virt. eigenvalues --    0.16013   0.16504   0.19053   0.19595   0.20879

 Mulliken charges:
               1
     1  C   -0.622074
     2  C    0.011349
     3  H    0.027480
     4  H    0.477940
     5  H    0.025887
     6  C   -0.203733
     7  H    0.006724
     8  H    0.071662
     9  C   -0.139896
    10  H    0.223340
    11  H    0.012877
    12  H    0.018006
    13  H    0.041110
    14  H    0.049329
 Sum of Mulliken charges =   0.00000

 Dipole moment (field-independent basis, Debye):
    X=             -0.4868    Y=             -0.1776    Z=             -0.3220  Tot=              0.6101
 Quadrupole moment (field-independent basis, Debye-Ang):
   XX=            -31.0530   YY=            -29.0436   ZZ=            -28.2822
   XY=              0.4378   XZ=              0.4017   YZ=              0.1222

 Normal termination of Gaussian 09 at Wed Aug 26 12:58:51 2020.
