 Gaussian 09, Revision D.01,
 Gaussian 09:  ES64L-G09RevD.01 24-Apr-2013

 --------------------
 #p B2PLYPD3/Def2QZVP
 --------------------

 ----------
 butane_opt
 ----------
 Symbolic Z-matrix:
 Charge =  0 Multiplicity = 1

                         Standard orientation:
 ---------------------------------------------------------------------
 Center     Atomic      Atomic             Coordinates (Angstroms)
 Number     Number       Type             X           Y           Z
 ---------------------------------------------------------------------
      1          6           0        1.880372    0.024853   -0.167453
      2          6           0        0.547240   -0.302390    0.373601
      3          1           0        3.093239   -1.202952   -0.448756
      4          1           0        2.403491    0.898470    0.534451
      5          1           0        1.479326    0.475040   -1.396911
      6          6           0       -0.468763    0.571533   -0.081245
      7          1           0        0.526884   -0.937471    1.677343
      8          1           0        0.286409   -0.947138   -0.194798
      9          6           0       -1.963035   -0.252376   -0.103338
     10          1           0       -0.373158    0.870771   -0.769425
     11          1           0       -0.555545    1.882055    0.802476
     12          1           0       -2.048114   -1.464590   -0.850920
     13          1           0       -2.695644    0.479147   -0.093798
     14          1           0       -2.091775   -0.303051    0.610945
 ---------------------------------------------------------------------

 SCF Done:  E(RB2PLYPD3) =  -157.410663336     A.U. after   12 cycles
 E2(B2PLYPD3) =    -0.2606147817D+00 E(B2PLYPD3) =    -0.15767127811731D+03

 The electronic state is 1-A.
 Alpha  occ. eigenvalues --  -10.69824 -10.63756 -10.62506 -10.60662  -0.97488
 Alpha  occ. eigenvalues --   -0.87345  -0.77660  -0.68926  -0.54976  -0.49291
 Alpha  occ. eigenvalues --   -0.48500  -0.45403  -0.44198  -0.40227  -0.37742
 Alpha  occ. eigenvalues --   -0.34552  -0.32999
 Alpha virt. eigenvalues --    0.00213   0.03482   0.04635   0.05601   0.07877
 Alpha virt. eigenvalues --    0.10020   0.10745   0.12762   0.13329   0.14058
 Alpha virt. eigenvalues --    0.15182   0.15651   0.17162   0.18983   0.19882

 Mulliken charges:
               1
     1  C   -0.178996
     2  C   -0.104512
     3  H    0.000461
     4  H    0.073531
     5  H    0.036398
     6  C   -0.338825
     7  H    0.021498
     8  H    0.191636
     9  C   -0.521284
    10  H    0.342301
    11  H   -0.055314
    12  H    0.063713
    13  H    0.068555
    14  H    0.400840
 Sum of Mulliken charges =   0.00000

 Dipole moment (field-independent basis, Debye):
    X=             -0.7638    Y=             -0.3244    Z=             -0.1799  Tot=              0.8491
 Quadrupole moment (field-independent basis, Debye-Ang):
   XX=            -31.7497   YY=            -30.6731   ZZ=            -29.6356
   XY=              0.9973   XZ=              0.2082   YZ=              0.1773

 Normal termination of Gaussian 09 at Wed Aug 26 12:07:20 2020.
