 Gaussian 09, Revision D.01,
 Gaussian 09:  ES64L-G09RevD.01 24-Apr-2013

 --------------------
 #p B2PLYPD3/Def2QZVP
 --------------------

 ----------
 butane_opt
 ----------
 Symbolic Z-matrix:
 Charge =  0 Multiplicity = 1

                         Standard orientation:
 ---------------------------------------------------------------------
 Center     Atomic      Atomic             Coordinates (Angstroms)
 Number     Number       Type             X           Y           Z
 ---------------------------------------------------------------------
      1          6           0       -1.877554   -0.029645    0.060102
      2          6           0       -0.518990    0.434557   -0.070709
      3          1           0       -2.688998    0.770557   -0.279418
      4          1           0       -2.161757   -1.006049    1.220801
      5          1           0       -1.841234   -0.372286   -0.415015
      6          6           0        0.482462   -0.559267   -0.043860
      7          1           0       -0.424297    0.843287    0.642355
      8          1           0       -0.339694    1.404887   -1.277475
      9          6           0        1.886927    0.073393    0.013655
     10          1           0        0.516942   -1.337672   -0.925270
     11          1           0        0.397606   -1.171137    0.731255
     12          1           0        1.805186    0.281534   -0.542610
     13          1           0        2.512416   -0.455463   -0.347502
     14          1           0        2.386763    1.528116    1.437753
 ---------------------------------------------------------------------

 SCF Done:  E(RB2PLYPD3) =  -156.679924392     A.U. after   13 cycles
 E2(B2PLYPD3) =    -0.2590179652D+00 E(B2PLYPD3) =    -0.15693894235734D+03

 The electronic state is 1-A.
 Alpha  occ. eigenvalues --  -10.61898 -10.61296 -10.61135 -10.60943  -1.00307
 Alpha  occ. eigenvalues --   -0.95107  -0.82784  -0.72046  -0.57392  -0.52476
 Alpha  occ. eigenvalues --   -0.50448  -0.47027  -0.43370  -0.41959  -0.39992
 Alpha  occ. eigenvalues --   -0.34990  -0.32657
 Alpha virt. eigenvalues --   -0.04166   0.02065   0.04716   0.06851   0.10080
 Alpha virt. eigenvalues --    0.10464   0.11229   0.12363   0.13505   0.15686
 Alpha virt. eigenvalues --    0.15867   0.16701   0.17599   0.18964   0.20939

 Mulliken charges:
               1
     1  C   -0.898236
     2  C   -0.152312
     3  H    0.109260
     4  H    0.023954
     5  H    0.687395
     6  C    0.051714
     7  H    0.248995
     8  H   -0.024460
     9  C   -0.804785
    10  H    0.000507
    11  H    0.054701
    12  H    0.665702
    13  H    0.061831
    14  H   -0.024265
 Sum of Mulliken charges =   0.00000

 Dipole moment (field-independent basis, Debye):
    X=             -0.3363    Y=             -0.8740    Z=             -0.8894  Tot=              1.2915
 Quadrupole moment (field-independent basis, Debye-Ang):
   XX=            -31.1077   YY=            -29.2346   ZZ=            -28.5875
   XY=             -1.5405   XZ=             -1.3835   YZ=              0.2129

 Normal termination of Gaussian 09 at Wed Aug 26 20:04:46 2020.
