 Gaussian 09, Revision D.01,
 Gaussian 09:  ES64L-G09RevD.01 24-Apr-2013

 --------------------
 #p B2PLYPD3/Def2QZVP
 --------------------

 ----------
 butane_opt
 ----------
 Symbolic Z-matrix:
 Charge =  0 Multiplicity = 1

                         Standard orientation:
 ---------------------------------------------------------------------
 Center     Atomic      Atomic             Coordinates (Angstroms)
 Number     Number       Type             X           Y           Z
 ---------------------------------------------------------------------
      1          6           0        1.985820   -0.106992    0.169808
      2          6           0        0.623042    0.428975   -0.250669
      3          1           0        3.000605    0.904436    0.224300
      4          1           0        2.086095   -0.825014   -0.609026
      5          1           0        1.770567   -0.478110    1.158790
      6          6           0       -0.583037   -0.615960   -0.138541
      7          1           0        0.741610    0.946292   -1.123698
      8          1           0        0.306601    1.277734    0.529304
      9          6           0       -1.977463    0.191057    0.116874
     10          1           0       -0.368433   -1.091745    0.776243
     11          1           0       -0.384830   -1.228820   -0.936304
     12          1           0       -2.082284    0.952893    1.058435
     13          1           0       -2.738378   -0.614001    0.439186
     14          1           0       -2.621720    0.773856   -0.902056
 ---------------------------------------------------------------------

 SCF Done:  E(RB2PLYPD3) =  -157.996081881     A.U. after   11 cycles
 E2(B2PLYPD3) =    -0.2519214874D+00 E(B2PLYPD3) =    -0.15824800336883D+03

 The electronic state is 1-A.
 Alpha  occ. eigenvalues --  -10.65563 -10.62708 -10.62172 -10.60624  -0.90363
 Alpha  occ. eigenvalues --   -0.81493  -0.71226  -0.66552  -0.55048  -0.48819
 Alpha  occ. eigenvalues --   -0.46554  -0.45826  -0.42121  -0.40071  -0.38623
 Alpha  occ. eigenvalues --   -0.36809  -0.35106
 Alpha virt. eigenvalues --    0.04732   0.05400   0.08175   0.08733   0.09962
 Alpha virt. eigenvalues --    0.10822   0.12065   0.12486   0.13761   0.15218
 Alpha virt. eigenvalues --    0.15443   0.16555   0.18776   0.19276   0.20627

 Mulliken charges:
               1
     1  C   -0.181991
     2  C   -0.035013
     3  H    0.021287
     4  H    0.067689
     5  H    0.060146
     6  C   -0.059219
     7  H    0.049687
     8  H   -0.001054
     9  C   -0.168951
    10  H    0.057587
    11  H    0.058961
    12  H    0.054946
    13  H    0.041457
    14  H    0.034470
 Sum of Mulliken charges =   0.00000

 Dipole moment (field-independent basis, Debye):
    X=             -0.2781    Y=             -0.3858    Z=              0.0388  Tot=              0.4772
 Quadrupole moment (field-independent basis, Debye-Ang):
   XX=            -31.5762   YY=            -29.6976   ZZ=            -28.3177
   XY=              0.0971   XZ=             -1.0098   YZ=              0.3150

 Normal termination of Gaussian 09 at Wed Aug 26 22:42:40 2020.
