 Gaussian 09, Revision D.01,
 Gaussian 09:  ES64L-G09RevD.01 24-Apr-2013

 --------------------
 #p B2PLYPD3/Def2QZVP
 --------------------

 ----------
 butane_opt
 ----------
 Symbolic Z-matrix:
 Charge =  0 Multiplicity = 1

                         Standard orientation:
 ---------------------------------------------------------------------
 Center     Atomic      Atomic             Coordinates (Angstroms)
 Number     Number       Type             X           Y           Z
 ---------------------------------------------------------------------
      1          6           0        1.969837    0.062604   -0.213456
      2          6           0        0.671261   -0.456642    0.133276
      3          1           0        2.849842   -0.592253    0.026556
      4          1           0        2.002137    0.862154    0.747954
      5          1           0        1.833969    0.283763   -0.898863
      6          6           0       -0.590714    0.595219    0.098382
      7          1           0        0.698386   -1.170259    1.195087
      8          1           0        0.530731   -0.849710   -0.472794
      9          6           0       -2.024809   -0.153180   -0.094505
     10          1           0       -0.298668    1.051491   -0.557121
     11          1           0       -0.438295    1.438401    0.954520
     12          1           0       -2.091203   -0.767528   -0.961456
     13          1           0       -2.643811    0.334712   -0.430733
     14          1           0       -2.596542   -0.878775    0.854668
 ---------------------------------------------------------------------

 SCF Done:  E(RB2PLYPD3) =  -157.554176465     A.U. after   11 cycles
 E2(B2PLYPD3) =    -0.2488652904D+00 E(B2PLYPD3) =    -0.15780304175555D+03

 The electronic state is 1-A.
 Alpha  occ. eigenvalues --  -10.61141 -10.60579 -10.58008 -10.57689  -0.95782
 Alpha  occ. eigenvalues --   -0.86354  -0.77909  -0.71844  -0.58665  -0.51079
 Alpha  occ. eigenvalues --   -0.49837  -0.46952  -0.42212  -0.41566  -0.39481
 Alpha  occ. eigenvalues --   -0.38672  -0.33976
 Alpha virt. eigenvalues --    0.05270   0.06227   0.08634   0.09054   0.10933
 Alpha virt. eigenvalues --    0.11330   0.12228   0.13583   0.14488   0.15672
 Alpha virt. eigenvalues --    0.16109   0.16819   0.18816   0.19933   0.21119

 Mulliken charges:
               1
     1  C   -0.495320
     2  C   -0.412707
     3  H    0.076711
     4  H    0.038914
     5  H    0.341512
     6  C   -0.181347
     7  H    0.020590
     8  H    0.411240
     9  C   -0.201479
    10  H    0.192593
    11  H    0.021800
    12  H    0.020431
    13  H    0.129340
    14  H    0.037723
 Sum of Mulliken charges =   0.00000

 Dipole moment (field-independent basis, Debye):
    X=             -0.1937    Y=             -0.0365    Z=             -0.9035  Tot=              0.9247
 Quadrupole moment (field-independent basis, Debye-Ang):
   XX=            -28.2345   YY=            -29.4035   ZZ=            -27.5703
   XY=             -0.7638   XZ=              0.8464   YZ=             -0.0440

 Normal termination of Gaussian 09 at Wed Aug 26 12:15:28 2020.
