 Gaussian 09, Revision D.01,
 Gaussian 09:  ES64L-G09RevD.01 24-Apr-2013

 --------------------
 #p B2PLYPD3/Def2QZVP
 --------------------

 ----------
 butane_opt
 ----------
 Symbolic Z-matrix:
 Charge =  0 Multiplicity = 1

                         Standard orientation:
 ---------------------------------------------------------------------
 Center     Atomic      Atomic             Coordinates (Angstroms)
 Number     Number       Type             X           Y           Z
 ---------------------------------------------------------------------
      1          6           0        1.980803   -0.234034   -0.131855
      2          6           0        0.536554    0.646427    0.118476
      3          1           0        2.770614    0.730958   -0.190209
      4          1           0        2.248891   -1.182157   -1.094017
      5          1           0        2.351781   -0.571905    0.650688
      6          6           0       -0.642183   -0.483485    0.296605
      7          1           0        0.186883    1.171093   -0.694354
      8          1           0        0.637565    1.495191    0.872389
      9          6           0       -1.920797    0.051079   -0.239634
     10          1           0       -0.738935   -1.407761    1.446111
     11          1           0       -0.345092   -0.701044   -0.330706
     12          1           0       -2.495379    0.993418    0.701588
     13          1           0       -2.709365   -0.709237   -0.605662
     14          1           0       -1.633223    0.301521   -1.017379
 ---------------------------------------------------------------------

 SCF Done:  E(RB2PLYPD3) =  -157.646402950     A.U. after   11 cycles
 E2(B2PLYPD3) =    -0.2544757200D+00 E(B2PLYPD3) =    -0.15790087867042D+03

 The electronic state is 1-A.
 Alpha  occ. eigenvalues --  -10.64213 -10.64120 -10.61532 -10.60809  -0.95554
 Alpha  occ. eigenvalues --   -0.82776  -0.75031  -0.69925  -0.54260  -0.48637
 Alpha  occ. eigenvalues --   -0.47229  -0.44648  -0.43462  -0.40836  -0.38486
 Alpha  occ. eigenvalues --   -0.37030  -0.33956
 Alpha virt. eigenvalues --    0.04694   0.05145   0.06416   0.07722   0.09549
 Alpha virt. eigenvalues --    0.11224   0.12120   0.12460   0.13257   0.14573
 Alpha virt. eigenvalues --    0.15993   0.16247   0.18319   0.18805   0.19725

 Mulliken charges:
               1
     1  C   -0.205619
     2  C   -0.051185
     3  H    0.016353
     4  H    0.044222
     5  H    0.102892
     6  C   -0.607847
     7  H    0.065962
     8  H    0.039473
     9  C   -0.230692
    10  H    0.031352
    11  H    0.563978
    12  H    0.022912
    13  H    0.047608
    14  H    0.160591
 Sum of Mulliken charges =   0.00000

 Dipole moment (field-independent basis, Debye):
    X=              0.3447    Y=              0.0258    Z=             -0.4384  Tot=              0.5583
 Quadrupole moment (field-independent basis, Debye-Ang):
   XX=            -30.8974   YY=            -29.0146   ZZ=            -28.7439
   XY=              0.3036   XZ=              1.3986   YZ=              0.6911

 Normal termination of Gaussian 09 at Wed Aug 26 21:47:57 2020.
