 Gaussian 09, Revision D.01,
 Gaussian 09:  ES64L-G09RevD.01 24-Apr-2013

 --------------------
 #p B2PLYPD3/Def2QZVP
 --------------------

 ----------
 butane_opt
 ----------
 Symbolic Z-matrix:
 Charge =  0 Multiplicity = 1

                         Standard orientation:
 ---------------------------------------------------------------------
 Center     Atomic      Atomic             Coordinates (Angstroms)
 Number     Number       Type             X           Y           Z
 ---------------------------------------------------------------------
      1          6           0        2.049407   -0.155010   -0.043760
      2          6           0        0.570394    0.565526   -0.028246
      3          1           0        2.711297    0.550772   -0.067977
      4          1           0        2.072736   -1.254586   -1.035913
      5          1           0        2.210262   -0.470126    0.849274
      6          6           0       -0.586382   -0.391662    0.197305
      7          1           0        0.075612    1.012386   -0.827156
      8          1           0        0.535253    1.230823    0.647562
      9          6           0       -1.948063    0.024831   -0.167575
     10          1           0       -0.724515   -1.192773    1.434213
     11          1           0       -0.491114   -0.726788   -0.431610
     12          1           0       -2.404867    1.144335    0.874016
     13          1           0       -2.772330   -0.826021   -0.400445
     14          1           0       -1.724468    0.269867   -0.788314
 ---------------------------------------------------------------------

 SCF Done:  E(RB2PLYPD3) =  -157.430966958     A.U. after   12 cycles
 E2(B2PLYPD3) =    -0.2528901336D+00 E(B2PLYPD3) =    -0.15768385709123D+03

 The electronic state is 1-A.
 Alpha  occ. eigenvalues --  -10.62777 -10.61885 -10.60580 -10.59959  -0.99385
 Alpha  occ. eigenvalues --   -0.86866  -0.78231  -0.71337  -0.55964  -0.50857
 Alpha  occ. eigenvalues --   -0.50173  -0.47768  -0.45134  -0.41517  -0.38433
 Alpha  occ. eigenvalues --   -0.35948  -0.33275
 Alpha virt. eigenvalues --    0.03619   0.04660   0.06955   0.08086   0.09112
 Alpha virt. eigenvalues --    0.10463   0.12068   0.12931   0.13410   0.14821
 Alpha virt. eigenvalues --    0.15587   0.16244   0.18362   0.18838   0.20014

 Mulliken charges:
               1
     1  C   -0.161592
     2  C   -0.053667
     3  H    0.069448
     4  H    0.024653
     5  H    0.087603
     6  C   -0.560439
     7  H    0.036888
     8  H    0.071024
     9  C   -0.602671
    10  H   -0.009254
    11  H    0.545127
    12  H   -0.016992
    13  H    0.086854
    14  H    0.483017
 Sum of Mulliken charges =   0.00000

 Dipole moment (field-independent basis, Debye):
    X=              0.6288    Y=              0.1232    Z=             -0.6122  Tot=              0.8862
 Quadrupole moment (field-independent basis, Debye-Ang):
   XX=            -29.9830   YY=            -29.7783   ZZ=            -28.6771
   XY=              2.1867   XZ=              2.5273   YZ=              1.1481

 Normal termination of Gaussian 09 at Wed Aug 26 12:28:54 2020.
