 Gaussian 09, Revision D.01,
 Gaussian 09:  ES64L-G09RevD.01 24-Apr-2013

 --------------------
 #p B2PLYPD3/Def2QZVP
 --------------------

 ----------
 butane_opt
 ----------
 Symbolic Z-matrix:
 Charge =  0 Multiplicity = 1

                         Standard orientation:
 ---------------------------------------------------------------------
 Center     Atomic      Atomic             Coordinates (Angstroms)
 Number     Number       Type             X           Y           Z
 ---------------------------------------------------------------------
      1          6           0        1.907272    0.080384   -0.028752
      2          6           0        0.517690   -0.490723    0.042181
      3          1           0        2.707539   -0.603794    0.072694
      4          1           0        1.968487    0.592704    0.735325
      5          1           0        1.904451    0.781077   -1.133585
      6          6           0       -0.520291    0.493217    0.022194
      7          1           0        0.501819   -1.347392    0.926677
      8          1           0        0.320330   -1.083392   -0.722258
      9          6           0       -1.896338   -0.069105   -0.060164
     10          1           0       -0.365569    0.937731   -0.770603
     11          1           0       -0.219920    1.672445    1.185898
     12          1           0       -1.791218   -0.645757   -0.802645
     13          1           0       -2.596960    0.356656   -0.259063
     14          1           0       -2.478952   -0.742918    0.914805
 ---------------------------------------------------------------------

 SCF Done:  E(RB2PLYPD3) =  -157.835342271     A.U. after   11 cycles
 E2(B2PLYPD3) =    -0.2500033740D+00 E(B2PLYPD3) =    -0.15808534564523D+03

 The electronic state is 1-A.
 Alpha  occ. eigenvalues --  -10.63788 -10.60784 -10.59938 -10.58685  -0.95897
 Alpha  occ. eigenvalues --   -0.86926  -0.77464  -0.68278  -0.55606  -0.54636
 Alpha  occ. eigenvalues --   -0.50903  -0.46866  -0.43845  -0.43218  -0.39430
 Alpha  occ. eigenvalues --   -0.37136  -0.32563
 Alpha virt. eigenvalues --    0.03665   0.05870   0.06408   0.07662   0.10002
 Alpha virt. eigenvalues --    0.12092   0.12496   0.13941   0.14199   0.15386
 Alpha virt. eigenvalues --    0.16013   0.16229   0.18617   0.19804   0.21484

 Mulliken charges:
               1
     1  C   -0.164910
     2  C   -0.017216
     3  H    0.046034
     4  H    0.101375
     5  H    0.009077
     6  C   -0.052926
     7  H   -0.000643
     8  H    0.052725
     9  C   -0.215169
    10  H    0.127317
    11  H   -0.076536
    12  H    0.056618
    13  H    0.120135
    14  H    0.014120
 Sum of Mulliken charges =   0.00000

 Dipole moment (field-independent basis, Debye):
    X=             -0.2055    Y=             -0.7560    Z=             -1.0436  Tot=              1.3050
 Quadrupole moment (field-independent basis, Debye-Ang):
   XX=            -27.9324   YY=            -30.7590   ZZ=            -28.9230
   XY=             -0.5250   XZ=              1.7874   YZ=             -0.8246

 Normal termination of Gaussian 09 at Wed Aug 26 22:23:25 2020.
