 Gaussian 09, Revision D.01,
 Gaussian 09:  ES64L-G09RevD.01 24-Apr-2013

 --------------------
 #p B2PLYPD3/Def2QZVP
 --------------------

 ----------
 butane_opt
 ----------
 Symbolic Z-matrix:
 Charge =  0 Multiplicity = 1

                         Standard orientation:
 ---------------------------------------------------------------------
 Center     Atomic      Atomic             Coordinates (Angstroms)
 Number     Number       Type             X           Y           Z
 ---------------------------------------------------------------------
      1          6           0       -2.041400    0.054449   -0.127209
      2          6           0       -0.606984   -0.427546    0.256001
      3          1           0       -2.709486   -0.788136   -0.891500
      4          1           0       -1.536905    0.289742   -0.746378
      5          1           0       -2.348592    0.983880    0.813778
      6          6           0        0.527525    0.610295   -0.041046
      7          1           0       -0.415121   -0.809046   -0.393966
      8          1           0       -0.612039   -1.272609    1.403463
      9          6           0        2.025027   -0.175600   -0.079116
     10          1           0        0.552340    1.473856    0.838136
     11          1           0        0.357642    0.871119   -0.785966
     12          1           0        2.288013   -0.603803    0.715133
     13          1           0        2.752514    0.453762   -0.102660
     14          1           0        2.246623   -0.968349   -0.901820
 ---------------------------------------------------------------------

 SCF Done:  E(RB2PLYPD3) =  -157.610771601     A.U. after   11 cycles
 E2(B2PLYPD3) =    -0.2525366111D+00 E(B2PLYPD3) =    -0.15786330821245D+03

 The electronic state is 1-A.
 Alpha  occ. eigenvalues --  -10.61974 -10.61966 -10.61169 -10.58980  -0.96796
 Alpha  occ. eigenvalues --   -0.85661  -0.77984  -0.70223  -0.55256  -0.48743
 Alpha  occ. eigenvalues --   -0.47897  -0.47380  -0.44795  -0.41722  -0.39201
 Alpha  occ. eigenvalues --   -0.37730  -0.32971
 Alpha virt. eigenvalues --    0.03990   0.06248   0.07354   0.08273   0.10293
 Alpha virt. eigenvalues --    0.11060   0.11803   0.13477   0.14068   0.14940
 Alpha virt. eigenvalues --    0.15695   0.17242   0.17731   0.19108   0.20576

 Mulliken charges:
               1
     1  C   -0.344854
     2  C   -0.420437
     3  H    0.043622
     4  H    0.230847
     5  H    0.059928
     6  C   -0.280203
     7  H    0.401336
     8  H    0.008110
     9  C   -0.125921
    10  H    0.028631
    11  H    0.263092
    12  H    0.066793
    13  H    0.051324
    14  H    0.017731
 Sum of Mulliken charges =   0.00000

 Dipole moment (field-independent basis, Debye):
    X=              0.8060    Y=              0.1978    Z=             -0.6661  Tot=              1.0641
 Quadrupole moment (field-independent basis, Debye-Ang):
   XX=            -30.0901   YY=            -29.5633   ZZ=            -27.9698
   XY=              0.0728   XZ=              0.8202   YZ=              1.5244

 Normal termination of Gaussian 09 at Wed Aug 26 10:10:25 2020.
