 Gaussian 09, Revision D.01,
 Gaussian 09:  ES64L-G09RevD.01 24-Apr-2013

 --------------------
 #p B2PLYPD3/Def2QZVP
 --------------------

 ----------
 butane_opt
 ----------
 Symbolic Z-matrix:
 Charge =  0 Multiplicity = 1

                         Standard orientation:
 ---------------------------------------------------------------------
 Center     Atomic      Atomic             Coordinates (Angstroms)
 Number     Number       Type             X           Y           Z
 ---------------------------------------------------------------------
      1          6           0        1.972118    0.146583    0.014383
      2          6           0        0.573418   -0.503040   -0.009953
      3          1           0        2.812546   -0.618194   -0.315074
      4          1           0        2.102467    1.199776    1.009017
      5          1           0        1.914338    0.337951   -0.447768
      6          6           0       -0.607927    0.445546   -0.134746
      7          1           0        0.282050   -1.031030    0.768878
      8          1           0        0.257339   -1.320725   -1.018206
      9          6           0       -1.863390   -0.169270    0.082929
     10          1           0       -0.620386    1.156591   -1.002216
     11          1           0       -0.421516    1.353198    0.851702
     12          1           0       -2.161611   -0.295746   -0.531228
     13          1           0       -2.864567    0.847129   -0.221694
     14          1           0       -1.745971   -1.147863    1.190914
 ---------------------------------------------------------------------

 SCF Done:  E(RB2PLYPD3) =  -156.729276032     A.U. after   12 cycles
 E2(B2PLYPD3) =    -0.2580925784D+00 E(B2PLYPD3) =    -0.15698736861037D+03

 The electronic state is 1-A.
 Alpha  occ. eigenvalues --  -10.64811 -10.63443 -10.63049 -10.62932  -0.95929
 Alpha  occ. eigenvalues --   -0.91612  -0.79497  -0.67465  -0.55616  -0.51751
 Alpha  occ. eigenvalues --   -0.48983  -0.44153  -0.43283  -0.41482  -0.39027
 Alpha  occ. eigenvalues --   -0.36920  -0.31621
 Alpha virt. eigenvalues --    0.01784   0.04418   0.05561   0.06204   0.09327
 Alpha virt. eigenvalues --    0.10300   0.11351   0.12116   0.13480   0.14494
 Alpha virt. eigenvalues --    0.15257   0.16320   0.17789   0.18989   0.21350

 Mulliken charges:
               1
     1  C   -1.067075
     2  C    0.010489
     3  H    0.116569
     4  H    0.070132
     5  H    0.826796
     6  C    0.034960
     7  H    0.082790
     8  H   -0.011130
     9  C   -0.610378
    10  H    0.025264
    11  H   -0.009295
    12  H    0.488458
    13  H   -0.021517
    14  H    0.063939
 Sum of Mulliken charges =   0.00000

 Dipole moment (field-independent basis, Debye):
    X=              0.2969    Y=             -0.2944    Z=             -0.7021  Tot=              0.8172
 Quadrupole moment (field-independent basis, Debye-Ang):
   XX=            -31.4892   YY=            -29.6652   ZZ=            -28.4794
   XY=              0.7941   XZ=              0.8993   YZ=             -0.8086

 Normal termination of Gaussian 09 at Wed Aug 26 23:51:59 2020.
