 Gaussian 09, Revision D.01,
 Gaussian 09:  ES64L-G09RevD.01 24-Apr-2013

 --------------------
 #p B2PLYPD3/Def2QZVP
 --------------------

 ----------
 butane_opt
 ----------
 Symbolic Z-matrix:
 Charge =  0 Multiplicity = 1

                         Standard orientation:
 ---------------------------------------------------------------------
 Center     Atomic      Atomic             Coordinates (Angstroms)
 Number     Number       Type             X           Y           Z
 ---------------------------------------------------------------------
      1          6           0        1.967704    0.095652   -0.008353
      2          6           0        0.559065   -0.569133   -0.056241
      3          1           0        2.753913   -0.857262   -0.248236
      4          1           0        2.203218    0.991719    1.177402
      5          1           0        1.932676    0.481429   -0.676391
      6          6           0       -0.528970    0.591154   -0.072797
      7          1           0        0.545191   -1.304280    0.987557
      8          1           0        0.382206   -0.870123   -0.759671
      9          6           0       -2.016692   -0.072175    0.053939
     10          1           0       -0.418783    1.460162   -1.007752
     11          1           0       -0.253965    1.212852    0.873668
     12          1           0       -2.266406   -0.919842   -0.949458
     13          1           0       -2.543736    0.409198    0.134285
     14          1           0       -2.220957   -0.876837    0.969306
 ---------------------------------------------------------------------

 SCF Done:  E(RB2PLYPD3) =  -157.533551186     A.U. after   11 cycles
 E2(B2PLYPD3) =    -0.2528828574D+00 E(B2PLYPD3) =    -0.15778643404300D+03

 The electronic state is 1-A.
 Alpha  occ. eigenvalues --  -10.64891 -10.61965 -10.61177 -10.60200  -0.92446
 Alpha  occ. eigenvalues --   -0.85471  -0.76972  -0.68336  -0.55304  -0.51540
 Alpha  occ. eigenvalues --   -0.47625  -0.43860  -0.42156  -0.40284  -0.37914
 Alpha  occ. eigenvalues --   -0.36406  -0.35877
 Alpha virt. eigenvalues --    0.03870   0.05660   0.06718   0.08249   0.09684
 Alpha virt. eigenvalues --    0.10621   0.12280   0.13156   0.13552   0.14331
 Alpha virt. eigenvalues --    0.15623   0.16465   0.19145   0.19472   0.20097

 Mulliken charges:
               1
     1  C   -0.426477
     2  C   -0.292616
     3  H    0.043167
     4  H    0.028089
     5  H    0.328206
     6  C   -0.036815
     7  H    0.041771
     8  H    0.301034
     9  C   -0.475123
    10  H    0.018904
    11  H    0.034283
    12  H    0.018189
    13  H    0.373410
    14  H    0.043977
 Sum of Mulliken charges =   0.00000

 Dipole moment (field-independent basis, Debye):
    X=             -0.2311    Y=              0.0805    Z=             -0.2994  Tot=              0.3867
 Quadrupole moment (field-independent basis, Debye-Ang):
   XX=            -30.8733   YY=            -28.9313   ZZ=            -28.4511
   XY=             -0.4901   XZ=             -0.9991   YZ=              0.1663

 Normal termination of Gaussian 09 at Wed Aug 26 11:17:44 2020.
