 Gaussian 09, Revision D.01,
 Gaussian 09:  ES64L-G09RevD.01 24-Apr-2013

 --------------------
 #p B2PLYPD3/Def2QZVP
 --------------------

 ----------
 butane_opt
 ----------
 Symbolic Z-matrix:
 Charge =  0 Multiplicity = 1

                         Standard orientation:
 ---------------------------------------------------------------------
 Center     Atomic      Atomic             Coordinates (Angstroms)
 Number     Number       Type             X           Y           Z
 ---------------------------------------------------------------------
      1          6           0       -1.963621   -0.165956   -0.019785
      2          6           0       -0.563657    0.579749   -0.044503
      3          1           0       -2.753244    0.482849    0.249633
      4          1           0       -2.031077   -0.450679    0.727044
      5          1           0       -2.323845   -0.943370   -0.957809
      6          6           0        0.572677   -0.510410    0.056990
      7          1           0       -0.582246    1.188527    0.819927
      8          1           0       -0.334190    1.184112   -0.873887
      9          6           0        1.948826    0.113895   -0.018646
     10          1           0        0.562185   -1.085427   -0.665159
     11          1           0        0.592439   -1.237129    0.990608
     12          1           0        2.123229    0.669781   -0.872027
     13          1           0        2.757644   -0.707739   -0.124622
     14          1           0        2.023757    0.795404    0.861956
 ---------------------------------------------------------------------

 SCF Done:  E(RB2PLYPD3) =  -157.954240757     A.U. after   11 cycles
 E2(B2PLYPD3) =    -0.2465118577D+00 E(B2PLYPD3) =    -0.15820075261509D+03

 The electronic state is 1-A.
 Alpha  occ. eigenvalues --  -10.60869 -10.59587 -10.59215 -10.58176  -0.91458
 Alpha  occ. eigenvalues --   -0.85528  -0.74753  -0.68756  -0.54272  -0.49300
 Alpha  occ. eigenvalues --   -0.48408  -0.47931  -0.42723  -0.41375  -0.39328
 Alpha  occ. eigenvalues --   -0.38806  -0.36293
 Alpha virt. eigenvalues --    0.05746   0.06736   0.08277   0.08929   0.10993
 Alpha virt. eigenvalues --    0.11882   0.12805   0.13611   0.14808   0.15642
 Alpha virt. eigenvalues --    0.15956   0.16809   0.18945   0.20142   0.21311

 Mulliken charges:
               1
     1  C   -0.334179
     2  C   -0.033311
     3  H    0.026620
     4  H    0.215683
     5  H    0.047713
     6  C   -0.065851
     7  H    0.034331
     8  H    0.053577
     9  C   -0.144475
    10  H    0.073141
    11  H    0.010144
    12  H    0.040442
    13  H    0.032113
    14  H    0.044055
 Sum of Mulliken charges =   0.00000

 Dipole moment (field-independent basis, Debye):
    X=             -0.1135    Y=              0.0629    Z=              0.0692  Tot=              0.1471
 Quadrupole moment (field-independent basis, Debye-Ang):
   XX=            -29.7886   YY=            -28.5813   ZZ=            -27.6839
   XY=             -0.3011   XZ=             -1.5770   YZ=              0.5850

 Normal termination of Gaussian 09 at Wed Aug 26 19:05:49 2020.
