 Gaussian 09, Revision D.01,
 Gaussian 09:  ES64L-G09RevD.01 24-Apr-2013

 --------------------
 #p B2PLYPD3/Def2QZVP
 --------------------

 ----------
 butane_opt
 ----------
 Symbolic Z-matrix:
 Charge =  0 Multiplicity = 1

                         Standard orientation:
 ---------------------------------------------------------------------
 Center     Atomic      Atomic             Coordinates (Angstroms)
 Number     Number       Type             X           Y           Z
 ---------------------------------------------------------------------
      1          6           0       -1.958365    0.074802    0.068184
      2          6           0       -0.594693   -0.468045   -0.033271
      3          1           0       -2.780821   -0.775175   -0.411374
      4          1           0       -1.827788    0.368187   -0.643305
      5          1           0       -2.365844    1.038627    1.261430
      6          6           0        0.543221    0.584083   -0.096332
      7          1           0       -0.393750   -1.222964   -0.915885
      8          1           0       -0.514377   -0.984056    0.692314
      9          6           0        1.968278   -0.160911    0.077028
     10          1           0        0.443451    1.023621    0.570412
     11          1           0        0.446983    1.339468   -1.103143
     12          1           0        2.227256   -0.920064    1.118956
     13          1           0        2.764443    0.573446   -0.026262
     14          1           0        2.249798   -0.620665   -0.636793
 ---------------------------------------------------------------------

 SCF Done:  E(RB2PLYPD3) =  -157.663022836     A.U. after   11 cycles
 E2(B2PLYPD3) =    -0.2513464207D+00 E(B2PLYPD3) =    -0.15791436925662D+03

 The electronic state is 1-A.
 Alpha  occ. eigenvalues --  -10.61489 -10.60514 -10.60464 -10.59239  -0.94591
 Alpha  occ. eigenvalues --   -0.86045  -0.76786  -0.70866  -0.55156  -0.48412
 Alpha  occ. eigenvalues --   -0.47237  -0.45911  -0.43311  -0.40661  -0.38997
 Alpha  occ. eigenvalues --   -0.37826  -0.35505
 Alpha virt. eigenvalues --    0.03131   0.05556   0.06542   0.07942   0.10679
 Alpha virt. eigenvalues --    0.11186   0.12111   0.12883   0.14530   0.15401
 Alpha virt. eigenvalues --    0.15721   0.16271   0.18691   0.19594   0.21060

 Mulliken charges:
               1
     1  C   -0.485227
     2  C   -0.065511
     3  H    0.039107
     4  H    0.353744
     5  H    0.041829
     6  C   -0.256165
     7  H    0.013518
     8  H    0.110597
     9  C   -0.168293
    10  H    0.253822
    11  H    0.018035
    12  H    0.029107
    13  H    0.029689
    14  H    0.085747
 Sum of Mulliken charges =   0.00000

 Dipole moment (field-independent basis, Debye):
    X=              0.4994    Y=             -0.0184    Z=             -0.3607  Tot=              0.6163
 Quadrupole moment (field-independent basis, Debye-Ang):
   XX=            -30.5756   YY=            -28.9369   ZZ=            -27.9338
   XY=             -0.1314   XZ=             -0.1281   YZ=              0.4816

 Normal termination of Gaussian 09 at Wed Aug 26 21:23:40 2020.
