 Gaussian 09, Revision D.01,
 Gaussian 09:  ES64L-G09RevD.01 24-Apr-2013

 --------------------
 #p B2PLYPD3/Def2QZVP
 --------------------

 ----------
 butane_opt
 ----------
 Symbolic Z-matrix:
 Charge =  0 Multiplicity = 1

                         Standard orientation:
 ---------------------------------------------------------------------
 Center     Atomic      Atomic             Coordinates (Angstroms)
 Number     Number       Type             X           Y           Z
 ---------------------------------------------------------------------
      1          6           0        1.893891    0.117243    0.046683
      2          6           0        0.577787   -0.501744   -0.049304
      3          1           0        2.737944   -0.750831    0.047494
      4          1           0        1.891163    0.862874    0.940493
      5          1           0        1.970394    0.631645   -0.727795
      6          6           0       -0.547517    0.562969   -0.102453
      7          1           0        0.477269   -1.095284    0.809252
      8          1           0        0.452789   -1.196544   -0.962243
      9          6           0       -1.905173   -0.153052    0.059731
     10          1           0       -0.324458    1.069056   -0.965299
     11          1           0       -0.376347    1.164692    0.742936
     12          1           0       -2.393759   -0.667518   -0.719747
     13          1           0       -2.627988    0.550940    0.096991
     14          1           0       -1.920936   -0.721530    1.009975
 ---------------------------------------------------------------------

 SCF Done:  E(RB2PLYPD3) =  -158.063875851     A.U. after   11 cycles
 E2(B2PLYPD3) =    -0.2463525276D+00 E(B2PLYPD3) =    -0.15831022837824D+03

 The electronic state is 1-A.
 Alpha  occ. eigenvalues --  -10.59549 -10.59302 -10.59183 -10.58635  -0.92253
 Alpha  occ. eigenvalues --   -0.84298  -0.73773  -0.67173  -0.55576  -0.50475
 Alpha  occ. eigenvalues --   -0.48647  -0.46993  -0.43548  -0.41458  -0.39795
 Alpha  occ. eigenvalues --   -0.38639  -0.35515
 Alpha virt. eigenvalues --    0.05867   0.06882   0.08307   0.08870   0.10841
 Alpha virt. eigenvalues --    0.12006   0.13072   0.14262   0.14910   0.15458
 Alpha virt. eigenvalues --    0.16002   0.16571   0.19227   0.20206   0.22231

 Mulliken charges:
               1
     1  C   -0.175052
     2  C   -0.030094
     3  H    0.037382
     4  H    0.033075
     5  H    0.076947
     6  C   -0.077482
     7  H    0.038141
     8  H    0.019637
     9  C   -0.134320
    10  H    0.049766
    11  H    0.047954
    12  H    0.031812
    13  H    0.034219
    14  H    0.048014
 Sum of Mulliken charges =   0.00000

 Dipole moment (field-independent basis, Debye):
    X=             -0.2717    Y=              0.2007    Z=             -0.1216  Tot=              0.3590
 Quadrupole moment (field-independent basis, Debye-Ang):
   XX=            -29.5808   YY=            -28.9242   ZZ=            -27.8631
   XY=             -0.1699   XZ=              0.0184   YZ=             -0.1221

 Normal termination of Gaussian 09 at Wed Aug 26 23:12:12 2020.
