 Gaussian 09, Revision D.01,
 Gaussian 09:  ES64L-G09RevD.01 24-Apr-2013

 --------------------
 #p B2PLYPD3/Def2QZVP
 --------------------

 ----------
 butane_opt
 ----------
 Symbolic Z-matrix:
 Charge =  0 Multiplicity = 1

                         Standard orientation:
 ---------------------------------------------------------------------
 Center     Atomic      Atomic             Coordinates (Angstroms)
 Number     Number       Type             X           Y           Z
 ---------------------------------------------------------------------
      1          6           0        1.945082    0.091601    0.196698
      2          6           0        0.565674   -0.508782   -0.368400
      3          1           0        2.645100   -0.618762    0.510899
      4          1           0        1.867797    0.609221    1.198623
      5          1           0        2.537942    0.755669   -0.599507
      6          6           0       -0.535523    0.529654   -0.133509
      7          1           0        0.657829   -1.160964    0.545715
      8          1           0        0.588340   -1.028655   -1.340834
      9          6           0       -2.025130   -0.115521    0.147444
     10          1           0       -0.708791    1.455121   -0.982364
     11          1           0       -0.237374    1.123005    0.894547
     12          1           0       -2.099658   -0.490693   -0.722900
     13          1           0       -2.704498    0.508619    0.178494
     14          1           0       -2.247300   -1.134272    1.263932
 ---------------------------------------------------------------------

 SCF Done:  E(RB2PLYPD3) =  -157.942912772     A.U. after   11 cycles
 E2(B2PLYPD3) =    -0.2525635009D+00 E(B2PLYPD3) =    -0.15819547627331D+03

 The electronic state is 1-A.
 Alpha  occ. eigenvalues --  -10.65202 -10.62727 -10.61600 -10.60805  -0.89774
 Alpha  occ. eigenvalues --   -0.83246  -0.73719  -0.65021  -0.53224  -0.51317
 Alpha  occ. eigenvalues --   -0.47730  -0.44433  -0.43758  -0.40290  -0.38076
 Alpha  occ. eigenvalues --   -0.36272  -0.33824
 Alpha virt. eigenvalues --    0.04831   0.05811   0.06913   0.07969   0.10381
 Alpha virt. eigenvalues --    0.11443   0.11631   0.13452   0.13779   0.14626
 Alpha virt. eigenvalues --    0.15515   0.16773   0.18836   0.19410   0.20826

 Mulliken charges:
               1
     1  C   -0.124843
     2  C   -0.070256
     3  H    0.043469
     4  H    0.043829
     5  H    0.026397
     6  C   -0.061096
     7  H    0.053957
     8  H    0.058178
     9  C   -0.190766
    10  H    0.027192
    11  H    0.021224
    12  H    0.085802
    13  H    0.080812
    14  H    0.006099
 Sum of Mulliken charges =   0.00000

 Dipole moment (field-independent basis, Debye):
    X=              0.1786    Y=              0.0094    Z=             -0.2535  Tot=              0.3102
 Quadrupole moment (field-independent basis, Debye-Ang):
   XX=            -29.9473   YY=            -30.1157   ZZ=            -28.0614
   XY=             -1.6410   XZ=              1.4903   YZ=             -0.1069

 Normal termination of Gaussian 09 at Wed Aug 26 16:34:13 2020.
