 Gaussian 09, Revision D.01,
 Gaussian 09:  ES64L-G09RevD.01 24-Apr-2013

 --------------------
 #p B2PLYPD3/Def2QZVP
 --------------------

 ----------
 butane_opt
 ----------
 Symbolic Z-matrix:
 Charge =  0 Multiplicity = 1

                         Standard orientation:
 ---------------------------------------------------------------------
 Center     Atomic      Atomic             Coordinates (Angstroms)
 Number     Number       Type             X           Y           Z
 ---------------------------------------------------------------------
      1          6           0        1.918148    0.068246    0.120791
      2          6           0        0.576016   -0.489894   -0.218238
      3          1           0        2.752827   -0.899764    0.066290
      4          1           0        2.232289    0.495261    1.111329
      5          1           0        2.067536    0.805718   -0.786876
      6          6           0       -0.495758    0.602501    0.077729
      7          1           0        0.654754   -0.993542    0.390012
      8          1           0        0.491830   -1.119245   -1.241576
      9          6           0       -1.997504   -0.119874    0.044930
     10          1           0       -0.529278    1.539353   -0.817917
     11          1           0       -0.268499    1.016793    1.133821
     12          1           0       -1.917495   -0.339659   -0.586108
     13          1           0       -2.627481    0.486297   -0.599220
     14          1           0       -2.861893   -1.357089    1.178980
 ---------------------------------------------------------------------

 SCF Done:  E(RB2PLYPD3) =  -157.469109631     A.U. after   13 cycles
 E2(B2PLYPD3) =    -0.2579858253D+00 E(B2PLYPD3) =    -0.15772709545654D+03

 The electronic state is 1-A.
 Alpha  occ. eigenvalues --  -10.66259 -10.63285 -10.61923 -10.59131  -0.94345
 Alpha  occ. eigenvalues --   -0.89770  -0.73770  -0.68518  -0.55075  -0.48218
 Alpha  occ. eigenvalues --   -0.47901  -0.44825  -0.41555  -0.40070  -0.37896
 Alpha  occ. eigenvalues --   -0.35625  -0.34349
 Alpha virt. eigenvalues --   -0.02021   0.04744   0.06377   0.07386   0.09964
 Alpha virt. eigenvalues --    0.10661   0.11352   0.12448   0.14068   0.15447
 Alpha virt. eigenvalues --    0.16372   0.16708   0.17561   0.18773   0.19576

 Mulliken charges:
               1
     1  C   -0.171066
     2  C   -0.306891
     3  H    0.013253
     4  H    0.062291
     5  H    0.044958
     6  C   -0.023322
     7  H    0.310857
     8  H    0.045828
     9  C   -0.730165
    10  H    0.028283
    11  H    0.058934
    12  H    0.594385
    13  H    0.047329
    14  H    0.025324
 Sum of Mulliken charges =   0.00000

 Dipole moment (field-independent basis, Debye):
    X=              0.4048    Y=             -0.0865    Z=             -0.4700  Tot=              0.6263
 Quadrupole moment (field-independent basis, Debye-Ang):
   XX=            -32.6348   YY=            -29.6316   ZZ=            -27.6797
   XY=             -0.0169   XZ=              2.8129   YZ=             -0.6396

 Normal termination of Gaussian 09 at Wed Aug 26 21:33:09 2020.
