 Gaussian 09, Revision D.01,
 Gaussian 09:  ES64L-G09RevD.01 24-Apr-2013

 --------------------
 #p B2PLYPD3/Def2QZVP
 --------------------

 ----------
 butane_opt
 ----------
 Symbolic Z-matrix:
 Charge =  0 Multiplicity = 1

                         Standard orientation:
 ---------------------------------------------------------------------
 Center     Atomic      Atomic             Coordinates (Angstroms)
 Number     Number       Type             X           Y           Z
 ---------------------------------------------------------------------
      1          6           0        1.910423   -0.155932   -0.119236
      2          6           0        0.519583    0.509925   -0.048543
      3          1           0        2.742985    0.531260   -0.421401
      4          1           0        2.299769   -1.343552   -0.726324
      5          1           0        2.328308   -0.441388    0.795056
      6          6           0       -0.563495   -0.309846    0.440906
      7          1           0        0.255695    0.767475   -0.962248
      8          1           0        0.386338    1.726165    0.682251
      9          6           0       -1.918582    0.017477   -0.200130
     10          1           0       -0.439400   -0.692273    1.725393
     11          1           0       -0.442051   -0.844057   -0.093126
     12          1           0       -2.684135    1.070081    0.391077
     13          1           0       -2.811845   -1.229576   -0.678153
     14          1           0       -1.323238    0.086125   -1.150504
 ---------------------------------------------------------------------

 SCF Done:  E(RB2PLYPD3) =  -157.687536384     A.U. after   11 cycles
 E2(B2PLYPD3) =    -0.2590862149D+00 E(B2PLYPD3) =    -0.15794662259898D+03

 The electronic state is 1-A.
 Alpha  occ. eigenvalues --  -10.68747 -10.64295 -10.63837 -10.60348  -0.98166
 Alpha  occ. eigenvalues --   -0.83486  -0.72168  -0.67396  -0.56100  -0.49396
 Alpha  occ. eigenvalues --   -0.48305  -0.43998  -0.41370  -0.39952  -0.39143
 Alpha  occ. eigenvalues --   -0.36316  -0.33106
 Alpha virt. eigenvalues --    0.01792   0.04616   0.05369   0.07270   0.07578
 Alpha virt. eigenvalues --    0.10223   0.11785   0.12576   0.13252   0.14284
 Alpha virt. eigenvalues --    0.15194   0.16413   0.17670   0.18421   0.20426

 Mulliken charges:
               1
     1  C   -0.138246
     2  C   -0.039170
     3  H    0.046911
     4  H    0.016083
     5  H    0.050703
     6  C   -0.496887
     7  H    0.084452
     8  H   -0.009712
     9  C   -0.154384
    10  H    0.031974
    11  H    0.483146
    12  H    0.056684
    13  H    0.008016
    14  H    0.060430
 Sum of Mulliken charges =   0.00000

 Dipole moment (field-independent basis, Debye):
    X=              0.7806    Y=             -0.0299    Z=             -0.2156  Tot=              0.8104
 Quadrupole moment (field-independent basis, Debye-Ang):
   XX=            -30.8790   YY=            -30.7022   ZZ=            -29.8800
   XY=             -1.1423   XZ=             -0.0252   YZ=              0.6156

 Normal termination of Gaussian 09 at Wed Aug 26 23:40:45 2020.
