 Gaussian 09, Revision D.01,
 Gaussian 09:  ES64L-G09RevD.01 24-Apr-2013

 --------------------
 #p B2PLYPD3/Def2QZVP
 --------------------

 ----------
 butane_opt
 ----------
 Symbolic Z-matrix:
 Charge =  0 Multiplicity = 1

                         Standard orientation:
 ---------------------------------------------------------------------
 Center     Atomic      Atomic             Coordinates (Angstroms)
 Number     Number       Type             X           Y           Z
 ---------------------------------------------------------------------
      1          6           0        1.882242    0.090587   -0.099301
      2          6           0        0.605671   -0.446296    0.118787
      3          1           0        2.605660   -0.716213   -0.016834
      4          1           0        1.913118    0.505574    0.607528
      5          1           0        1.894933    0.628302   -1.045726
      6          6           0       -0.525539    0.618023    0.202220
      7          1           0        0.473162   -1.139238    1.057735
      8          1           0        0.288898   -1.218086   -0.776520
      9          6           0       -1.871970   -0.193959   -0.124419
     10          1           0       -0.269105    1.118898   -0.747880
     11          1           0       -0.513005    1.475005    1.129662
     12          1           0       -1.337984   -0.724515   -0.810555
     13          1           0       -2.725732    0.549755   -0.920933
     14          1           0       -2.872369   -0.889608    0.939803
 ---------------------------------------------------------------------

 SCF Done:  E(RB2PLYPD3) =  -157.843993589     A.U. after   12 cycles
 E2(B2PLYPD3) =    -0.2556651771D+00 E(B2PLYPD3) =    -0.15809965876608D+03

 The electronic state is 1-A.
 Alpha  occ. eigenvalues --  -10.66637 -10.64280 -10.62572 -10.56608  -0.94872
 Alpha  occ. eigenvalues --   -0.85111  -0.70196  -0.65306  -0.56844  -0.51540
 Alpha  occ. eigenvalues --   -0.47921  -0.47107  -0.40420  -0.39497  -0.38470
 Alpha  occ. eigenvalues --   -0.37211  -0.33853
 Alpha virt. eigenvalues --    0.02757   0.05652   0.07014   0.07362   0.08659
 Alpha virt. eigenvalues --    0.10175   0.12370   0.13453   0.14851   0.15604
 Alpha virt. eigenvalues --    0.15709   0.16125   0.17576   0.19143   0.20531

 Mulliken charges:
               1
     1  C   -0.298584
     2  C   -0.019732
     3  H    0.050389
     4  H    0.206219
     5  H    0.056900
     6  C   -0.069831
     7  H    0.028472
     8  H   -0.001898
     9  C   -0.212053
    10  H    0.063958
    11  H    0.029087
    12  H    0.114147
    13  H    0.015896
    14  H    0.037029
 Sum of Mulliken charges =   0.00000

 Dipole moment (field-independent basis, Debye):
    X=              0.8857    Y=              0.1586    Z=             -0.1464  Tot=              0.9116
 Quadrupole moment (field-independent basis, Debye-Ang):
   XX=            -31.6185   YY=            -30.0750   ZZ=            -28.5320
   XY=             -0.2482   XZ=             -0.1145   YZ=             -0.1517

 Normal termination of Gaussian 09 at Wed Aug 26 23:48:58 2020.
