 Gaussian 09, Revision D.01,
 Gaussian 09:  ES64L-G09RevD.01 24-Apr-2013

 --------------------
 #p B2PLYPD3/Def2QZVP
 --------------------

 ----------
 butane_opt
 ----------
 Symbolic Z-matrix:
 Charge =  0 Multiplicity = 1

                         Standard orientation:
 ---------------------------------------------------------------------
 Center     Atomic      Atomic             Coordinates (Angstroms)
 Number     Number       Type             X           Y           Z
 ---------------------------------------------------------------------
      1          6           0       -2.026146   -0.186397   -0.037048
      2          6           0       -0.508059    0.559185    0.152158
      3          1           0       -2.903375    0.747905   -0.677895
      4          1           0       -2.502782   -0.626607    0.798961
      5          1           0       -1.928262   -1.066867   -1.131526
      6          6           0        0.606353   -0.427926    0.215557
      7          1           0       -0.426643    1.417166    1.017609
      8          1           0       -0.518596    1.102704   -0.790537
      9          6           0        1.955324    0.059480   -0.178165
     10          1           0        0.342126   -1.056489   -0.463854
     11          1           0        0.799192   -1.319827    1.267967
     12          1           0        1.706003    0.506611   -1.017744
     13          1           0        2.733051   -0.556857   -0.669849
     14          1           0        2.534456    0.826201    0.751854
 ---------------------------------------------------------------------

 SCF Done:  E(RB2PLYPD3) =  -157.913711665     A.U. after   11 cycles
 E2(B2PLYPD3) =    -0.2544641523D+00 E(B2PLYPD3) =    -0.15816817581751D+03

 The electronic state is 1-A.
 Alpha  occ. eigenvalues --  -10.67631 -10.64599 -10.62320 -10.61436  -0.92318
 Alpha  occ. eigenvalues --   -0.81366  -0.72112  -0.66351  -0.53781  -0.49438
 Alpha  occ. eigenvalues --   -0.48626  -0.45429  -0.41479  -0.38908  -0.37234
 Alpha  occ. eigenvalues --   -0.36485  -0.35329
 Alpha virt. eigenvalues --    0.04201   0.05238   0.06999   0.07458   0.09460
 Alpha virt. eigenvalues --    0.10420   0.11213   0.12434   0.13290   0.14741
 Alpha virt. eigenvalues --    0.15663   0.17072   0.18029   0.18864   0.20401

 Mulliken charges:
               1
     1  C   -0.195107
     2  C   -0.022524
     3  H    0.017640
     4  H    0.105098
     5  H    0.018795
     6  C   -0.063891
     7  H    0.032080
     8  H    0.053226
     9  C   -0.160231
    10  H    0.090133
    11  H   -0.007964
    12  H    0.061297
    13  H    0.046536
    14  H    0.024912
 Sum of Mulliken charges =   0.00000

 Dipole moment (field-independent basis, Debye):
    X=              0.0853    Y=              0.0095    Z=             -0.5940  Tot=              0.6002
 Quadrupole moment (field-independent basis, Debye-Ang):
   XX=            -30.9693   YY=            -30.4048   ZZ=            -28.8932
   XY=             -0.1879   XZ=             -1.0872   YZ=              0.3714

 Normal termination of Gaussian 09 at Wed Aug 26 21:42:03 2020.
