 Gaussian 09, Revision D.01,
 Gaussian 09:  ES64L-G09RevD.01 24-Apr-2013

 --------------------
 #p B2PLYPD3/Def2QZVP
 --------------------

 ----------
 butane_opt
 ----------
 Symbolic Z-matrix:
 Charge =  0 Multiplicity = 1

                         Standard orientation:
 ---------------------------------------------------------------------
 Center     Atomic      Atomic             Coordinates (Angstroms)
 Number     Number       Type             X           Y           Z
 ---------------------------------------------------------------------
      1          6           0       -1.903912    0.049794   -0.086104
      2          6           0       -0.606504   -0.440472    0.083369
      3          1           0       -2.671758   -1.002109   -0.036031
      4          1           0       -2.009886    0.747445   -0.957606
      5          1           0       -2.147548    0.597255    0.703104
      6          6           0        0.520055    0.602123    0.144717
      7          1           0       -0.044221   -1.234227   -0.769760
      8          1           0       -0.601301   -1.003827    0.857287
      9          6           0        1.935680   -0.177313   -0.064822
     10          1           0        0.424149    1.491977    1.170344
     11          1           0        0.408429    1.358985   -0.751097
     12          1           0        2.903875   -0.977092    0.999903
     13          1           0        2.623924    0.431238   -0.913867
     14          1           0        1.442421   -0.614435   -0.765237
 ---------------------------------------------------------------------

 SCF Done:  E(RB2PLYPD3) =  -157.855410003     A.U. after   11 cycles
 E2(B2PLYPD3) =    -0.2571555347D+00 E(B2PLYPD3) =    -0.15811256553741D+03

 The electronic state is 1-A.
 Alpha  occ. eigenvalues --  -10.66093 -10.65258 -10.61242 -10.61013  -0.93614
 Alpha  occ. eigenvalues --   -0.84557  -0.71534  -0.66156  -0.54271  -0.50484
 Alpha  occ. eigenvalues --   -0.47525  -0.45529  -0.42426  -0.38623  -0.37394
 Alpha  occ. eigenvalues --   -0.36225  -0.34658
 Alpha virt. eigenvalues --    0.01715   0.05056   0.06380   0.06972   0.09410
 Alpha virt. eigenvalues --    0.10677   0.11568   0.12717   0.14581   0.15044
 Alpha virt. eigenvalues --    0.15722   0.16758   0.17393   0.18588   0.19851

 Mulliken charges:
               1
     1  C   -0.160727
     2  C   -0.005615
     3  H    0.030243
     4  H    0.044187
     5  H    0.078127
     6  C   -0.062813
     7  H   -0.014173
     8  H    0.074117
     9  C   -0.238719
    10  H   -0.002168
    11  H    0.041210
    12  H    0.056815
    13  H    0.029165
    14  H    0.130352
 Sum of Mulliken charges =   0.00000

 Dipole moment (field-independent basis, Debye):
    X=             -0.4850    Y=              0.0315    Z=             -0.1464  Tot=              0.5076
 Quadrupole moment (field-independent basis, Debye-Ang):
   XX=            -31.4421   YY=            -29.8709   ZZ=            -29.1585
   XY=             -0.7729   XZ=             -1.0738   YZ=             -1.2788

 Normal termination of Gaussian 09 at Wed Aug 26 11:33:20 2020.
