 Gaussian 09, Revision D.01,
 Gaussian 09:  ES64L-G09RevD.01 24-Apr-2013

 --------------------
 #p B2PLYPD3/Def2QZVP
 --------------------

 ----------
 butane_opt
 ----------
 Symbolic Z-matrix:
 Charge =  0 Multiplicity = 1

                         Standard orientation:
 ---------------------------------------------------------------------
 Center     Atomic      Atomic             Coordinates (Angstroms)
 Number     Number       Type             X           Y           Z
 ---------------------------------------------------------------------
      1          6           0       -1.920308   -0.115338   -0.084731
      2          6           0       -0.427716    0.534907   -0.009339
      3          1           0       -2.601058    0.693561   -0.422939
      4          1           0       -2.448819   -0.684546    0.917673
      5          1           0       -1.942205   -0.999449   -0.990639
      6          6           0        0.561942   -0.447209    0.229179
      7          1           0       -0.629659    1.417670    0.859871
      8          1           0       -0.287046    0.859886   -0.714653
      9          6           0        1.887022    0.042380   -0.104550
     10          1           0        0.524404   -0.952928   -0.358729
     11          1           0        0.374572   -1.254513    1.256557
     12          1           0        1.541217    0.439240   -0.811494
     13          1           0        2.581657   -0.683377   -0.820520
     14          1           0        2.281301    1.076019    0.901513
 ---------------------------------------------------------------------

 SCF Done:  E(RB2PLYPD3) =  -157.670635294     A.U. after   11 cycles
 E2(B2PLYPD3) =    -0.2527651339D+00 E(B2PLYPD3) =    -0.15792340042809D+03

 The electronic state is 1-A.
 Alpha  occ. eigenvalues --  -10.64456 -10.62523 -10.60031 -10.58741  -0.99166
 Alpha  occ. eigenvalues --   -0.84770  -0.72824  -0.71284  -0.57073  -0.50637
 Alpha  occ. eigenvalues --   -0.49750  -0.45491  -0.42251  -0.39580  -0.38194
 Alpha  occ. eigenvalues --   -0.37551  -0.35534
 Alpha virt. eigenvalues --    0.03749   0.05462   0.07709   0.08107   0.09894
 Alpha virt. eigenvalues --    0.10888   0.11935   0.12097   0.13136   0.14734
 Alpha virt. eigenvalues --    0.16351   0.17693   0.17872   0.19681   0.20455

 Mulliken charges:
               1
     1  C   -0.165882
     2  C   -0.250955
     3  H    0.059466
     4  H    0.051789
     5  H    0.010875
     6  C   -0.339954
     7  H    0.023092
     8  H    0.271246
     9  C   -0.268817
    10  H    0.358643
    11  H    0.015165
    12  H    0.171249
    13  H    0.042138
    14  H    0.021945
 Sum of Mulliken charges =   0.00000

 Dipole moment (field-independent basis, Debye):
    X=             -0.3689    Y=              0.0667    Z=             -0.9856  Tot=              1.0545
 Quadrupole moment (field-independent basis, Debye-Ang):
   XX=            -31.8696   YY=            -29.3953   ZZ=            -28.3309
   XY=             -0.9270   XZ=             -1.7220   YZ=              0.5496

 Normal termination of Gaussian 09 at Wed Aug 26 19:00:06 2020.
