 Gaussian 09, Revision D.01,
 Gaussian 09:  ES64L-G09RevD.01 24-Apr-2013

 --------------------
 #p B2PLYPD3/Def2QZVP
 --------------------

 ----------
 butane_opt
 ----------
 Symbolic Z-matrix:
 Charge =  0 Multiplicity = 1

                         Standard orientation:
 ---------------------------------------------------------------------
 Center     Atomic      Atomic             Coordinates (Angstroms)
 Number     Number       Type             X           Y           Z
 ---------------------------------------------------------------------
      1          6           0        1.972882    0.112151   -0.118742
      2          6           0        0.623732   -0.451290    0.071412
      3          1           0        2.846680   -0.925264    0.107350
      4          1           0        1.927427    0.302051    0.597455
      5          1           0        1.941197    1.127560   -1.255496
      6          6           0       -0.554689    0.624169    0.180063
      7          1           0        0.923031   -1.138828    1.098777
      8          1           0        0.450680   -1.172507   -0.766013
      9          6           0       -2.001995   -0.205909   -0.193809
     10          1           0       -0.327408    0.965961   -0.353088
     11          1           0       -0.577368    1.572719    1.199967
     12          1           0       -2.084576   -0.602290   -0.950452
     13          1           0       -2.814343    0.514033   -0.185134
     14          1           0       -2.524905   -1.118165    0.873095
 ---------------------------------------------------------------------

 SCF Done:  E(RB2PLYPD3) =  -157.368704002     A.U. after   12 cycles
 E2(B2PLYPD3) =    -0.2561339128D+00 E(B2PLYPD3) =    -0.15762483791444D+03

 The electronic state is 1-A.
 Alpha  occ. eigenvalues --  -10.63849 -10.62989 -10.62893 -10.62376  -0.95315
 Alpha  occ. eigenvalues --   -0.87273  -0.78713  -0.67459  -0.53794  -0.50603
 Alpha  occ. eigenvalues --   -0.46916  -0.46345  -0.43125  -0.38503  -0.37509
 Alpha  occ. eigenvalues --   -0.37395  -0.34695
 Alpha virt. eigenvalues --    0.02915   0.04410   0.05955   0.06648   0.09776
 Alpha virt. eigenvalues --    0.10362   0.11541   0.12262   0.13526   0.14338
 Alpha virt. eigenvalues --    0.15082   0.16524   0.17513   0.18927   0.20517

 Mulliken charges:
               1
     1  C   -0.559635
     2  C    0.020846
     3  H    0.039003
     4  H    0.453639
     5  H    0.022886
     6  C   -0.672003
     7  H    0.002308
     8  H    0.048997
     9  C   -0.209625
    10  H    0.591855
    11  H    0.047546
    12  H    0.155537
    13  H    0.047881
    14  H    0.010764
 Sum of Mulliken charges =   0.00000

 Dipole moment (field-independent basis, Debye):
    X=             -0.3339    Y=              0.2719    Z=             -0.3290  Tot=              0.5419
 Quadrupole moment (field-independent basis, Debye-Ang):
   XX=            -31.4632   YY=            -29.3445   ZZ=            -28.6336
   XY=             -1.3982   XZ=              2.0970   YZ=              0.0157

 Normal termination of Gaussian 09 at Wed Aug 26 23:09:12 2020.
