 Gaussian 09, Revision D.01,
 Gaussian 09:  ES64L-G09RevD.01 24-Apr-2013

 --------------------
 #p B2PLYPD3/Def2QZVP
 --------------------

 ----------
 butane_opt
 ----------
 Symbolic Z-matrix:
 Charge =  0 Multiplicity = 1

                         Standard orientation:
 ---------------------------------------------------------------------
 Center     Atomic      Atomic             Coordinates (Angstroms)
 Number     Number       Type             X           Y           Z
 ---------------------------------------------------------------------
      1          6           0        2.009941    0.152749   -0.143159
      2          6           0        0.465418   -0.614797    0.157395
      3          1           0        2.602609   -0.492334    0.175496
      4          1           0        1.948064    0.289112    0.418091
      5          1           0        2.152274    1.135423   -1.288738
      6          6           0       -0.617984    0.465105    0.231701
      7          1           0        0.553904   -1.238126    0.863771
      8          1           0       -0.034870   -1.078276   -0.740399
      9          6           0       -1.847806   -0.051988   -0.172802
     10          1           0       -0.267471    0.871847   -0.347154
     11          1           0       -0.564946    1.589211    1.394821
     12          1           0       -1.795477   -0.690152   -0.992806
     13          1           0       -2.588781    0.674284   -0.574358
     14          1           0       -2.062717   -0.767407    0.652466
 ---------------------------------------------------------------------

 SCF Done:  E(RB2PLYPD3) =  -157.207528766     A.U. after   12 cycles
 E2(B2PLYPD3) =    -0.2542281788D+00 E(B2PLYPD3) =    -0.15746175694480D+03

 The electronic state is 1-A.
 Alpha  occ. eigenvalues --  -10.61565 -10.60389 -10.60218 -10.59558  -0.96805
 Alpha  occ. eigenvalues --   -0.91906  -0.77731  -0.70918  -0.55411  -0.52918
 Alpha  occ. eigenvalues --   -0.50107  -0.46170  -0.44729  -0.41175  -0.38653
 Alpha  occ. eigenvalues --   -0.35761  -0.33673
 Alpha virt. eigenvalues --    0.03858   0.04473   0.06184   0.07611   0.09933
 Alpha virt. eigenvalues --    0.11658   0.11969   0.13025   0.14641   0.15283
 Alpha virt. eigenvalues --    0.15914   0.16779   0.18340   0.18865   0.20125

 Mulliken charges:
               1
     1  C   -0.879797
     2  C   -0.076657
     3  H    0.050844
     4  H    0.735659
     5  H    0.079367
     6  C   -0.319230
     7  H    0.067432
     8  H    0.043041
     9  C   -0.131818
    10  H    0.317313
    11  H   -0.044175
    12  H    0.046155
    13  H    0.050220
    14  H    0.061648
 Sum of Mulliken charges =   0.00000

 Dipole moment (field-independent basis, Debye):
    X=              0.0948    Y=             -0.5181    Z=             -0.5463  Tot=              0.7589
 Quadrupole moment (field-independent basis, Debye-Ang):
   XX=            -29.4572   YY=            -29.1021   ZZ=            -28.1323
   XY=              0.5280   XZ=              2.1804   YZ=             -2.3016

 Normal termination of Gaussian 09 at Wed Aug 26 12:45:59 2020.
