 Gaussian 09, Revision D.01,
 Gaussian 09:  ES64L-G09RevD.01 24-Apr-2013

 --------------------
 #p B2PLYPD3/Def2QZVP
 --------------------

 ----------
 butane_opt
 ----------
 Symbolic Z-matrix:
 Charge =  0 Multiplicity = 1

                         Standard orientation:
 ---------------------------------------------------------------------
 Center     Atomic      Atomic             Coordinates (Angstroms)
 Number     Number       Type             X           Y           Z
 ---------------------------------------------------------------------
      1          6           0        1.998174    0.045179   -0.103939
      2          6           0        0.619935   -0.407414    0.197307
      3          1           0        2.974014   -0.823816   -0.228195
      4          1           0        2.289444    0.535714    0.572747
      5          1           0        1.704879    0.779992   -1.160906
      6          6           0       -0.520140    0.608463    0.131069
      7          1           0        0.602413   -1.016451    1.030238
      8          1           0        0.325255   -1.221959   -0.768790
      9          6           0       -2.023321   -0.203160   -0.107682
     10          1           0       -0.477022    1.091464   -0.597885
     11          1           0       -0.491335    1.625899    1.032647
     12          1           0       -1.799267   -0.773914   -0.843990
     13          1           0       -2.807862    0.599776   -0.593566
     14          1           0       -2.768413   -1.055117    0.857174
 ---------------------------------------------------------------------

 SCF Done:  E(RB2PLYPD3) =  -157.840173488     A.U. after   11 cycles
 E2(B2PLYPD3) =    -0.2534094755D+00 E(B2PLYPD3) =    -0.15809358296374D+03

 The electronic state is 1-A.
 Alpha  occ. eigenvalues --  -10.65005 -10.63524 -10.62688 -10.62417  -0.91793
 Alpha  occ. eigenvalues --   -0.83202  -0.73547  -0.68527  -0.54055  -0.49539
 Alpha  occ. eigenvalues --   -0.47600  -0.45773  -0.42005  -0.38451  -0.38162
 Alpha  occ. eigenvalues --   -0.37882  -0.35255
 Alpha virt. eigenvalues --    0.04312   0.04575   0.06558   0.08377   0.09665
 Alpha virt. eigenvalues --    0.10146   0.11518   0.12601   0.14272   0.14883
 Alpha virt. eigenvalues --    0.15611   0.16026   0.17629   0.19004   0.20325

 Mulliken charges:
               1
     1  C   -0.215669
     2  C    0.000241
     3  H    0.040791
     4  H    0.127843
     5  H    0.017641
     6  C   -0.159251
     7  H    0.059165
     8  H   -0.008331
     9  C   -0.210545
    10  H    0.162397
    11  H    0.000826
    12  H    0.118893
    13  H    0.034728
    14  H    0.031269
 Sum of Mulliken charges =   0.00000

 Dipole moment (field-independent basis, Debye):
    X=              0.3317    Y=              0.0628    Z=             -0.2005  Tot=              0.3926
 Quadrupole moment (field-independent basis, Debye-Ang):
   XX=            -30.4738   YY=            -29.5954   ZZ=            -29.4898
   XY=             -0.4150   XZ=              2.2207   YZ=             -0.6096

 Normal termination of Gaussian 09 at Wed Aug 26 23:03:07 2020.
