 Gaussian 09, Revision D.01,
 Gaussian 09:  ES64L-G09RevD.01 24-Apr-2013

 --------------------
 #p B2PLYPD3/Def2QZVP
 --------------------

 ----------
 butane_opt
 ----------
 Symbolic Z-matrix:
 Charge =  0 Multiplicity = 1

                         Standard orientation:
 ---------------------------------------------------------------------
 Center     Atomic      Atomic             Coordinates (Angstroms)
 Number     Number       Type             X           Y           Z
 ---------------------------------------------------------------------
      1          6           0       -1.919200   -0.159377    0.055843
      2          6           0       -0.509733    0.578387   -0.110957
      3          1           0       -2.565932    0.359572    0.951610
      4          1           0       -1.952920   -0.307272    0.773356
      5          1           0       -2.760898   -1.067717   -1.123019
      6          6           0        0.579234   -0.474166   -0.108028
      7          1           0       -0.393996    1.015346    0.565720
      8          1           0       -0.449100    1.375636   -1.010575
      9          6           0        1.884609    0.068623    0.044427
     10          1           0        0.561135   -0.768209   -0.726645
     11          1           0        0.719049   -1.345492    0.845985
     12          1           0        2.111254    0.726028   -0.739383
     13          1           0        2.760200   -0.816345    0.087473
     14          1           0        1.761741    0.747651    1.087766
 ---------------------------------------------------------------------

 SCF Done:  E(RB2PLYPD3) =  -157.328859629     A.U. after   13 cycles
 E2(B2PLYPD3) =    -0.2557059592D+00 E(B2PLYPD3) =    -0.15758456558864D+03

 The electronic state is 1-A.
 Alpha  occ. eigenvalues --  -10.62879 -10.61885 -10.60645 -10.57605  -0.96717
 Alpha  occ. eigenvalues --   -0.90880  -0.78874  -0.72147  -0.56361  -0.51271
 Alpha  occ. eigenvalues --   -0.50063  -0.46477  -0.41282  -0.39608  -0.37513
 Alpha  occ. eigenvalues --   -0.36350  -0.31682
 Alpha virt. eigenvalues --    0.00733   0.04882   0.06124   0.07086   0.10243
 Alpha virt. eigenvalues --    0.10606   0.11792   0.12332   0.14313   0.15176
 Alpha virt. eigenvalues --    0.16662   0.17179   0.18004   0.19238   0.20289

 Mulliken charges:
               1
     1  C   -0.605185
     2  C   -0.226686
     3  H    0.033763
     4  H    0.468820
     5  H    0.061327
     6  C   -0.513550
     7  H    0.251673
     8  H    0.039619
     9  C   -0.122696
    10  H    0.458159
    11  H    0.033656
    12  H    0.053573
    13  H    0.043753
    14  H    0.023774
 Sum of Mulliken charges =   0.00000

 Dipole moment (field-independent basis, Debye):
    X=              0.1997    Y=             -0.0338    Z=              0.3412  Tot=              0.3968
 Quadrupole moment (field-independent basis, Debye-Ang):
   XX=            -31.6599   YY=            -29.8324   ZZ=            -26.9136
   XY=              0.3204   XZ=             -1.9060   YZ=              0.6584

 Normal termination of Gaussian 09 at Wed Aug 26 09:43:07 2020.
