 Gaussian 09, Revision D.01,
 Gaussian 09:  ES64L-G09RevD.01 24-Apr-2013

 --------------------
 #p B2PLYPD3/Def2QZVP
 --------------------

 ----------
 butane_opt
 ----------
 Symbolic Z-matrix:
 Charge =  0 Multiplicity = 1

                         Standard orientation:
 ---------------------------------------------------------------------
 Center     Atomic      Atomic             Coordinates (Angstroms)
 Number     Number       Type             X           Y           Z
 ---------------------------------------------------------------------
      1          6           0        1.845983    0.061822   -0.158992
      2          6           0        0.563782   -0.400000    0.146689
      3          1           0        2.755054   -1.019848   -0.184992
      4          1           0        2.420312    0.644972    0.578059
      5          1           0        1.661191    0.706675   -1.248205
      6          6           0       -0.453822    0.612234    0.150204
      7          1           0        0.544431   -1.059039    1.229599
      8          1           0        0.480378   -0.920808   -0.496091
      9          6           0       -1.996271   -0.233244   -0.145591
     10          1           0       -0.137787    0.773102   -0.449681
     11          1           0       -0.520837    1.574394    1.229808
     12          1           0       -1.693464   -0.630126   -0.836181
     13          1           0       -2.873376    0.536768   -0.795178
     14          1           0       -2.393933   -0.850968    1.019003
 ---------------------------------------------------------------------

 SCF Done:  E(RB2PLYPD3) =  -157.502835779     A.U. after   11 cycles
 E2(B2PLYPD3) =    -0.2560324644D+00 E(B2PLYPD3) =    -0.15775886824388D+03

 The electronic state is 1-A.
 Alpha  occ. eigenvalues --  -10.64974 -10.64503 -10.61200 -10.59256  -1.00238
 Alpha  occ. eigenvalues --   -0.83857  -0.77076  -0.68921  -0.57004  -0.49110
 Alpha  occ. eigenvalues --   -0.48712  -0.46055  -0.43089  -0.39903  -0.37585
 Alpha  occ. eigenvalues --   -0.35555  -0.34445
 Alpha virt. eigenvalues --    0.03836   0.04784   0.06494   0.07661   0.09688
 Alpha virt. eigenvalues --    0.10314   0.10769   0.12411   0.13393   0.15159
 Alpha virt. eigenvalues --    0.15673   0.16248   0.17470   0.18345   0.20414

 Mulliken charges:
               1
     1  C   -0.168676
     2  C   -0.158700
     3  H    0.016540
     4  H    0.061997
     5  H    0.032808
     6  C   -0.582977
     7  H    0.007746
     8  H    0.214501
     9  C   -0.316562
    10  H    0.543269
    11  H    0.033519
    12  H    0.208189
    13  H    0.031600
    14  H    0.076745
 Sum of Mulliken charges =   0.00000

 Dipole moment (field-independent basis, Debye):
    X=              0.1805    Y=             -0.2250    Z=             -0.2823  Tot=              0.4036
 Quadrupole moment (field-independent basis, Debye-Ang):
   XX=            -31.3859   YY=            -30.4554   ZZ=            -28.0881
   XY=              0.5124   XZ=              0.7118   YZ=              0.0029

 Normal termination of Gaussian 09 at Wed Aug 26 10:14:42 2020.
