 Gaussian 09, Revision D.01,
 Gaussian 09:  ES64L-G09RevD.01 24-Apr-2013

 --------------------
 #p B2PLYPD3/Def2QZVP
 --------------------

 ----------
 butane_opt
 ----------
 Symbolic Z-matrix:
 Charge =  0 Multiplicity = 1

                         Standard orientation:
 ---------------------------------------------------------------------
 Center     Atomic      Atomic             Coordinates (Angstroms)
 Number     Number       Type             X           Y           Z
 ---------------------------------------------------------------------
      1          6           0        1.933020    0.054457   -0.021615
      2          6           0        0.577426   -0.502305   -0.001210
      3          1           0        2.767144   -0.593335    0.305166
      4          1           0        1.745020    0.475309    0.620770
      5          1           0        2.486374    0.961442   -1.084666
      6          6           0       -0.529413    0.630482    0.057476
      7          1           0        0.616607   -1.223513    0.948061
      8          1           0        0.666929   -1.366684   -0.853964
      9          6           0       -2.010096   -0.193734   -0.061577
     10          1           0       -0.534544    1.126014   -0.675981
     11          1           0       -0.159621    1.515140    1.112175
     12          1           0       -2.085779   -0.614098   -0.775368
     13          1           0       -2.789243    0.466108   -0.331307
     14          1           0       -2.538514   -0.679777    0.896668
 ---------------------------------------------------------------------

 SCF Done:  E(RB2PLYPD3) =  -157.729554257     A.U. after   11 cycles
 E2(B2PLYPD3) =    -0.2522412832D+00 E(B2PLYPD3) =    -0.15798179553994D+03

 The electronic state is 1-A.
 Alpha  occ. eigenvalues --  -10.64552 -10.63789 -10.59410 -10.59361  -0.93153
 Alpha  occ. eigenvalues --   -0.86273  -0.76594  -0.67158  -0.54213  -0.51178
 Alpha  occ. eigenvalues --   -0.48633  -0.46540  -0.41873  -0.40925  -0.38010
 Alpha  occ. eigenvalues --   -0.37292  -0.34487
 Alpha virt. eigenvalues --    0.04783   0.05697   0.06455   0.07192   0.10294
 Alpha virt. eigenvalues --    0.11216   0.12447   0.13655   0.14248   0.15128
 Alpha virt. eigenvalues --    0.15738   0.16626   0.18077   0.19030   0.20924

 Mulliken charges:
               1
     1  C   -0.400051
     2  C   -0.011947
     3  H    0.056672
     4  H    0.297176
     5  H   -0.004461
     6  C   -0.148917
     7  H    0.031807
     8  H    0.011967
     9  C   -0.248898
    10  H    0.148573
    11  H    0.018776
    12  H    0.173946
    13  H    0.020913
    14  H    0.054444
 Sum of Mulliken charges =   0.00000

 Dipole moment (field-independent basis, Debye):
    X=             -0.4542    Y=             -0.1379    Z=              0.0969  Tot=              0.4845
 Quadrupole moment (field-independent basis, Debye-Ang):
   XX=            -29.2256   YY=            -29.3790   ZZ=            -28.6624
   XY=             -0.7613   XZ=              1.7859   YZ=             -0.4458

 Normal termination of Gaussian 09 at Wed Aug 26 20:57:47 2020.
