 Gaussian 09, Revision D.01,
 Gaussian 09:  ES64L-G09RevD.01 24-Apr-2013

 --------------------
 #p B2PLYPD3/Def2QZVP
 --------------------

 ----------
 butane_opt
 ----------
 Symbolic Z-matrix:
 Charge =  0 Multiplicity = 1

                         Standard orientation:
 ---------------------------------------------------------------------
 Center     Atomic      Atomic             Coordinates (Angstroms)
 Number     Number       Type             X           Y           Z
 ---------------------------------------------------------------------
      1          6           0        1.895039    0.076952   -0.249615
      2          6           0        0.576685   -0.454741    0.248717
      3          1           0        2.628627   -0.712613   -0.179091
      4          1           0        1.969356    0.780881    0.661343
      5          1           0        1.936666    0.427708   -1.053435
      6          6           0       -0.542807    0.623314    0.193995
      7          1           0        0.420635   -1.193579    1.369440
      8          1           0        0.154256   -0.955496   -0.252344
      9          6           0       -1.876982   -0.182629   -0.228556
     10          1           0       -0.238399    0.900163   -0.511279
     11          1           0       -0.630974    1.533862    1.076719
     12          1           0       -1.450312   -0.778669   -1.037805
     13          1           0       -2.622838    0.413071   -0.722556
     14          1           0       -2.478625   -0.792699    0.861759
 ---------------------------------------------------------------------

 SCF Done:  E(RB2PLYPD3) =  -157.795027799     A.U. after   11 cycles
 E2(B2PLYPD3) =    -0.2506715651D+00 E(B2PLYPD3) =    -0.15804569936401D+03

 The electronic state is 1-A.
 Alpha  occ. eigenvalues --  -10.63440 -10.59998 -10.59867 -10.58697  -0.95059
 Alpha  occ. eigenvalues --   -0.84032  -0.74422  -0.70408  -0.56590  -0.51599
 Alpha  occ. eigenvalues --   -0.49100  -0.47391  -0.41310  -0.40327  -0.38943
 Alpha  occ. eigenvalues --   -0.37192  -0.35765
 Alpha virt. eigenvalues --    0.04765   0.06683   0.08018   0.08273   0.11069
 Alpha virt. eigenvalues --    0.11511   0.12211   0.13003   0.14471   0.15686
 Alpha virt. eigenvalues --    0.16236   0.16702   0.18512   0.18943   0.20698

 Mulliken charges:
               1
     1  C   -0.191608
     2  C   -0.235730
     3  H    0.050771
     4  H    0.066409
     5  H    0.085919
     6  C   -0.314327
     7  H    0.003416
     8  H    0.221196
     9  C   -0.168486
    10  H    0.300078
    11  H    0.032303
    12  H    0.060227
    13  H    0.055824
    14  H    0.034008
 Sum of Mulliken charges =   0.00000

 Dipole moment (field-independent basis, Debye):
    X=              0.1264    Y=              0.1582    Z=             -0.8798  Tot=              0.9028
 Quadrupole moment (field-independent basis, Debye-Ang):
   XX=            -29.9919   YY=            -29.7732   ZZ=            -27.8993
   XY=             -0.5922   XZ=             -0.6141   YZ=              0.1809

 Normal termination of Gaussian 09 at Wed Aug 26 23:47:44 2020.
