 Gaussian 09, Revision D.01,
 Gaussian 09:  ES64L-G09RevD.01 24-Apr-2013

 --------------------
 #p B2PLYPD3/Def2QZVP
 --------------------

 ----------
 butane_opt
 ----------
 Symbolic Z-matrix:
 Charge =  0 Multiplicity = 1

                         Standard orientation:
 ---------------------------------------------------------------------
 Center     Atomic      Atomic             Coordinates (Angstroms)
 Number     Number       Type             X           Y           Z
 ---------------------------------------------------------------------
      1          6           0        1.931783    0.035506   -0.169138
      2          6           0        0.648143   -0.528067    0.171762
      3          1           0        2.726488   -0.661492   -0.518051
      4          1           0        2.350794    0.800138    0.762787
      5          1           0        1.763977    0.475309   -0.906787
      6          6           0       -0.482308    0.624456    0.090481
      7          1           0        0.420583   -1.424908    1.403492
      8          1           0        0.514023   -0.630192   -0.313528
      9          6           0       -2.023570   -0.195085   -0.129686
     10          1           0       -0.284286    1.271096   -0.673148
     11          1           0       -0.335811    1.475385    0.989589
     12          1           0       -2.190768   -0.933256   -1.085451
     13          1           0       -2.793308    0.458920    0.006143
     14          1           0       -2.615977   -0.451858    0.554440
 ---------------------------------------------------------------------

 SCF Done:  E(RB2PLYPD3) =  -157.003429271     A.U. after   12 cycles
 E2(B2PLYPD3) =    -0.2538772427D+00 E(B2PLYPD3) =    -0.15725730651375D+03

 The electronic state is 1-A.
 Alpha  occ. eigenvalues --  -10.64689 -10.63589 -10.60531 -10.59563  -0.98291
 Alpha  occ. eigenvalues --   -0.85487  -0.77806  -0.72025  -0.54876  -0.50425
 Alpha  occ. eigenvalues --   -0.48540  -0.46907  -0.41609  -0.40399  -0.38332
 Alpha  occ. eigenvalues --   -0.36444  -0.34316
 Alpha virt. eigenvalues --    0.04629   0.06147   0.06270   0.08420   0.10804
 Alpha virt. eigenvalues --    0.11182   0.11747   0.13518   0.14494   0.15422
 Alpha virt. eigenvalues --    0.15977   0.16658   0.17945   0.19257   0.20467

 Mulliken charges:
               1
     1  C   -0.131899
     2  C   -1.081662
     3  H    0.047503
     4  H    0.032373
     5  H    0.127021
     6  C   -0.046023
     7  H    0.036729
     8  H    0.961365
     9  C   -0.205922
    10  H    0.069281
    11  H    0.015883
    12  H    0.041125
    13  H    0.055661
    14  H    0.078565
 Sum of Mulliken charges =   0.00000

 Dipole moment (field-independent basis, Debye):
    X=             -0.3848    Y=              0.2944    Z=             -0.4519  Tot=              0.6625
 Quadrupole moment (field-independent basis, Debye-Ang):
   XX=            -27.4460   YY=            -29.4243   ZZ=            -28.1172
   XY=              0.1137   XZ=             -1.7856   YZ=              0.5882

 Normal termination of Gaussian 09 at Wed Aug 26 14:59:32 2020.
