 Gaussian 09, Revision D.01,
 Gaussian 09:  ES64L-G09RevD.01 24-Apr-2013

 --------------------
 #p B2PLYPD3/Def2QZVP
 --------------------

 ----------
 butane_opt
 ----------
 Symbolic Z-matrix:
 Charge =  0 Multiplicity = 1

                         Standard orientation:
 ---------------------------------------------------------------------
 Center     Atomic      Atomic             Coordinates (Angstroms)
 Number     Number       Type             X           Y           Z
 ---------------------------------------------------------------------
      1          6           0       -1.904336    0.101198    0.048508
      2          6           0       -0.512934   -0.571725   -0.089656
      3          1           0       -2.531027   -0.452438   -0.648052
      4          1           0       -1.924767    0.092063   -0.512458
      5          1           0       -2.532538    1.646774    1.407363
      6          6           0        0.598259    0.454258   -0.146426
      7          1           0       -0.158753   -1.120575   -0.851188
      8          1           0       -0.506919   -1.272313    0.894081
      9          6           0        1.825622   -0.078969    0.149583
     10          1           0        0.510712    0.852986    0.570356
     11          1           0        0.560797    1.216224   -1.188369
     12          1           0        1.882258   -0.981339    1.229686
     13          1           0        2.612312    0.942784   -0.246191
     14          1           0        2.048265   -0.352739   -0.427277
 ---------------------------------------------------------------------

 SCF Done:  E(RB2PLYPD3) =  -156.671965012     A.U. after   15 cycles
 E2(B2PLYPD3) =    -0.2666773838D+00 E(B2PLYPD3) =    -0.15693864239559D+03

 The electronic state is 1-A.
 Alpha  occ. eigenvalues --  -10.63998 -10.62042 -10.60039 -10.58044  -1.02243
 Alpha  occ. eigenvalues --   -0.96192  -0.80838  -0.71972  -0.55717  -0.53049
 Alpha  occ. eigenvalues --   -0.47697  -0.43801  -0.41027  -0.39268  -0.35965
 Alpha  occ. eigenvalues --   -0.34391  -0.31097
 Alpha virt. eigenvalues --   -0.07531   0.04305   0.04982   0.05702   0.09875
 Alpha virt. eigenvalues --    0.10274   0.11707   0.12397   0.13240   0.15083
 Alpha virt. eigenvalues --    0.15951   0.17318   0.18018   0.18866   0.20143

 Mulliken charges:
               1
     1  C   -0.972199
     2  C   -0.073167
     3  H    0.025374
     4  H    0.863910
     5  H    0.056830
     6  C   -0.209137
     7  H    0.076197
     8  H    0.025610
     9  C   -0.654259
    10  H    0.263149
    11  H    0.022775
    12  H    0.069157
    13  H    0.009846
    14  H    0.495914
 Sum of Mulliken charges =   0.00000

 Dipole moment (field-independent basis, Debye):
    X=             -0.0818    Y=             -0.1117    Z=             -1.2383  Tot=              1.2460
 Quadrupole moment (field-independent basis, Debye-Ang):
   XX=            -32.2982   YY=            -29.3079   ZZ=            -26.8519
   XY=             -1.7301   XZ=              0.7475   YZ=              0.9339

 Normal termination of Gaussian 09 at Wed Aug 26 21:02:27 2020.
