 Gaussian 09, Revision D.01,
 Gaussian 09:  ES64L-G09RevD.01 24-Apr-2013

 --------------------
 #p B2PLYPD3/Def2QZVP
 --------------------

 ----------
 butane_opt
 ----------
 Symbolic Z-matrix:
 Charge =  0 Multiplicity = 1

                         Standard orientation:
 ---------------------------------------------------------------------
 Center     Atomic      Atomic             Coordinates (Angstroms)
 Number     Number       Type             X           Y           Z
 ---------------------------------------------------------------------
      1          6           0       -2.051191   -0.134470   -0.004111
      2          6           0       -0.524148    0.558223    0.103803
      3          1           0       -2.718594    0.505604   -0.821207
      4          1           0       -2.604944   -0.930953    0.960254
      5          1           0       -1.972467   -0.510680   -0.709877
      6          6           0        0.621200   -0.444245    0.049033
      7          1           0       -0.266829    1.147680    0.993158
      8          1           0       -0.058753    1.274098   -0.770925
      9          6           0        1.933811    0.061998   -0.022932
     10          1           0        0.600875   -1.306841   -0.991862
     11          1           0        0.593004   -1.098384    1.022896
     12          1           0        1.583331    0.698328   -0.846385
     13          1           0        2.652247   -0.722321   -0.502212
     14          1           0        2.314090    0.694433    0.911401
 ---------------------------------------------------------------------

 SCF Done:  E(RB2PLYPD3) =  -157.837549289     A.U. after   11 cycles
 E2(B2PLYPD3) =    -0.2554051290D+00 E(B2PLYPD3) =    -0.15809295441827D+03

 The electronic state is 1-A.
 Alpha  occ. eigenvalues --  -10.64214 -10.63323 -10.62659 -10.61358  -0.93009
 Alpha  occ. eigenvalues --   -0.85518  -0.75018  -0.62960  -0.54493  -0.50176
 Alpha  occ. eigenvalues --   -0.47233  -0.46531  -0.41514  -0.40140  -0.37893
 Alpha  occ. eigenvalues --   -0.35659  -0.34527
 Alpha virt. eigenvalues --    0.04510   0.05131   0.07015   0.07541   0.10051
 Alpha virt. eigenvalues --    0.10742   0.11849   0.12726   0.13989   0.15073
 Alpha virt. eigenvalues --    0.15720   0.17627   0.18127   0.18710   0.19394

 Mulliken charges:
               1
     1  C   -0.411478
     2  C   -0.047448
     3  H    0.026977
     4  H    0.078404
     5  H    0.311576
     6  C   -0.022755
     7  H    0.053163
     8  H    0.009871
     9  C   -0.143251
    10  H   -0.005727
    11  H    0.010911
    12  H    0.031845
    13  H    0.064080
    14  H    0.043830
 Sum of Mulliken charges =   0.00000

 Dipole moment (field-independent basis, Debye):
    X=              0.0832    Y=             -0.2800    Z=             -0.1760  Tot=              0.3410
 Quadrupole moment (field-independent basis, Debye-Ang):
   XX=            -30.4550   YY=            -30.6812   ZZ=            -28.1354
   XY=              1.1128   XZ=              0.9479   YZ=              0.1222

 Normal termination of Gaussian 09 at Wed Aug 26 10:36:50 2020.
