 Gaussian 09, Revision D.01,
 Gaussian 09:  ES64L-G09RevD.01 24-Apr-2013

 --------------------
 #p B2PLYPD3/Def2QZVP
 --------------------

 ----------
 butane_opt
 ----------
 Symbolic Z-matrix:
 Charge =  0 Multiplicity = 1

                         Standard orientation:
 ---------------------------------------------------------------------
 Center     Atomic      Atomic             Coordinates (Angstroms)
 Number     Number       Type             X           Y           Z
 ---------------------------------------------------------------------
      1          6           0        1.931089   -0.155648    0.077369
      2          6           0        0.550583    0.572905   -0.036756
      3          1           0        2.673369    0.583497   -0.539769
      4          1           0        1.861596   -0.392588   -0.649122
      5          1           0        2.390291   -1.238548    1.227338
      6          6           0       -0.563654   -0.479829   -0.173528
      7          1           0        0.421489    1.241437   -0.799164
      8          1           0        0.332116    1.171906    0.868045
      9          6           0       -1.937802    0.088903    0.078720
     10          1           0       -0.427344   -1.063433    0.633673
     11          1           0       -0.582141   -1.076872   -1.016477
     12          1           0       -1.839296    0.864671    1.206997
     13          1           0       -2.741626   -0.726977   -0.031590
     14          1           0       -1.969745    0.478919   -0.574757
 ---------------------------------------------------------------------

 SCF Done:  E(RB2PLYPD3) =  -157.648486532     A.U. after   11 cycles
 E2(B2PLYPD3) =    -0.2530622010D+00 E(B2PLYPD3) =    -0.15790154873256D+03

 The electronic state is 1-A.
 Alpha  occ. eigenvalues --  -10.62027 -10.60930 -10.58996 -10.58211  -0.94029
 Alpha  occ. eigenvalues --   -0.87915  -0.76085  -0.69075  -0.55512  -0.49842
 Alpha  occ. eigenvalues --   -0.48809  -0.46026  -0.40268  -0.39141  -0.39027
 Alpha  occ. eigenvalues --   -0.37750  -0.35900
 Alpha virt. eigenvalues --    0.01514   0.05538   0.07136   0.08080   0.10243
 Alpha virt. eigenvalues --    0.10995   0.12219   0.12891   0.13840   0.15371
 Alpha virt. eigenvalues --    0.16058   0.16735   0.18650   0.19042   0.20471

 Mulliken charges:
               1
     1  C   -0.540090
     2  C   -0.030229
     3  H    0.024190
     4  H    0.407029
     5  H    0.069239
     6  C   -0.038773
     7  H    0.044056
     8  H    0.028128
     9  C   -0.458698
    10  H    0.060462
    11  H    0.023150
    12  H    0.031738
    13  H    0.052080
    14  H    0.327719
 Sum of Mulliken charges =   0.00000

 Dipole moment (field-independent basis, Debye):
    X=             -0.1504    Y=             -0.2483    Z=             -0.8184  Tot=              0.8684
 Quadrupole moment (field-independent basis, Debye-Ang):
   XX=            -31.7417   YY=            -28.8039   ZZ=            -27.3546
   XY=             -0.0557   XZ=              0.1548   YZ=             -0.8138

 Normal termination of Gaussian 09 at Wed Aug 26 22:00:55 2020.
