 Gaussian 09, Revision D.01,
 Gaussian 09:  ES64L-G09RevD.01 24-Apr-2013

 --------------------
 #p B2PLYPD3/Def2QZVP
 --------------------

 ----------
 butane_opt
 ----------
 Symbolic Z-matrix:
 Charge =  0 Multiplicity = 1

                         Standard orientation:
 ---------------------------------------------------------------------
 Center     Atomic      Atomic             Coordinates (Angstroms)
 Number     Number       Type             X           Y           Z
 ---------------------------------------------------------------------
      1          6           0       -1.815434    0.074475   -0.049126
      2          6           0       -0.660393   -0.476504    0.024351
      3          1           0       -2.569465   -0.568095   -0.019149
      4          1           0       -1.633780    0.862197   -0.914138
      5          1           0       -2.243090    0.448424    0.526077
      6          6           0        0.490641    0.556874    0.120137
      7          1           0       -0.361598   -1.136975   -0.904788
      8          1           0       -0.625074   -0.916668    0.956338
      9          6           0        1.917753   -0.161981   -0.047071
     10          1           0        0.314056    1.138920    0.977253
     11          1           0        0.373075    1.092422   -0.639932
     12          1           0        2.428044   -0.857411    0.847429
     13          1           0        2.714263    0.672817   -0.313967
     14          1           0        2.008171   -0.692820   -0.804863
 ---------------------------------------------------------------------

 SCF Done:  E(RB2PLYPD3) =  -157.867724941     A.U. after   11 cycles
 E2(B2PLYPD3) =    -0.2477093508D+00 E(B2PLYPD3) =    -0.15811543429141D+03

 The electronic state is 1-A.
 Alpha  occ. eigenvalues --  -10.60691 -10.58769 -10.58465 -10.54769  -0.96548
 Alpha  occ. eigenvalues --   -0.85826  -0.76031  -0.69761  -0.58836  -0.52927
 Alpha  occ. eigenvalues --   -0.50731  -0.47697  -0.43892  -0.40489  -0.40312
 Alpha  occ. eigenvalues --   -0.36025  -0.34103
 Alpha virt. eigenvalues --    0.05648   0.06746   0.08530   0.08627   0.10611
 Alpha virt. eigenvalues --    0.11784   0.13022   0.13921   0.15016   0.15681
 Alpha virt. eigenvalues --    0.15917   0.17326   0.19162   0.19846   0.21699

 Mulliken charges:
               1
     1  C   -0.255690
     2  C   -0.005411
     3  H    0.028574
     4  H    0.015213
     5  H    0.152069
     6  C   -0.070193
     7  H    0.031049
     8  H    0.033342
     9  C   -0.179698
    10  H    0.040631
    11  H    0.081891
    12  H    0.028502
    13  H    0.019346
    14  H    0.080374
 Sum of Mulliken charges =   0.00000

 Dipole moment (field-independent basis, Debye):
    X=             -0.5033    Y=              0.0515    Z=              0.1986  Tot=              0.5435
 Quadrupole moment (field-independent basis, Debye-Ang):
   XX=            -28.7182   YY=            -29.0283   ZZ=            -27.9595
   XY=             -0.0653   XZ=             -2.2616   YZ=             -0.0846

 Normal termination of Gaussian 09 at Wed Aug 26 19:06:37 2020.
