 Gaussian 09, Revision D.01,
 Gaussian 09:  ES64L-G09RevD.01 24-Apr-2013

 --------------------
 #p B2PLYPD3/Def2QZVP
 --------------------

 ----------
 butane_opt
 ----------
 Symbolic Z-matrix:
 Charge =  0 Multiplicity = 1

                         Standard orientation:
 ---------------------------------------------------------------------
 Center     Atomic      Atomic             Coordinates (Angstroms)
 Number     Number       Type             X           Y           Z
 ---------------------------------------------------------------------
      1          6           0        2.000317   -0.224957   -0.163323
      2          6           0        0.523733    0.643631    0.134837
      3          1           0        2.759303    0.605705   -0.254080
      4          1           0        2.126350   -1.102095   -0.987208
      5          1           0        2.476327   -0.626260    0.729869
      6          6           0       -0.569223   -0.470628    0.281554
      7          1           0        0.329552    1.201862   -0.605607
      8          1           0        0.390779    1.438923    0.956986
      9          6           0       -1.954383    0.046501   -0.269256
     10          1           0       -0.895728   -1.172053    1.335219
     11          1           0       -0.454375   -0.783121   -0.264284
     12          1           0       -2.376666    0.912524    0.574956
     13          1           0       -2.731824   -0.834821   -0.310222
     14          1           0       -1.626382    0.392054   -1.078505
 ---------------------------------------------------------------------

 SCF Done:  E(RB2PLYPD3) =  -157.621216824     A.U. after   11 cycles
 E2(B2PLYPD3) =    -0.2510257670D+00 E(B2PLYPD3) =    -0.15787224259093D+03

 The electronic state is 1-A.
 Alpha  occ. eigenvalues --  -10.63067 -10.62285 -10.61011 -10.58770  -0.94329
 Alpha  occ. eigenvalues --   -0.81557  -0.73604  -0.71526  -0.54705  -0.49440
 Alpha  occ. eigenvalues --   -0.46650  -0.45903  -0.43209  -0.41506  -0.39655
 Alpha  occ. eigenvalues --   -0.37022  -0.34485
 Alpha virt. eigenvalues --    0.05233   0.06010   0.07844   0.09030   0.11079
 Alpha virt. eigenvalues --    0.11370   0.12346   0.13243   0.13746   0.15051
 Alpha virt. eigenvalues --    0.15888   0.16562   0.18388   0.19202   0.20193

 Mulliken charges:
               1
     1  C   -0.161543
     2  C   -0.040311
     3  H    0.033477
     4  H    0.053317
     5  H    0.046560
     6  C   -0.817897
     7  H    0.083548
     8  H    0.036948
     9  C   -0.160280
    10  H    0.056961
    11  H    0.711824
    12  H    0.024769
    13  H    0.047969
    14  H    0.084658
 Sum of Mulliken charges =   0.00000

 Dipole moment (field-independent basis, Debye):
    X=              0.2444    Y=             -0.0374    Z=             -0.2803  Tot=              0.3737
 Quadrupole moment (field-independent basis, Debye-Ang):
   XX=            -30.0494   YY=            -28.2053   ZZ=            -28.6996
   XY=              0.6262   XZ=             -0.2727   YZ=              0.5092

 Normal termination of Gaussian 09 at Wed Aug 26 15:49:10 2020.
