 Gaussian 09, Revision D.01,
 Gaussian 09:  ES64L-G09RevD.01 24-Apr-2013

 --------------------
 #p B2PLYPD3/Def2QZVP
 --------------------

 ----------
 butane_opt
 ----------
 Symbolic Z-matrix:
 Charge =  0 Multiplicity = 1

                         Standard orientation:
 ---------------------------------------------------------------------
 Center     Atomic      Atomic             Coordinates (Angstroms)
 Number     Number       Type             X           Y           Z
 ---------------------------------------------------------------------
      1          6           0        1.891100    0.051322   -0.132905
      2          6           0        0.681353   -0.482848    0.136003
      3          1           0        2.568305   -0.639023   -0.342333
      4          1           0        2.324027    0.889504    0.893996
      5          1           0        1.695989    0.416440   -0.857841
      6          6           0       -0.514062    0.591159   -0.031689
      7          1           0        0.586912   -1.183339    1.147575
      8          1           0        0.517824   -1.055097   -0.604488
      9          6           0       -2.030637   -0.169781   -0.041119
     10          1           0       -0.525871    1.158188   -0.791541
     11          1           0       -0.270541    1.661865    1.020397
     12          1           0       -2.099695   -0.774901   -0.859663
     13          1           0       -2.757697    0.405628   -0.172893
     14          1           0       -2.205780   -0.818375    0.985047
 ---------------------------------------------------------------------

 SCF Done:  E(RB2PLYPD3) =  -157.837965507     A.U. after   11 cycles
 E2(B2PLYPD3) =    -0.2497499472D+00 E(B2PLYPD3) =    -0.15808771545382D+03

 The electronic state is 1-A.
 Alpha  occ. eigenvalues --  -10.64599 -10.60511 -10.60298 -10.57623  -0.95809
 Alpha  occ. eigenvalues --   -0.84494  -0.74599  -0.68446  -0.55242  -0.53805
 Alpha  occ. eigenvalues --   -0.50427  -0.47645  -0.43159  -0.39540  -0.38497
 Alpha  occ. eigenvalues --   -0.37667  -0.33920
 Alpha virt. eigenvalues --    0.04669   0.06530   0.07171   0.08337   0.09874
 Alpha virt. eigenvalues --    0.11499   0.12305   0.13024   0.14826   0.15231
 Alpha virt. eigenvalues --    0.15418   0.16542   0.18666   0.19138   0.20368

 Mulliken charges:
               1
     1  C   -0.257961
     2  C   -0.050233
     3  H    0.049939
     4  H    0.012645
     5  H    0.181833
     6  C   -0.107846
     7  H    0.023349
     8  H    0.086401
     9  C   -0.147176
    10  H    0.086193
    11  H   -0.032409
    12  H    0.045017
    13  H    0.068912
    14  H    0.041334
 Sum of Mulliken charges =   0.00000

 Dipole moment (field-independent basis, Debye):
    X=             -0.1761    Y=             -0.7011    Z=             -1.2422  Tot=              1.4372
 Quadrupole moment (field-independent basis, Debye-Ang):
   XX=            -29.2196   YY=            -29.7649   ZZ=            -28.1952
   XY=             -0.9983   XZ=              0.2842   YZ=             -0.5626

 Normal termination of Gaussian 09 at Wed Aug 26 11:14:23 2020.
