 Gaussian 09, Revision D.01,
 Gaussian 09:  ES64L-G09RevD.01 24-Apr-2013

 --------------------
 #p B2PLYPD3/Def2QZVP
 --------------------

 ----------
 butane_opt
 ----------
 Symbolic Z-matrix:
 Charge =  0 Multiplicity = 1

                         Standard orientation:
 ---------------------------------------------------------------------
 Center     Atomic      Atomic             Coordinates (Angstroms)
 Number     Number       Type             X           Y           Z
 ---------------------------------------------------------------------
      1          6           0       -1.993147    0.095422   -0.170086
      2          6           0       -0.597647   -0.518621    0.322364
      3          1           0       -2.780574   -0.670339   -0.826086
      4          1           0       -1.472560    0.578536   -1.006664
      5          1           0       -2.711085    0.968603    0.728297
      6          6           0        0.567021    0.653560    0.038727
      7          1           0       -0.406052   -1.014205   -0.420240
      8          1           0       -0.729606   -1.313100    1.342524
      9          6           0        1.961898   -0.194897   -0.113760
     10          1           0        0.711979    1.431232    0.957173
     11          1           0        0.495254    0.775679   -0.644087
     12          1           0        2.479157   -0.573607    0.543798
     13          1           0        2.766822    0.552021   -0.107689
     14          1           0        2.017913   -0.947606   -1.030491
 ---------------------------------------------------------------------

 SCF Done:  E(RB2PLYPD3) =  -157.666129178     A.U. after   11 cycles
 E2(B2PLYPD3) =    -0.2537057471D+00 E(B2PLYPD3) =    -0.15791983492559D+03

 The electronic state is 1-A.
 Alpha  occ. eigenvalues --  -10.65360 -10.62537 -10.61596 -10.59700  -0.92852
 Alpha  occ. eigenvalues --   -0.83427  -0.76721  -0.67645  -0.55499  -0.48116
 Alpha  occ. eigenvalues --   -0.47439  -0.46637  -0.42551  -0.40381  -0.38256
 Alpha  occ. eigenvalues --   -0.36208  -0.34664
 Alpha virt. eigenvalues --    0.04619   0.05994   0.07963   0.08255   0.09736
 Alpha virt. eigenvalues --    0.10654   0.11523   0.13481   0.14404   0.14729
 Alpha virt. eigenvalues --    0.15944   0.16830   0.18293   0.18642   0.20374

 Mulliken charges:
               1
     1  C   -0.181363
     2  C   -0.148825
     3  H    0.037203
     4  H    0.056335
     5  H    0.031313
     6  C   -0.617558
     7  H    0.159349
     8  H    0.036669
     9  C   -0.143248
    10  H    0.069343
    11  H    0.585821
    12  H    0.067536
    13  H    0.023172
    14  H    0.024255
 Sum of Mulliken charges =   0.00000

 Dipole moment (field-independent basis, Debye):
    X=              0.7359    Y=             -0.0578    Z=             -0.1934  Tot=              0.7630
 Quadrupole moment (field-independent basis, Debye-Ang):
   XX=            -30.3407   YY=            -29.3890   ZZ=            -28.4182
   XY=              0.5630   XZ=              0.9755   YZ=              1.1355

 Normal termination of Gaussian 09 at Wed Aug 26 10:21:42 2020.
