 Gaussian 09, Revision D.01,
 Gaussian 09:  ES64L-G09RevD.01 24-Apr-2013

 --------------------
 #p B2PLYPD3/Def2QZVP
 --------------------

 ----------
 butane_opt
 ----------
 Symbolic Z-matrix:
 Charge =  0 Multiplicity = 1

                         Standard orientation:
 ---------------------------------------------------------------------
 Center     Atomic      Atomic             Coordinates (Angstroms)
 Number     Number       Type             X           Y           Z
 ---------------------------------------------------------------------
      1          6           0       -1.935171   -0.127971    0.055783
      2          6           0       -0.581359    0.626866   -0.185481
      3          1           0       -2.646315    0.300694    0.779570
      4          1           0       -1.791168   -0.558945    0.774740
      5          1           0       -2.676577   -0.931788   -0.900309
      6          6           0        0.612813   -0.469931   -0.074106
      7          1           0       -0.453306    1.176504    0.640458
      8          1           0       -0.629388    1.035975   -1.018304
      9          6           0        1.987641    0.054525    0.104826
     10          1           0        0.852746   -1.066129   -0.918355
     11          1           0        0.040190   -1.198220    0.896428
     12          1           0        2.178323    0.616851   -0.720798
     13          1           0        2.679560   -0.492746   -0.039556
     14          1           0        1.942392    0.616870    1.099993
 ---------------------------------------------------------------------

 SCF Done:  E(RB2PLYPD3) =  -157.853660933     A.U. after   11 cycles
 E2(B2PLYPD3) =    -0.2500558882D+00 E(B2PLYPD3) =    -0.15810371682161D+03

 The electronic state is 1-A.
 Alpha  occ. eigenvalues --  -10.62552 -10.60147 -10.59741 -10.57555  -0.92213
 Alpha  occ. eigenvalues --   -0.87149  -0.76596  -0.68085  -0.56821  -0.51554
 Alpha  occ. eigenvalues --   -0.49604  -0.47711  -0.43222  -0.39711  -0.37884
 Alpha  occ. eigenvalues --   -0.36665  -0.34894
 Alpha virt. eigenvalues --    0.05149   0.06190   0.08022   0.08723   0.10034
 Alpha virt. eigenvalues --    0.11060   0.12265   0.13437   0.14627   0.15593
 Alpha virt. eigenvalues --    0.16637   0.17254   0.18516   0.19265   0.21074

 Mulliken charges:
               1
     1  C   -0.312114
     2  C   -0.058852
     3  H    0.031249
     4  H    0.189371
     5  H    0.032416
     6  C   -0.042037
     7  H    0.071058
     8  H    0.071933
     9  C   -0.157381
    10  H    0.034348
    11  H   -0.003683
    12  H    0.039051
    13  H    0.070546
    14  H    0.034095
 Sum of Mulliken charges =   0.00000

 Dipole moment (field-independent basis, Debye):
    X=              0.5592    Y=              0.2066    Z=              0.0662  Tot=              0.5998
 Quadrupole moment (field-independent basis, Debye-Ang):
   XX=            -29.2844   YY=            -30.2367   ZZ=            -27.2197
   XY=              0.0122   XZ=             -2.4091   YZ=              0.5320

 Normal termination of Gaussian 09 at Wed Aug 26 23:50:29 2020.
