 Gaussian 09, Revision D.01,
 Gaussian 09:  ES64L-G09RevD.01 24-Apr-2013

 --------------------
 #p B2PLYPD3/Def2QZVP
 --------------------

 ----------
 butane_opt
 ----------
 Symbolic Z-matrix:
 Charge =  0 Multiplicity = 1

                         Standard orientation:
 ---------------------------------------------------------------------
 Center     Atomic      Atomic             Coordinates (Angstroms)
 Number     Number       Type             X           Y           Z
 ---------------------------------------------------------------------
      1          6           0       -1.977204    0.150577    0.149896
      2          6           0       -0.653187   -0.468487   -0.171888
      3          1           0       -2.998801   -0.805762   -0.232674
      4          1           0       -2.198098    0.398415   -0.450875
      5          1           0       -1.902359    0.882198    1.342197
      6          6           0        0.550998    0.579354   -0.009028
      7          1           0       -0.625170   -1.359286   -1.403193
      8          1           0       -0.425113   -1.004101    0.657634
      9          6           0        2.041370   -0.194323    0.070679
     10          1           0        0.646412    0.793384    0.651779
     11          1           0        0.624769    1.686099   -1.038583
     12          1           0        2.501396   -1.299430    1.189529
     13          1           0        2.640435    0.531985   -0.500858
     14          1           0        1.964667   -0.226229   -0.452914
 ---------------------------------------------------------------------

 SCF Done:  E(RB2PLYPD3) =  -156.477413501     A.U. after   13 cycles
 E2(B2PLYPD3) =    -0.2633982928D+00 E(B2PLYPD3) =    -0.15674081179332D+03

 The electronic state is 1-A.
 Alpha  occ. eigenvalues --  -10.65025 -10.63475 -10.63121 -10.62890  -0.97140
 Alpha  occ. eigenvalues --   -0.91231  -0.82403  -0.71569  -0.53069  -0.49681
 Alpha  occ. eigenvalues --   -0.46447  -0.43928  -0.41726  -0.40421  -0.36865
 Alpha  occ. eigenvalues --   -0.34776  -0.33485
 Alpha virt. eigenvalues --    0.00671   0.02982   0.03932   0.05390   0.08351
 Alpha virt. eigenvalues --    0.08969   0.11601   0.11750   0.13134   0.14489
 Alpha virt. eigenvalues --    0.15854   0.16406   0.16500   0.18391   0.19762

 Mulliken charges:
               1
     1  C   -0.622414
     2  C   -0.021774
     3  H   -0.006923
     4  H    0.495139
     5  H    0.079662
     6  C   -0.550092
     7  H    0.010704
     8  H    0.106829
     9  C   -1.031008
    10  H    0.531257
    11  H    0.008738
    12  H    0.096116
    13  H    0.047178
    14  H    0.856589
 Sum of Mulliken charges =   0.00000

 Dipole moment (field-independent basis, Debye):
    X=              0.1910    Y=              0.0942    Z=              0.1057  Tot=              0.2377
 Quadrupole moment (field-independent basis, Debye-Ang):
   XX=            -31.8394   YY=            -29.9369   ZZ=            -27.1634
   XY=             -1.6133   XZ=              0.4236   YZ=             -0.6914

 Normal termination of Gaussian 09 at Wed Aug 26 20:24:14 2020.
