 Gaussian 09, Revision D.01,
 Gaussian 09:  ES64L-G09RevD.01 24-Apr-2013

 --------------------
 #p B2PLYPD3/Def2QZVP
 --------------------

 ----------
 butane_opt
 ----------
 Symbolic Z-matrix:
 Charge =  0 Multiplicity = 1

                         Standard orientation:
 ---------------------------------------------------------------------
 Center     Atomic      Atomic             Coordinates (Angstroms)
 Number     Number       Type             X           Y           Z
 ---------------------------------------------------------------------
      1          6           0        1.941791    0.068768   -0.080587
      2          6           0        0.632334   -0.446542    0.182437
      3          1           0        2.819434   -0.870045   -0.707310
      4          1           0        2.488664    1.001682    0.874254
      5          1           0        1.593420    0.271918   -0.791146
      6          6           0       -0.605301    0.607135   -0.052828
      7          1           0        0.578787   -1.218836    1.110155
      8          1           0        0.518830   -0.821734   -0.391820
      9          6           0       -1.948633   -0.192966   -0.094437
     10          1           0       -0.449178    1.058659   -0.896716
     11          1           0       -0.320487    1.449456    0.841709
     12          1           0       -2.376414   -0.767829   -0.752900
     13          1           0       -2.671033    0.339433    0.163392
     14          1           0       -2.303176   -0.661073    0.822872
 ---------------------------------------------------------------------

 SCF Done:  E(RB2PLYPD3) =  -157.559203099     A.U. after   11 cycles
 E2(B2PLYPD3) =    -0.2524176671D+00 E(B2PLYPD3) =    -0.15781162076600D+03

 The electronic state is 1-A.
 Alpha  occ. eigenvalues --  -10.63573 -10.62226 -10.57960 -10.57832  -0.97572
 Alpha  occ. eigenvalues --   -0.87872  -0.76611  -0.70823  -0.55844  -0.51227
 Alpha  occ. eigenvalues --   -0.48734  -0.48127  -0.42441  -0.41182  -0.39260
 Alpha  occ. eigenvalues --   -0.37351  -0.32984
 Alpha virt. eigenvalues --    0.03842   0.06032   0.08053   0.08317   0.09739
 Alpha virt. eigenvalues --    0.10578   0.12412   0.13890   0.14620   0.14922
 Alpha virt. eigenvalues --    0.15658   0.16625   0.18719   0.19186   0.21047

 Mulliken charges:
               1
     1  C   -0.361684
     2  C   -0.620351
     3  H    0.010417
     4  H    0.046611
     5  H    0.284835
     6  C   -0.074636
     7  H    0.049596
     8  H    0.555939
     9  C   -0.137253
    10  H    0.090015
    11  H    0.029147
    12  H    0.043107
    13  H    0.062808
    14  H    0.021449
 Sum of Mulliken charges =   0.00000

 Dipole moment (field-independent basis, Debye):
    X=             -1.0875    Y=              0.1036    Z=             -0.4769  Tot=              1.1920
 Quadrupole moment (field-independent basis, Debye-Ang):
   XX=            -29.4934   YY=            -29.5013   ZZ=            -27.9636
   XY=              0.6756   XZ=             -0.2530   YZ=              0.9835

 Normal termination of Gaussian 09 at Wed Aug 26 16:24:19 2020.
