 Gaussian 09, Revision D.01,
 Gaussian 09:  ES64L-G09RevD.01 24-Apr-2013

 --------------------
 #p B2PLYPD3/Def2QZVP
 --------------------

 ----------
 butane_opt
 ----------
 Symbolic Z-matrix:
 Charge =  0 Multiplicity = 1

                         Standard orientation:
 ---------------------------------------------------------------------
 Center     Atomic      Atomic             Coordinates (Angstroms)
 Number     Number       Type             X           Y           Z
 ---------------------------------------------------------------------
      1          6           0        1.976047    0.034640   -0.114533
      2          6           0        0.571103   -0.429830    0.086161
      3          1           0        2.782509   -0.793757   -0.000831
      4          1           0        1.984697    0.499920    0.768132
      5          1           0        2.224739    0.670799   -1.087368
      6          6           0       -0.546906    0.639850    0.129288
      7          1           0        0.842546   -1.177462    0.994701
      8          1           0        0.236773   -1.184596   -0.698163
      9          6           0       -1.961846   -0.131939   -0.114665
     10          1           0       -0.267278    1.140060   -0.556488
     11          1           0       -0.362957    1.538550    1.231349
     12          1           0       -2.003387   -0.711973   -0.905495
     13          1           0       -2.723036    0.471817   -0.734700
     14          1           0       -2.944990   -1.129688    1.071355
 ---------------------------------------------------------------------

 SCF Done:  E(RB2PLYPD3) =  -157.836152784     A.U. after   12 cycles
 E2(B2PLYPD3) =    -0.2566973713D+00 E(B2PLYPD3) =    -0.15809285015524D+03

 The electronic state is 1-A.
 Alpha  occ. eigenvalues --  -10.66488 -10.65109 -10.62776 -10.60834  -0.92351
 Alpha  occ. eigenvalues --   -0.83959  -0.75067  -0.66422  -0.53257  -0.51657
 Alpha  occ. eigenvalues --   -0.48637  -0.44773  -0.42318  -0.38540  -0.37584
 Alpha  occ. eigenvalues --   -0.36126  -0.34330
 Alpha virt. eigenvalues --   -0.00696   0.04835   0.06631   0.07768   0.08641
 Alpha virt. eigenvalues --    0.10834   0.12352   0.12553   0.14296   0.14960
 Alpha virt. eigenvalues --    0.15499   0.16260   0.18158   0.18777   0.19463

 Mulliken charges:
               1
     1  C   -0.168436
     2  C   -0.011764
     3  H    0.044225
     4  H    0.084396
     5  H    0.024285
     6  C   -0.143776
     7  H    0.018435
     8  H    0.014432
     9  C   -0.162970
    10  H    0.163548
    11  H    0.010735
    12  H    0.093120
    13  H    0.033161
    14  H    0.000610
 Sum of Mulliken charges =   0.00000

 Dipole moment (field-independent basis, Debye):
    X=              0.5298    Y=              0.1422    Z=             -1.0023  Tot=              1.1426
 Quadrupole moment (field-independent basis, Debye-Ang):
   XX=            -31.3612   YY=            -30.1902   ZZ=            -28.9679
   XY=             -0.2556   XZ=              2.6103   YZ=             -0.2922

 Normal termination of Gaussian 09 at Wed Aug 26 14:15:47 2020.
