 Gaussian 09, Revision D.01,
 Gaussian 09:  ES64L-G09RevD.01 24-Apr-2013

 --------------------
 #p B2PLYPD3/Def2QZVP
 --------------------

 ----------
 butane_opt
 ----------
 Symbolic Z-matrix:
 Charge =  0 Multiplicity = 1

                         Standard orientation:
 ---------------------------------------------------------------------
 Center     Atomic      Atomic             Coordinates (Angstroms)
 Number     Number       Type             X           Y           Z
 ---------------------------------------------------------------------
      1          6           0        1.965330   -0.119584    0.053744
      2          6           0        0.559893    0.518894   -0.103381
      3          1           0        2.832600    0.661670    0.230191
      4          1           0        2.108177   -0.694075   -0.721012
      5          1           0        2.020593   -0.719991    1.018465
      6          6           0       -0.566011   -0.572745   -0.025806
      7          1           0        0.529612    1.405850   -1.209123
      8          1           0        0.571255    0.917424    0.599200
      9          6           0       -1.945140    0.149333    0.059445
     10          1           0       -0.425630   -1.151319    0.857272
     11          1           0       -0.545978   -1.284724   -0.997942
     12          1           0       -2.296999    1.154529    1.162534
     13          1           0       -2.750699   -0.629612   -0.198220
     14          1           0       -2.127361    0.484865   -0.645380
 ---------------------------------------------------------------------

 SCF Done:  E(RB2PLYPD3) =  -157.792812271     A.U. after   11 cycles
 E2(B2PLYPD3) =    -0.2505053395D+00 E(B2PLYPD3) =    -0.15804331761024D+03

 The electronic state is 1-A.
 Alpha  occ. eigenvalues --  -10.63192 -10.61280 -10.60749 -10.60105  -0.92100
 Alpha  occ. eigenvalues --   -0.85355  -0.74681  -0.69380  -0.54223  -0.48061
 Alpha  occ. eigenvalues --   -0.47694  -0.47348  -0.42295  -0.41430  -0.37521
 Alpha  occ. eigenvalues --   -0.37469  -0.36312
 Alpha virt. eigenvalues --    0.04358   0.05592   0.06958   0.07338   0.10596
 Alpha virt. eigenvalues --    0.11127   0.12020   0.13049   0.14426   0.14927
 Alpha virt. eigenvalues --    0.15664   0.16591   0.18871   0.19273   0.20620

 Mulliken charges:
               1
     1  C   -0.142448
     2  C   -0.300082
     3  H    0.033782
     4  H    0.077304
     5  H    0.027488
     6  C    0.000297
     7  H    0.003794
     8  H    0.274106
     9  C   -0.344787
    10  H    0.065013
    11  H    0.019171
    12  H    0.023893
    13  H    0.027744
    14  H    0.234725
 Sum of Mulliken charges =   0.00000

 Dipole moment (field-independent basis, Debye):
    X=              0.1179    Y=             -0.3005    Z=             -0.1312  Tot=              0.3484
 Quadrupole moment (field-independent basis, Debye-Ang):
   XX=            -30.4411   YY=            -29.3524   ZZ=            -28.1724
   XY=              0.2484   XZ=              1.6920   YZ=              0.6642

 Normal termination of Gaussian 09 at Wed Aug 26 10:24:28 2020.
