 Gaussian 09, Revision D.01,
 Gaussian 09:  ES64L-G09RevD.01 24-Apr-2013

 --------------------
 #p B2PLYPD3/Def2QZVP
 --------------------

 ----------
 butane_opt
 ----------
 Symbolic Z-matrix:
 Charge =  0 Multiplicity = 1

                         Standard orientation:
 ---------------------------------------------------------------------
 Center     Atomic      Atomic             Coordinates (Angstroms)
 Number     Number       Type             X           Y           Z
 ---------------------------------------------------------------------
      1          6           0        1.910664   -0.077462   -0.115416
      2          6           0        0.614101    0.412790    0.124155
      3          1           0        2.608678    0.792980   -0.256048
      4          1           0        1.650086   -0.856232   -1.040947
      5          1           0        2.040136   -0.804595    0.755721
      6          6           0       -0.492748   -0.512587    0.177480
      7          1           0        0.497224    1.194497   -0.807058
      8          1           0        0.828506    1.174624    0.988664
      9          6           0       -1.997899    0.136609   -0.102563
     10          1           0       -0.228525   -1.105157    1.158135
     11          1           0       -0.472297   -1.238976   -0.651590
     12          1           0       -2.797318    0.940375    0.932215
     13          1           0       -2.848619   -0.671729   -0.591158
     14          1           0       -1.482578    0.818112   -0.989871
 ---------------------------------------------------------------------

 SCF Done:  E(RB2PLYPD3) =  -157.942536897     A.U. after   11 cycles
 E2(B2PLYPD3) =    -0.2565173685D+00 E(B2PLYPD3) =    -0.15819905426561D+03

 The electronic state is 1-A.
 Alpha  occ. eigenvalues --  -10.68422 -10.63780 -10.62162 -10.61852  -0.93910
 Alpha  occ. eigenvalues --   -0.82157  -0.69739  -0.63964  -0.54313  -0.52025
 Alpha  occ. eigenvalues --   -0.48507  -0.45347  -0.40326  -0.39637  -0.37201
 Alpha  occ. eigenvalues --   -0.36195  -0.34411
 Alpha virt. eigenvalues --    0.03777   0.05325   0.07014   0.07229   0.09378
 Alpha virt. eigenvalues --    0.10188   0.12095   0.12491   0.13481   0.15019
 Alpha virt. eigenvalues --    0.15143   0.16159   0.17442   0.19689   0.20855

 Mulliken charges:
               1
     1  C   -0.153726
     2  C    0.019768
     3  H    0.082786
     4  H    0.019632
     5  H    0.040654
     6  C   -0.043439
     7  H   -0.022933
     8  H    0.020222
     9  C   -0.202302
    10  H    0.025926
    11  H    0.055892
    12  H    0.030396
    13  H    0.054740
    14  H    0.072385
 Sum of Mulliken charges =   0.00000

 Dipole moment (field-independent basis, Debye):
    X=              0.3728    Y=             -0.1715    Z=             -0.1161  Tot=              0.4265
 Quadrupole moment (field-independent basis, Debye-Ang):
   XX=            -31.3718   YY=            -30.0645   ZZ=            -29.9090
   XY=              2.1899   XZ=              0.9249   YZ=              0.3148

 Normal termination of Gaussian 09 at Wed Aug 26 21:15:03 2020.
