 Gaussian 09, Revision D.01,
 Gaussian 09:  ES64L-G09RevD.01 24-Apr-2013

 --------------------
 #p B2PLYPD3/Def2QZVP
 --------------------

 ----------
 butane_opt
 ----------
 Symbolic Z-matrix:
 Charge =  0 Multiplicity = 1

                         Standard orientation:
 ---------------------------------------------------------------------
 Center     Atomic      Atomic             Coordinates (Angstroms)
 Number     Number       Type             X           Y           Z
 ---------------------------------------------------------------------
      1          6           0       -1.915090    0.002678   -0.119366
      2          6           0       -0.632540   -0.381479    0.343198
      3          1           0       -2.815016   -1.050852   -0.724059
      4          1           0       -1.553724    0.256133   -0.915315
      5          1           0       -2.564982    1.159819    0.509909
      6          6           0        0.521644    0.546499   -0.117264
      7          1           0       -0.675182   -0.834788   -0.144247
      8          1           0       -0.481687   -0.850052    1.436531
      9          6           0        2.063316   -0.126340   -0.050550
     10          1           0        0.328279    1.617744    0.718664
     11          1           0        0.070179    0.720156   -0.905147
     12          1           0        2.355897   -0.508593    0.857305
     13          1           0        2.799073    0.509344   -0.247897
     14          1           0        2.313180   -1.267055   -0.921849
 ---------------------------------------------------------------------

 SCF Done:  E(RB2PLYPD3) =  -157.506487560     A.U. after   12 cycles
 E2(B2PLYPD3) =    -0.2554015727D+00 E(B2PLYPD3) =    -0.15776188913224D+03

 The electronic state is 1-A.
 Alpha  occ. eigenvalues --  -10.65220 -10.64330 -10.64210 -10.58238  -1.00731
 Alpha  occ. eigenvalues --   -0.83835  -0.75132  -0.70490  -0.56637  -0.49921
 Alpha  occ. eigenvalues --   -0.48307  -0.44798  -0.43621  -0.41650  -0.38198
 Alpha  occ. eigenvalues --   -0.36902  -0.34142
 Alpha virt. eigenvalues --    0.02520   0.04689   0.06521   0.08445   0.08949
 Alpha virt. eigenvalues --    0.10093   0.12082   0.13008   0.13519   0.14140
 Alpha virt. eigenvalues --    0.15418   0.17131   0.17869   0.19209   0.19431

 Mulliken charges:
               1
     1  C   -0.220543
     2  C   -0.715634
     3  H    0.024070
     4  H    0.143292
     5  H    0.012169
     6  C   -0.102472
     7  H    0.664639
     8  H    0.052831
     9  C   -0.134726
    10  H    0.013121
    11  H    0.118925
    12  H    0.067676
    13  H    0.076725
    14  H   -0.000073
 Sum of Mulliken charges =   0.00000

 Dipole moment (field-independent basis, Debye):
    X=              0.7776    Y=             -0.1419    Z=             -0.3271  Tot=              0.8555
 Quadrupole moment (field-independent basis, Debye-Ang):
   XX=            -30.6115   YY=            -30.1512   ZZ=            -28.9873
   XY=              0.3710   XZ=              1.7663   YZ=              0.6221

 Normal termination of Gaussian 09 at Wed Aug 26 16:04:39 2020.
