 Gaussian 09, Revision D.01,
 Gaussian 09:  ES64L-G09RevD.01 24-Apr-2013

 --------------------
 #p B2PLYPD3/Def2QZVP
 --------------------

 ----------
 butane_opt
 ----------
 Symbolic Z-matrix:
 Charge =  0 Multiplicity = 1

                         Standard orientation:
 ---------------------------------------------------------------------
 Center     Atomic      Atomic             Coordinates (Angstroms)
 Number     Number       Type             X           Y           Z
 ---------------------------------------------------------------------
      1          6           0        1.931080   -0.161563    0.231662
      2          6           0        0.545795    0.556121   -0.263513
      3          1           0        2.655960    0.338510    0.795528
      4          1           0        2.530443   -1.098427   -0.978107
      5          1           0        1.702157   -0.697819    0.871411
      6          6           0       -0.559909   -0.377658   -0.268166
      7          1           0        0.573009    1.580303   -1.132396
      8          1           0        0.292536    0.999620    0.622965
      9          6           0       -1.866405    0.085611    0.153688
     10          1           0       -0.414516   -1.210788    0.670890
     11          1           0       -0.807041   -0.834551   -1.092209
     12          1           0       -1.883747    0.809782    1.419527
     13          1           0       -2.973116   -0.973962    0.178906
     14          1           0       -1.979054    0.472269   -0.478538
 ---------------------------------------------------------------------

 SCF Done:  E(RB2PLYPD3) =  -157.623989211     A.U. after   12 cycles
 E2(B2PLYPD3) =    -0.2562465927D+00 E(B2PLYPD3) =    -0.15788023580326D+03

 The electronic state is 1-A.
 Alpha  occ. eigenvalues --  -10.64317 -10.63376 -10.63156 -10.61414  -0.96416
 Alpha  occ. eigenvalues --   -0.86847  -0.76840  -0.67635  -0.56501  -0.50948
 Alpha  occ. eigenvalues --   -0.48918  -0.45299  -0.43162  -0.41177  -0.36990
 Alpha  occ. eigenvalues --   -0.35082  -0.33930
 Alpha virt. eigenvalues --    0.02969   0.03433   0.06072   0.06888   0.09241
 Alpha virt. eigenvalues --    0.09461   0.11097   0.12141   0.13264   0.14613
 Alpha virt. eigenvalues --    0.15869   0.16352   0.17853   0.18929   0.19540

 Mulliken charges:
               1
     1  C   -0.226734
     2  C   -0.085255
     3  H    0.059439
     4  H   -0.021589
     5  H    0.168049
     6  C   -0.004681
     7  H    0.025782
     8  H    0.077852
     9  C   -0.489604
    10  H    0.009938
    11  H    0.063699
    12  H    0.022027
    13  H    0.016341
    14  H    0.384736
 Sum of Mulliken charges =   0.00000

 Dipole moment (field-independent basis, Debye):
    X=             -0.2225    Y=              0.4749    Z=              0.3968  Tot=              0.6576
 Quadrupole moment (field-independent basis, Debye-Ang):
   XX=            -32.9620   YY=            -30.4360   ZZ=            -28.1299
   XY=              1.0531   XZ=              2.8812   YZ=             -0.1689

 Normal termination of Gaussian 09 at Wed Aug 26 12:47:14 2020.
