 Gaussian 09, Revision D.01,
 Gaussian 09:  ES64L-G09RevD.01 24-Apr-2013

 --------------------
 #p B2PLYPD3/Def2QZVP
 --------------------

 ----------
 butane_opt
 ----------
 Symbolic Z-matrix:
 Charge =  0 Multiplicity = 1

                         Standard orientation:
 ---------------------------------------------------------------------
 Center     Atomic      Atomic             Coordinates (Angstroms)
 Number     Number       Type             X           Y           Z
 ---------------------------------------------------------------------
      1          6           0       -1.939116   -0.192314   -0.199811
      2          6           0       -0.551020    0.636003    0.112465
      3          1           0       -2.647324    0.378459   -0.033047
      4          1           0       -2.131754   -0.698931    0.767241
      5          1           0       -1.951244   -0.846256   -1.089152
      6          6           0        0.587991   -0.498239    0.214207
      7          1           0       -0.635336    1.525582    1.133727
      8          1           0       -0.239216    0.867578   -0.594919
      9          6           0        1.887603    0.048462   -0.181122
     10          1           0        0.192934   -0.863069   -0.328901
     11          1           0        0.648517   -1.196089    1.366492
     12          1           0        1.684323    0.868477   -1.207910
     13          1           0        2.829902   -0.832540   -0.352071
     14          1           0        2.336450    0.833311    0.664109
 ---------------------------------------------------------------------

 SCF Done:  E(RB2PLYPD3) =  -157.721665084     A.U. after   11 cycles
 E2(B2PLYPD3) =    -0.2527046962D+00 E(B2PLYPD3) =    -0.15797436978052D+03

 The electronic state is 1-A.
 Alpha  occ. eigenvalues --  -10.65830 -10.61598 -10.59971 -10.59465  -0.94837
 Alpha  occ. eigenvalues --   -0.83285  -0.74611  -0.69626  -0.53968  -0.49834
 Alpha  occ. eigenvalues --   -0.49147  -0.45849  -0.42368  -0.41471  -0.38776
 Alpha  occ. eigenvalues --   -0.36466  -0.34326
 Alpha virt. eigenvalues --    0.04826   0.06124   0.07165   0.07814   0.10475
 Alpha virt. eigenvalues --    0.11249   0.11954   0.13728   0.13913   0.14408
 Alpha virt. eigenvalues --    0.15690   0.16227   0.18227   0.19072   0.21496

 Mulliken charges:
               1
     1  C   -0.173061
     2  C   -0.340290
     3  H    0.082349
     4  H    0.036681
     5  H    0.064890
     6  C   -0.399006
     7  H    0.033441
     8  H    0.302197
     9  C   -0.145037
    10  H    0.399794
    11  H    0.017908
    12  H    0.018827
    13  H    0.052120
    14  H    0.049186
 Sum of Mulliken charges =   0.00000

 Dipole moment (field-independent basis, Debye):
    X=             -0.4282    Y=             -0.0361    Z=             -0.1643  Tot=              0.4601
 Quadrupole moment (field-independent basis, Debye-Ang):
   XX=            -29.5419   YY=            -29.7515   ZZ=            -28.6057
   XY=             -0.2014   XZ=              0.2530   YZ=              0.7039

 Normal termination of Gaussian 09 at Wed Aug 26 21:13:28 2020.
