 Gaussian 09, Revision D.01,
 Gaussian 09:  ES64L-G09RevD.01 24-Apr-2013

 --------------------
 #p B2PLYPD3/Def2QZVP
 --------------------

 ----------
 butane_opt
 ----------
 Symbolic Z-matrix:
 Charge =  0 Multiplicity = 1

                         Standard orientation:
 ---------------------------------------------------------------------
 Center     Atomic      Atomic             Coordinates (Angstroms)
 Number     Number       Type             X           Y           Z
 ---------------------------------------------------------------------
      1          6           0       -1.886465   -0.095068    0.175883
      2          6           0       -0.537257    0.456367   -0.089692
      3          1           0       -2.773021    0.759148   -0.225144
      4          1           0       -2.162800   -0.772372    1.056487
      5          1           0       -2.071015   -0.449648   -0.605077
      6          6           0        0.571038   -0.568503   -0.148760
      7          1           0       -0.428773    0.795513    0.632803
      8          1           0       -0.410656    1.608845   -1.331003
      9          6           0        1.894299    0.105449    0.102723
     10          1           0        0.440484   -1.340194   -1.042603
     11          1           0        0.232865   -1.114108    0.705832
     12          1           0        2.009258    0.356158   -0.424182
     13          1           0        2.523977   -0.372068   -0.354904
     14          1           0        2.389993    1.139259    1.346872
 ---------------------------------------------------------------------

 SCF Done:  E(RB2PLYPD3) =  -157.165937387     A.U. after   12 cycles
 E2(B2PLYPD3) =    -0.2564501914D+00 E(B2PLYPD3) =    -0.15742238757853D+03

 The electronic state is 1-A.
 Alpha  occ. eigenvalues --  -10.62740 -10.61679 -10.59905 -10.59878  -0.99565
 Alpha  occ. eigenvalues --   -0.92732  -0.79441  -0.70360  -0.54158  -0.51840
 Alpha  occ. eigenvalues --   -0.49145  -0.46926  -0.41488  -0.40152  -0.38565
 Alpha  occ. eigenvalues --   -0.36941  -0.32509
 Alpha virt. eigenvalues --    0.01029   0.02739   0.05714   0.07095   0.10180
 Alpha virt. eigenvalues --    0.10647   0.12287   0.12348   0.14145   0.15449
 Alpha virt. eigenvalues --    0.16290   0.16718   0.17682   0.18822   0.20146

 Mulliken charges:
               1
     1  C   -0.252944
     2  C   -0.305707
     3  H    0.032854
     4  H    0.064953
     5  H    0.141851
     6  C    0.026112
     7  H    0.321517
     8  H   -0.054583
     9  C   -0.775478
    10  H    0.031780
    11  H    0.043521
    12  H    0.660047
    13  H    0.016126
    14  H    0.049951
 Sum of Mulliken charges =   0.00000

 Dipole moment (field-independent basis, Debye):
    X=              0.2036    Y=             -0.8614    Z=             -0.0785  Tot=              0.8886
 Quadrupole moment (field-independent basis, Debye-Ang):
   XX=            -28.9853   YY=            -30.3019   ZZ=            -27.9857
   XY=              1.7267   XZ=             -1.3635   YZ=              1.0344

 Normal termination of Gaussian 09 at Wed Aug 26 13:23:24 2020.
