 Gaussian 09, Revision D.01,
 Gaussian 09:  ES64L-G09RevD.01 24-Apr-2013

 --------------------
 #p B2PLYPD3/Def2QZVP
 --------------------

 ----------
 butane_opt
 ----------
 Symbolic Z-matrix:
 Charge =  0 Multiplicity = 1

                         Standard orientation:
 ---------------------------------------------------------------------
 Center     Atomic      Atomic             Coordinates (Angstroms)
 Number     Number       Type             X           Y           Z
 ---------------------------------------------------------------------
      1          6           0        1.897047   -0.164523   -0.124829
      2          6           0        0.528636    0.594579    0.014600
      3          1           0        2.642875    0.476862   -0.181218
      4          1           0        1.888181   -1.157474   -0.910888
      5          1           0        2.372069   -0.454497    0.843014
      6          6           0       -0.530935   -0.386125    0.348725
      7          1           0        0.054372    1.111856   -1.114341
      8          1           0        0.459419    1.272661    0.746404
      9          6           0       -1.853309    0.052395   -0.181648
     10          1           0       -0.670850   -1.036196    1.438553
     11          1           0       -0.147046   -1.055763   -0.367000
     12          1           0       -2.520519    1.256832    0.743244
     13          1           0       -2.757014   -1.227638   -0.632435
     14          1           0       -1.570119    0.235396   -0.906424
 ---------------------------------------------------------------------

 SCF Done:  E(RB2PLYPD3) =  -157.736089976     A.U. after   12 cycles
 E2(B2PLYPD3) =    -0.2580333344D+00 E(B2PLYPD3) =    -0.15799412331090D+03

 The electronic state is 1-A.
 Alpha  occ. eigenvalues --  -10.65563 -10.63700 -10.62358 -10.62017  -0.95061
 Alpha  occ. eigenvalues --   -0.85007  -0.75030  -0.66528  -0.56702  -0.47857
 Alpha  occ. eigenvalues --   -0.47492  -0.46397  -0.41888  -0.39608  -0.37713
 Alpha  occ. eigenvalues --   -0.37558  -0.32906
 Alpha virt. eigenvalues --    0.00736   0.05139   0.05754   0.06397   0.08893
 Alpha virt. eigenvalues --    0.09353   0.11855   0.12604   0.13979   0.14750
 Alpha virt. eigenvalues --    0.15433   0.16140   0.18297   0.18945   0.19613

 Mulliken charges:
               1
     1  C   -0.129354
     2  C   -0.069288
     3  H    0.057947
     4  H    0.047428
     5  H    0.028474
     6  C   -0.044992
     7  H    0.016898
     8  H    0.076739
     9  C   -0.377156
    10  H    0.035974
    11  H    0.058466
    12  H    0.013888
    13  H   -0.010878
    14  H    0.295854
 Sum of Mulliken charges =   0.00000

 Dipole moment (field-independent basis, Debye):
    X=              1.4811    Y=              0.1495    Z=              0.0195  Tot=              1.4887
 Quadrupole moment (field-independent basis, Debye-Ang):
   XX=            -32.6366   YY=            -29.9787   ZZ=            -29.1866
   XY=             -0.2775   XZ=              0.6525   YZ=              1.1176

 Normal termination of Gaussian 09 at Wed Aug 26 16:14:53 2020.
