 Gaussian 09, Revision D.01,
 Gaussian 09:  ES64L-G09RevD.01 24-Apr-2013

 --------------------
 #p B2PLYPD3/Def2QZVP
 --------------------

 ----------
 butane_opt
 ----------
 Symbolic Z-matrix:
 Charge =  0 Multiplicity = 1

                         Standard orientation:
 ---------------------------------------------------------------------
 Center     Atomic      Atomic             Coordinates (Angstroms)
 Number     Number       Type             X           Y           Z
 ---------------------------------------------------------------------
      1          6           0       -1.933077   -0.117921   -0.096776
      2          6           0       -0.533525    0.531067    0.071788
      3          1           0       -2.641562    0.500094   -0.226126
      4          1           0       -2.152979   -0.670093    0.852099
      5          1           0       -1.927863   -0.801402   -0.980249
      6          6           0        0.529116   -0.519368    0.198387
      7          1           0       -0.491001    1.298155    0.875072
      8          1           0       -0.195384    1.117514   -0.877205
      9          6           0        1.907416    0.107898   -0.072617
     10          1           0        0.373442   -1.138040   -0.658679
     11          1           0        0.446202   -0.970084    1.040535
     12          1           0        1.827658    0.556381   -0.927532
     13          1           0        2.773407   -0.718945   -0.419394
     14          1           0        2.168503    0.816364    0.716789
 ---------------------------------------------------------------------

 SCF Done:  E(RB2PLYPD3) =  -158.062472250     A.U. after   11 cycles
 E2(B2PLYPD3) =    -0.2464183711D+00 E(B2PLYPD3) =    -0.15830889062132D+03

 The electronic state is 1-A.
 Alpha  occ. eigenvalues --  -10.61124 -10.59724 -10.59073 -10.58309  -0.92091
 Alpha  occ. eigenvalues --   -0.83372  -0.73839  -0.67181  -0.56096  -0.50474
 Alpha  occ. eigenvalues --   -0.48675  -0.46551  -0.43585  -0.42295  -0.38242
 Alpha  occ. eigenvalues --   -0.37965  -0.37250
 Alpha virt. eigenvalues --    0.05751   0.06892   0.08299   0.08834   0.10807
 Alpha virt. eigenvalues --    0.12212   0.12916   0.13570   0.15218   0.15397
 Alpha virt. eigenvalues --    0.16150   0.16889   0.19647   0.19849   0.21796

 Mulliken charges:
               1
     1  C   -0.140243
     2  C   -0.046354
     3  H    0.060109
     4  H    0.035925
     5  H    0.035676
     6  C   -0.053456
     7  H    0.026996
     8  H    0.012504
     9  C   -0.175594
    10  H    0.042550
    11  H    0.055713
    12  H    0.072387
    13  H    0.022653
    14  H    0.051135
 Sum of Mulliken charges =   0.00000

 Dipole moment (field-independent basis, Debye):
    X=             -0.3141    Y=              0.1104    Z=             -0.0530  Tot=              0.3372
 Quadrupole moment (field-independent basis, Debye-Ang):
   XX=            -30.0702   YY=            -29.1844   ZZ=            -27.5805
   XY=             -0.0328   XZ=             -0.4416   YZ=              0.4385

 Normal termination of Gaussian 09 at Wed Aug 26 21:46:24 2020.
