 Gaussian 09, Revision D.01,
 Gaussian 09:  ES64L-G09RevD.01 24-Apr-2013

 --------------------
 #p B2PLYPD3/Def2QZVP
 --------------------

 ----------
 butane_opt
 ----------
 Symbolic Z-matrix:
 Charge =  0 Multiplicity = 1

                         Standard orientation:
 ---------------------------------------------------------------------
 Center     Atomic      Atomic             Coordinates (Angstroms)
 Number     Number       Type             X           Y           Z
 ---------------------------------------------------------------------
      1          6           0       -1.901619    0.148599    0.102202
      2          6           0       -0.526567   -0.617214   -0.019116
      3          1           0       -2.512697   -0.605865   -0.641665
      4          1           0       -1.894348    0.142011   -0.408456
      5          1           0       -2.596444    1.683416    1.390280
      6          6           0        0.565933    0.434549   -0.208326
      7          1           0       -0.204626   -1.496705   -1.001519
      8          1           0       -0.505456   -1.065037    0.782946
      9          6           0        1.850728   -0.040997    0.137477
     10          1           0        0.561616    0.753141    0.412491
     11          1           0        0.413397    1.350625   -1.563300
     12          1           0        2.156830   -0.811475    1.473194
     13          1           0        2.782283    0.910809   -0.103989
     14          1           0        1.868598   -0.410542   -0.413404
 ---------------------------------------------------------------------

 SCF Done:  E(RB2PLYPD3) =  -156.137930005     A.U. after   15 cycles
 E2(B2PLYPD3) =    -0.2719308592D+00 E(B2PLYPD3) =    -0.15640986086439D+03

 The electronic state is 1-A.
 Alpha  occ. eigenvalues --  -10.66603 -10.63480 -10.61927 -10.60337  -1.00598
 Alpha  occ. eigenvalues --   -0.96300  -0.80560  -0.73543  -0.55938  -0.48429
 Alpha  occ. eigenvalues --   -0.45956  -0.45053  -0.38596  -0.37886  -0.36914
 Alpha  occ. eigenvalues --   -0.34458  -0.32659
 Alpha virt. eigenvalues --   -0.08342   0.00168   0.03958   0.05376   0.08256
 Alpha virt. eigenvalues --    0.10127   0.10764   0.11898   0.13828   0.14773
 Alpha virt. eigenvalues --    0.15947   0.16530   0.17099   0.18157   0.19634

 Mulliken charges:
               1
     1  C   -1.099781
     2  C   -0.028085
     3  H    0.031459
     4  H    0.938289
     5  H    0.085858
     6  C   -0.672613
     7  H    0.020242
     8  H    0.107978
     9  C   -0.723593
    10  H    0.648966
    11  H    0.015927
    12  H    0.042092
    13  H    0.060523
    14  H    0.572739
 Sum of Mulliken charges =   0.00000

 Dipole moment (field-independent basis, Debye):
    X=              0.1592    Y=              0.1579    Z=             -0.2240  Tot=              0.3169
 Quadrupole moment (field-independent basis, Debye-Ang):
   XX=            -31.9076   YY=            -29.0965   ZZ=            -27.3258
   XY=             -1.8180   XZ=              0.4479   YZ=              1.2980

 Normal termination of Gaussian 09 at Wed Aug 26 11:43:43 2020.
