 Gaussian 09, Revision D.01,
 Gaussian 09:  ES64L-G09RevD.01 24-Apr-2013

 --------------------
 #p B2PLYPD3/Def2QZVP
 --------------------

 ----------
 butane_opt
 ----------
 Symbolic Z-matrix:
 Charge =  0 Multiplicity = 1

                         Standard orientation:
 ---------------------------------------------------------------------
 Center     Atomic      Atomic             Coordinates (Angstroms)
 Number     Number       Type             X           Y           Z
 ---------------------------------------------------------------------
      1          6           0       -2.058047   -0.117568   -0.171048
      2          6           0       -0.542300    0.565455    0.246360
      3          1           0       -2.534199    0.212669   -0.813668
      4          1           0       -2.814469   -0.856245    0.815517
      5          1           0       -1.774301   -0.620763   -0.822136
      6          6           0        0.602880   -0.440939    0.094799
      7          1           0       -0.374582    1.423658    1.368573
      8          1           0       -0.493999    0.962553   -0.567915
      9          6           0        1.993123    0.096317   -0.143842
     10          1           0        0.428398   -0.966983   -0.544777
     11          1           0        0.845011   -1.373788    1.253205
     12          1           0        1.895153    0.875812   -1.182336
     13          1           0        2.805623   -0.855375   -0.259768
     14          1           0        2.043433    0.578876    0.595694
 ---------------------------------------------------------------------

 SCF Done:  E(RB2PLYPD3) =  -157.656160644     A.U. after   11 cycles
 E2(B2PLYPD3) =    -0.2532891427D+00 E(B2PLYPD3) =    -0.15790944978667D+03

 The electronic state is 1-A.
 Alpha  occ. eigenvalues --  -10.64585 -10.62084 -10.61916 -10.60153  -0.94061
 Alpha  occ. eigenvalues --   -0.88039  -0.78067  -0.69921  -0.53924  -0.49508
 Alpha  occ. eigenvalues --   -0.48126  -0.45859  -0.44034  -0.41670  -0.39049
 Alpha  occ. eigenvalues --   -0.36642  -0.33368
 Alpha virt. eigenvalues --    0.04069   0.05474   0.06392   0.07121   0.09700
 Alpha virt. eigenvalues --    0.10951   0.11759   0.12127   0.14469   0.14927
 Alpha virt. eigenvalues --    0.15648   0.16991   0.17270   0.18945   0.19911

 Mulliken charges:
               1
     1  C   -0.334632
     2  C   -0.186335
     3  H    0.130461
     4  H    0.034469
     5  H    0.160660
     6  C   -0.156705
     7  H    0.031402
     8  H    0.179382
     9  C   -0.205759
    10  H    0.178409
    11  H   -0.046639
    12  H    0.009276
    13  H    0.065819
    14  H    0.140193
 Sum of Mulliken charges =   0.00000

 Dipole moment (field-independent basis, Debye):
    X=              0.0417    Y=              0.1227    Z=             -1.1590  Tot=              1.1662
 Quadrupole moment (field-independent basis, Debye-Ang):
   XX=            -30.6100   YY=            -30.3639   ZZ=            -28.1119
   XY=             -0.2044   XZ=              1.7751   YZ=              0.7296

 Normal termination of Gaussian 09 at Wed Aug 26 09:44:52 2020.
