 Gaussian 09, Revision D.01,
 Gaussian 09:  ES64L-G09RevD.01 24-Apr-2013

 --------------------
 #p B2PLYPD3/Def2QZVP
 --------------------

 ----------
 butane_opt
 ----------
 Symbolic Z-matrix:
 Charge =  0 Multiplicity = 1

                         Standard orientation:
 ---------------------------------------------------------------------
 Center     Atomic      Atomic             Coordinates (Angstroms)
 Number     Number       Type             X           Y           Z
 ---------------------------------------------------------------------
      1          6           0        1.922523    0.040540   -0.183363
      2          6           0        0.572071   -0.483990    0.155352
      3          1           0        2.662232   -0.730470   -0.090333
      4          1           0        2.105801    0.590821    0.554954
      5          1           0        2.118132    0.851219   -1.167658
      6          6           0       -0.544677    0.682121    0.218961
      7          1           0        0.887675   -1.304283    1.207451
      8          1           0        0.337932   -0.943454   -0.572679
      9          6           0       -1.998598   -0.175411   -0.134358
     10          1           0        0.009991    0.847303   -0.525463
     11          1           0       -0.436226    1.434191    1.091210
     12          1           0       -2.082731   -0.794340   -1.036532
     13          1           0       -2.822116    0.498643   -0.515809
     14          1           0       -2.488606   -0.829188    0.715302
 ---------------------------------------------------------------------

 SCF Done:  E(RB2PLYPD3) =  -157.903145911     A.U. after   11 cycles
 E2(B2PLYPD3) =    -0.2520147419D+00 E(B2PLYPD3) =    -0.15815516065279D+03

 The electronic state is 1-A.
 Alpha  occ. eigenvalues --  -10.63040 -10.62630 -10.61828 -10.59581  -0.93556
 Alpha  occ. eigenvalues --   -0.82036  -0.75017  -0.68632  -0.53594  -0.50650
 Alpha  occ. eigenvalues --   -0.46876  -0.45635  -0.43472  -0.42032  -0.38766
 Alpha  occ. eigenvalues --   -0.37673  -0.33651
 Alpha virt. eigenvalues --    0.05654   0.06274   0.07053   0.08617   0.11002
 Alpha virt. eigenvalues --    0.11922   0.12674   0.13003   0.14314   0.15142
 Alpha virt. eigenvalues --    0.15625   0.16853   0.17994   0.19895   0.20737

 Mulliken charges:
               1
     1  C   -0.176219
     2  C   -0.148783
     3  H    0.056084
     4  H    0.090277
     5  H    0.016079
     6  C   -0.165361
     7  H   -0.008013
     8  H    0.153402
     9  C   -0.134051
    10  H    0.129983
    11  H    0.061809
    12  H    0.038701
    13  H    0.030973
    14  H    0.055120
 Sum of Mulliken charges =   0.00000

 Dipole moment (field-independent basis, Debye):
    X=              0.1568    Y=              0.0332    Z=             -0.1722  Tot=              0.2352
 Quadrupole moment (field-independent basis, Debye-Ang):
   XX=            -28.9441   YY=            -29.5060   ZZ=            -28.7386
   XY=              0.5841   XZ=              0.9836   YZ=              0.7869

 Normal termination of Gaussian 09 at Wed Aug 26 12:50:14 2020.
