 Gaussian 09, Revision D.01,
 Gaussian 09:  ES64L-G09RevD.01 24-Apr-2013

 --------------------
 #p B2PLYPD3/Def2QZVP
 --------------------

 ----------
 butane_opt
 ----------
 Symbolic Z-matrix:
 Charge =  0 Multiplicity = 1

                         Standard orientation:
 ---------------------------------------------------------------------
 Center     Atomic      Atomic             Coordinates (Angstroms)
 Number     Number       Type             X           Y           Z
 ---------------------------------------------------------------------
      1          6           0       -1.938683    0.067960   -0.086682
      2          6           0       -0.584090   -0.498128    0.161291
      3          1           0       -2.644186   -0.566568   -0.530474
      4          1           0       -1.896395    0.575520   -0.873598
      5          1           0       -2.306399    0.964018    0.878581
      6          6           0        0.542203    0.561913    0.041694
      7          1           0       -0.609717   -1.074828   -0.636342
      8          1           0       -0.466466   -1.320617    1.195203
      9          6           0        1.960408   -0.141093   -0.073105
     10          1           0        0.469607    1.289767    0.853906
     11          1           0        0.464087    1.187706   -0.812373
     12          1           0        2.273909   -0.636576    0.807264
     13          1           0        2.775144    0.643466   -0.124853
     14          1           0        2.061392   -1.005799   -1.016502
 ---------------------------------------------------------------------

 SCF Done:  E(RB2PLYPD3) =  -157.996314908     A.U. after   11 cycles
 E2(B2PLYPD3) =    -0.2491984695D+00 E(B2PLYPD3) =    -0.15824551337783D+03

 The electronic state is 1-A.
 Alpha  occ. eigenvalues --  -10.62241 -10.61833 -10.61488 -10.60223  -0.91819
 Alpha  occ. eigenvalues --   -0.83662  -0.72948  -0.67693  -0.53215  -0.49387
 Alpha  occ. eigenvalues --   -0.49111  -0.46017  -0.42234  -0.39861  -0.38773
 Alpha  occ. eigenvalues --   -0.38129  -0.35907
 Alpha virt. eigenvalues --    0.05276   0.06240   0.07618   0.08254   0.10794
 Alpha virt. eigenvalues --    0.11351   0.12373   0.13138   0.14023   0.15159
 Alpha virt. eigenvalues --    0.15751   0.16658   0.18985   0.19507   0.20824

 Mulliken charges:
               1
     1  C   -0.171903
     2  C   -0.060689
     3  H    0.042010
     4  H    0.080425
     5  H    0.008239
     6  C   -0.026357
     7  H    0.074572
     8  H    0.014303
     9  C   -0.151557
    10  H    0.034246
    11  H    0.038212
    12  H    0.052202
    13  H    0.038245
    14  H    0.028053
 Sum of Mulliken charges =   0.00000

 Dipole moment (field-independent basis, Debye):
    X=              0.1069    Y=              0.1163    Z=             -0.5857  Tot=              0.6066
 Quadrupole moment (field-independent basis, Debye-Ang):
   XX=            -30.5900   YY=            -28.9300   ZZ=            -28.4890
   XY=              0.7029   XZ=              2.1537   YZ=              0.4984

 Normal termination of Gaussian 09 at Wed Aug 26 11:55:47 2020.
