 Gaussian 09, Revision D.01,
 Gaussian 09:  ES64L-G09RevD.01 24-Apr-2013

 --------------------
 #p B2PLYPD3/Def2QZVP
 --------------------

 ----------
 butane_opt
 ----------
 Symbolic Z-matrix:
 Charge =  0 Multiplicity = 1

                         Standard orientation:
 ---------------------------------------------------------------------
 Center     Atomic      Atomic             Coordinates (Angstroms)
 Number     Number       Type             X           Y           Z
 ---------------------------------------------------------------------
      1          6           0        1.942316   -0.210834   -0.115411
      2          6           0        0.595852    0.534531    0.114346
      3          1           0        2.790506    0.684177   -0.252131
      4          1           0        1.831980   -0.815367   -1.054832
      5          1           0        2.010725   -0.561827    0.672250
      6          6           0       -0.569978   -0.446649    0.222193
      7          1           0       -0.136445    1.066159   -0.848216
      8          1           0        0.574802    1.140103    0.933315
      9          6           0       -1.889540    0.094968   -0.096392
     10          1           0       -0.614419   -1.031902    1.235013
     11          1           0       -0.417550   -1.039274   -0.492768
     12          1           0       -2.177727    0.846226    0.750870
     13          1           0       -2.733948   -0.777569   -0.632027
     14          1           0       -1.599832    0.657176   -1.059888
 ---------------------------------------------------------------------

 SCF Done:  E(RB2PLYPD3) =  -157.936791875     A.U. after   11 cycles
 E2(B2PLYPD3) =    -0.2525519386D+00 E(B2PLYPD3) =    -0.15818934381360D+03

 The electronic state is 1-A.
 Alpha  occ. eigenvalues --  -10.63377 -10.61776 -10.60429 -10.58916  -0.93457
 Alpha  occ. eigenvalues --   -0.84962  -0.71859  -0.66457  -0.56777  -0.51762
 Alpha  occ. eigenvalues --   -0.49079  -0.46879  -0.42715  -0.39715  -0.39091
 Alpha  occ. eigenvalues --   -0.36573  -0.34184
 Alpha virt. eigenvalues --    0.05031   0.06500   0.07980   0.08328   0.09843
 Alpha virt. eigenvalues --    0.11639   0.12251   0.12958   0.14536   0.15008
 Alpha virt. eigenvalues --    0.15923   0.16086   0.18213   0.19425   0.20979

 Mulliken charges:
               1
     1  C   -0.244861
     2  C   -0.069938
     3  H    0.034401
     4  H    0.067977
     5  H    0.155035
     6  C   -0.050877
     7  H    0.000119
     8  H    0.058480
     9  C   -0.158986
    10  H    0.004258
    11  H    0.082890
    12  H    0.051815
    13  H    0.040160
    14  H    0.029527
 Sum of Mulliken charges =   0.00000

 Dipole moment (field-independent basis, Debye):
    X=              0.1997    Y=             -0.2710    Z=              0.1472  Tot=              0.3674
 Quadrupole moment (field-independent basis, Debye-Ang):
   XX=            -31.0925   YY=            -30.1351   ZZ=            -28.0097
   XY=              0.0974   XZ=              0.7687   YZ=              1.4203

 Normal termination of Gaussian 09 at Wed Aug 26 23:00:07 2020.
