 Gaussian 09, Revision D.01,
 Gaussian 09:  ES64L-G09RevD.01 24-Apr-2013

 --------------------
 #p B2PLYPD3/Def2QZVP
 --------------------

 ----------
 butane_opt
 ----------
 Symbolic Z-matrix:
 Charge =  0 Multiplicity = 1

                         Standard orientation:
 ---------------------------------------------------------------------
 Center     Atomic      Atomic             Coordinates (Angstroms)
 Number     Number       Type             X           Y           Z
 ---------------------------------------------------------------------
      1          6           0       -1.856517   -0.033991   -0.154609
      2          6           0       -0.532437   -0.398358    0.277883
      3          1           0       -2.582123   -0.714307   -0.452231
      4          1           0       -1.700763    0.419766   -1.100619
      5          1           0       -2.309579    1.056341    0.748723
      6          6           0        0.442120    0.590915    0.059465
      7          1           0       -0.261873   -1.074691   -0.333117
      8          1           0       -0.685256   -0.897344    1.200425
      9          6           0        1.944795   -0.160570   -0.091846
     10          1           0        0.679802    1.352750    0.841708
     11          1           0        0.089324    0.954666   -0.851443
     12          1           0        2.409035   -0.628046    0.731269
     13          1           0        2.627614    0.424237   -0.488799
     14          1           0        1.746054   -0.881345   -0.841275
 ---------------------------------------------------------------------

 SCF Done:  E(RB2PLYPD3) =  -157.993309600     A.U. after   11 cycles
 E2(B2PLYPD3) =    -0.2485318707D+00 E(B2PLYPD3) =    -0.15824184147098D+03

 The electronic state is 1-A.
 Alpha  occ. eigenvalues --  -10.61832 -10.60734 -10.58449 -10.57339  -0.95364
 Alpha  occ. eigenvalues --   -0.83204  -0.74978  -0.68289  -0.56896  -0.52831
 Alpha  occ. eigenvalues --   -0.49329  -0.46859  -0.43495  -0.42042  -0.39170
 Alpha  occ. eigenvalues --   -0.37443  -0.34587
 Alpha virt. eigenvalues --    0.05071   0.06704   0.08461   0.08585   0.10750
 Alpha virt. eigenvalues --    0.11244   0.12577   0.13168   0.13969   0.16082
 Alpha virt. eigenvalues --    0.16662   0.17599   0.19108   0.19711   0.21772

 Mulliken charges:
               1
     1  C   -0.156542
     2  C   -0.040860
     3  H    0.062714
     4  H    0.030267
     5  H   -0.011238
     6  C   -0.059754
     7  H    0.067108
     8  H    0.030734
     9  C   -0.148006
    10  H    0.034447
    11  H    0.065749
    12  H    0.049357
    13  H    0.046298
    14  H    0.029727
 Sum of Mulliken charges =   0.00000

 Dipole moment (field-independent basis, Debye):
    X=              0.3808    Y=             -0.5478    Z=             -0.4831  Tot=              0.8237
 Quadrupole moment (field-independent basis, Debye-Ang):
   XX=            -30.0234   YY=            -29.2452   ZZ=            -28.0442
   XY=              1.4585   XZ=              1.2519   YZ=              0.2814

 Normal termination of Gaussian 09 at Wed Aug 26 09:45:54 2020.
