 Gaussian 09, Revision D.01,
 Gaussian 09:  ES64L-G09RevD.01 24-Apr-2013

 --------------------
 #p B2PLYPD3/Def2QZVP
 --------------------

 ----------
 butane_opt
 ----------
 Symbolic Z-matrix:
 Charge =  0 Multiplicity = 1

                         Standard orientation:
 ---------------------------------------------------------------------
 Center     Atomic      Atomic             Coordinates (Angstroms)
 Number     Number       Type             X           Y           Z
 ---------------------------------------------------------------------
      1          6           0       -1.971341   -0.143418    0.006461
      2          6           0       -0.610181    0.521047    0.003836
      3          1           0       -2.716698    0.616860   -0.265452
      4          1           0       -2.260583   -0.722511    0.887195
      5          1           0       -2.136771   -0.797620   -0.895973
      6          6           0        0.600632   -0.473766    0.124693
      7          1           0       -0.462116    1.246103    0.860278
      8          1           0       -0.449062    1.119678   -0.892117
      9          6           0        1.981354    0.125391   -0.045161
     10          1           0        0.495102   -1.223018   -0.854666
     11          1           0        0.554278   -1.092386    1.036226
     12          1           0        1.771729    0.550792   -0.802592
     13          1           0        2.764184   -0.698894   -0.398436
     14          1           0        2.437150    0.825470    0.786556
 ---------------------------------------------------------------------

 SCF Done:  E(RB2PLYPD3) =  -158.054397319     A.U. after   11 cycles
 E2(B2PLYPD3) =    -0.2478488271D+00 E(B2PLYPD3) =    -0.15830224614646D+03

 The electronic state is 1-A.
 Alpha  occ. eigenvalues --  -10.62191 -10.61629 -10.60606 -10.59319  -0.90961
 Alpha  occ. eigenvalues --   -0.84282  -0.72671  -0.65645  -0.53674  -0.50222
 Alpha  occ. eigenvalues --   -0.48105  -0.47038  -0.43544  -0.40621  -0.39067
 Alpha  occ. eigenvalues --   -0.38492  -0.35287
 Alpha virt. eigenvalues --    0.05645   0.06667   0.08070   0.08550   0.10516
 Alpha virt. eigenvalues --    0.11780   0.12578   0.13328   0.15016   0.15291
 Alpha virt. eigenvalues --    0.15831   0.16648   0.18968   0.19994   0.21442

 Mulliken charges:
               1
     1  C   -0.134107
     2  C   -0.040334
     3  H    0.039530
     4  H    0.057573
     5  H    0.028042
     6  C   -0.038781
     7  H    0.026135
     8  H    0.034010
     9  C   -0.222523
    10  H    0.006987
    11  H    0.037322
    12  H    0.125445
    13  H    0.040202
    14  H    0.040500
 Sum of Mulliken charges =   0.00000

 Dipole moment (field-independent basis, Debye):
    X=             -0.1996    Y=              0.1974    Z=             -0.1466  Tot=              0.3167
 Quadrupole moment (field-independent basis, Debye-Ang):
   XX=            -29.6505   YY=            -29.4318   ZZ=            -28.1311
   XY=              0.0727   XZ=              0.2259   YZ=             -0.1348

 Normal termination of Gaussian 09 at Wed Aug 26 22:40:53 2020.
