 Gaussian 09, Revision D.01,
 Gaussian 09:  ES64L-G09RevD.01 24-Apr-2013

 --------------------
 #p B2PLYPD3/Def2QZVP
 --------------------

 ----------
 butane_opt
 ----------
 Symbolic Z-matrix:
 Charge =  0 Multiplicity = 1

                         Standard orientation:
 ---------------------------------------------------------------------
 Center     Atomic      Atomic             Coordinates (Angstroms)
 Number     Number       Type             X           Y           Z
 ---------------------------------------------------------------------
      1          6           0        1.970586    0.150811   -0.146385
      2          6           0        0.564544   -0.659184    0.107098
      3          1           0        2.672056   -0.360415   -0.351178
      4          1           0        2.521675    0.530623    0.575160
      5          1           0        1.983037    1.119770   -1.059668
      6          6           0       -0.591620    0.441102    0.331749
      7          1           0        0.732023   -1.309803    0.900436
      8          1           0        0.070481   -1.223382   -0.799752
      9          6           0       -1.967929   -0.064761   -0.196969
     10          1           0       -0.191178    1.249301   -0.401593
     11          1           0       -0.597768    1.315973    1.495050
     12          1           0       -1.877476   -0.450844   -0.904471
     13          1           0       -2.760722    0.875173   -0.733531
     14          1           0       -2.405613   -0.954209    0.706589
 ---------------------------------------------------------------------

 SCF Done:  E(RB2PLYPD3) =  -157.811713913     A.U. after   11 cycles
 E2(B2PLYPD3) =    -0.2534410292D+00 E(B2PLYPD3) =    -0.15806515494240D+03

 The electronic state is 1-A.
 Alpha  occ. eigenvalues --  -10.65477 -10.64211 -10.62548 -10.59946  -0.89884
 Alpha  occ. eigenvalues --   -0.84751  -0.76281  -0.66376  -0.52610  -0.49752
 Alpha  occ. eigenvalues --   -0.46860  -0.45792  -0.42302  -0.39602  -0.38860
 Alpha  occ. eigenvalues --   -0.36705  -0.34730
 Alpha virt. eigenvalues --    0.04309   0.05915   0.06447   0.08135   0.10264
 Alpha virt. eigenvalues --    0.10583   0.11413   0.13614   0.13689   0.14984
 Alpha virt. eigenvalues --    0.16418   0.16682   0.17848   0.18865   0.20191

 Mulliken charges:
               1
     1  C   -0.156752
     2  C   -0.038885
     3  H    0.083307
     4  H    0.042859
     5  H    0.004551
     6  C   -0.030382
     7  H    0.054889
     8  H    0.044502
     9  C   -0.355646
    10  H    0.031840
    11  H    0.007679
    12  H    0.239829
    13  H    0.031762
    14  H    0.040448
 Sum of Mulliken charges =   0.00000

 Dipole moment (field-independent basis, Debye):
    X=              0.7608    Y=             -0.5902    Z=             -0.3757  Tot=              1.0336
 Quadrupole moment (field-independent basis, Debye-Ang):
   XX=            -29.5577   YY=            -29.3338   ZZ=            -29.3852
   XY=              0.1756   XZ=              2.0100   YZ=             -0.8030

 Normal termination of Gaussian 09 at Wed Aug 26 13:40:05 2020.
