 Gaussian 09, Revision D.01,
 Gaussian 09:  ES64L-G09RevD.01 24-Apr-2013

 --------------------
 #p B2PLYPD3/Def2QZVP
 --------------------

 ----------
 butane_opt
 ----------
 Symbolic Z-matrix:
 Charge =  0 Multiplicity = 1

                         Standard orientation:
 ---------------------------------------------------------------------
 Center     Atomic      Atomic             Coordinates (Angstroms)
 Number     Number       Type             X           Y           Z
 ---------------------------------------------------------------------
      1          6           0       -1.909078   -0.168467   -0.165961
      2          6           0       -0.558356    0.536110    0.242460
      3          1           0       -2.746308    0.614719   -0.838834
      4          1           0       -2.751550   -1.074273    0.886837
      5          1           0       -1.379164   -0.656249   -1.001029
      6          6           0        0.545305   -0.476463    0.179145
      7          1           0       -0.608836    1.534353    1.346767
      8          1           0       -0.390032    1.061838   -0.539378
      9          6           0        1.968494    0.115590   -0.118472
     10          1           0        0.320293   -1.075652   -0.816979
     11          1           0        0.690574   -1.092495    1.047943
     12          1           0        1.578224    0.996112   -1.244831
     13          1           0        2.797450   -0.794705   -0.258359
     14          1           0        2.211156    0.445736    0.594830
 ---------------------------------------------------------------------

 SCF Done:  E(RB2PLYPD3) =  -157.767940336     A.U. after   11 cycles
 E2(B2PLYPD3) =    -0.2586109859D+00 E(B2PLYPD3) =    -0.15802655132180D+03

 The electronic state is 1-A.
 Alpha  occ. eigenvalues --  -10.67642 -10.64349 -10.62988 -10.62697  -0.93156
 Alpha  occ. eigenvalues --   -0.84094  -0.71921  -0.66079  -0.54940  -0.49418
 Alpha  occ. eigenvalues --   -0.47279  -0.45818  -0.40201  -0.38874  -0.36887
 Alpha  occ. eigenvalues --   -0.36234  -0.35724
 Alpha virt. eigenvalues --    0.02337   0.03786   0.05397   0.07086   0.08837
 Alpha virt. eigenvalues --    0.09706   0.10798   0.12269   0.13596   0.14410
 Alpha virt. eigenvalues --    0.15832   0.16271   0.17229   0.18987   0.19865

 Mulliken charges:
               1
     1  C   -0.177896
     2  C   -0.129497
     3  H    0.035516
     4  H    0.029572
     5  H    0.082108
     6  C   -0.021052
     7  H   -0.004056
     8  H    0.132776
     9  C   -0.294821
    10  H    0.037290
    11  H    0.047169
    12  H    0.010589
    13  H    0.043306
    14  H    0.208996
 Sum of Mulliken charges =   0.00000

 Dipole moment (field-independent basis, Debye):
    X=              0.5831    Y=             -0.2071    Z=             -0.1729  Tot=              0.6425
 Quadrupole moment (field-independent basis, Debye-Ang):
   XX=            -31.9076   YY=            -30.8179   ZZ=            -29.2687
   XY=             -1.4650   XZ=              1.9587   YZ=             -0.7384

 Normal termination of Gaussian 09 at Wed Aug 26 15:22:14 2020.
