 Gaussian 09, Revision D.01,
 Gaussian 09:  ES64L-G09RevD.01 24-Apr-2013

 --------------------
 #p B2PLYPD3/Def2QZVP
 --------------------

 ----------
 butane_opt
 ----------
 Symbolic Z-matrix:
 Charge =  0 Multiplicity = 1

                         Standard orientation:
 ---------------------------------------------------------------------
 Center     Atomic      Atomic             Coordinates (Angstroms)
 Number     Number       Type             X           Y           Z
 ---------------------------------------------------------------------
      1          6           0        1.806403    0.042249   -0.119293
      2          6           0        0.546420   -0.473748    0.118049
      3          1           0        2.679016   -0.857948   -0.566212
      4          1           0        2.509856    1.151697    0.971776
      5          1           0        1.880332    0.472376   -0.892765
      6          6           0       -0.499081    0.569379    0.034723
      7          1           0        0.527495   -1.367677    1.157762
      8          1           0        0.273719   -0.905904   -0.541269
      9          6           0       -1.925546   -0.180798    0.016618
     10          1           0       -0.463956    1.034493   -0.784264
     11          1           0       -0.195171    1.434221    0.922129
     12          1           0       -1.908557   -0.666426   -0.931178
     13          1           0       -2.734266    0.655850   -0.522455
     14          1           0       -2.137642   -0.693171    0.885896
 ---------------------------------------------------------------------

 SCF Done:  E(RB2PLYPD3) =  -157.774062446     A.U. after   12 cycles
 E2(B2PLYPD3) =    -0.2544719913D+00 E(B2PLYPD3) =    -0.15802853443714D+03

 The electronic state is 1-A.
 Alpha  occ. eigenvalues --  -10.64290 -10.62503 -10.61768 -10.60207  -0.96723
 Alpha  occ. eigenvalues --   -0.84559  -0.74083  -0.69561  -0.57624  -0.53938
 Alpha  occ. eigenvalues --   -0.48466  -0.47590  -0.41665  -0.39758  -0.37809
 Alpha  occ. eigenvalues --   -0.35520  -0.33876
 Alpha virt. eigenvalues --    0.01701   0.05422   0.06975   0.07458   0.08874
 Alpha virt. eigenvalues --    0.10438   0.11475   0.12426   0.14167   0.14849
 Alpha virt. eigenvalues --    0.15827   0.16665   0.17868   0.18709   0.20002

 Mulliken charges:
               1
     1  C   -0.196237
     2  C   -0.192409
     3  H    0.017222
     4  H   -0.016563
     5  H    0.125795
     6  C   -0.080552
     7  H    0.017253
     8  H    0.228574
     9  C   -0.184373
    10  H    0.083993
    11  H    0.025582
    12  H    0.054664
    13  H    0.023503
    14  H    0.093548
 Sum of Mulliken charges =   0.00000

 Dipole moment (field-independent basis, Debye):
    X=             -0.6510    Y=             -0.4001    Z=             -1.3172  Tot=              1.5228
 Quadrupole moment (field-independent basis, Debye-Ang):
   XX=            -32.9723   YY=            -30.1387   ZZ=            -28.1210
   XY=              0.3078   XZ=             -0.8737   YZ=             -0.6064

 Normal termination of Gaussian 09 at Wed Aug 26 15:19:14 2020.
