 Gaussian 09, Revision D.01,
 Gaussian 09:  ES64L-G09RevD.01 24-Apr-2013

 --------------------
 #p B2PLYPD3/Def2QZVP
 --------------------

 ----------
 butane_opt
 ----------
 Symbolic Z-matrix:
 Charge =  0 Multiplicity = 1

                         Standard orientation:
 ---------------------------------------------------------------------
 Center     Atomic      Atomic             Coordinates (Angstroms)
 Number     Number       Type             X           Y           Z
 ---------------------------------------------------------------------
      1          6           0       -1.972023   -0.182507   -0.089361
      2          6           0       -0.471760    0.614029   -0.038057
      3          1           0       -2.700512    0.456292    0.071783
      4          1           0       -2.209545   -0.607214    0.786061
      5          1           0       -2.105346   -0.806908   -0.840039
      6          6           0        0.618857   -0.478909    0.161464
      7          1           0       -0.466855    1.402267    0.854076
      8          1           0       -0.297542    0.996376   -0.825530
      9          6           0        1.863147    0.063557   -0.081261
     10          1           0        0.802233   -0.848684   -0.390199
     11          1           0        0.416114   -1.381436    1.211602
     12          1           0        1.380593    0.416116   -0.865003
     13          1           0        2.600536   -0.716821   -0.791244
     14          1           0        2.351000    0.992988    1.071787
 ---------------------------------------------------------------------

 SCF Done:  E(RB2PLYPD3) =  -157.570904992     A.U. after   12 cycles
 E2(B2PLYPD3) =    -0.2535749548D+00 E(B2PLYPD3) =    -0.15782447994716D+03

 The electronic state is 1-A.
 Alpha  occ. eigenvalues --  -10.64860 -10.61687 -10.59610 -10.57428  -1.02175
 Alpha  occ. eigenvalues --   -0.85880  -0.76437  -0.67806  -0.56510  -0.52496
 Alpha  occ. eigenvalues --   -0.50155  -0.47701  -0.43765  -0.41770  -0.38036
 Alpha  occ. eigenvalues --   -0.34855  -0.34301
 Alpha virt. eigenvalues --    0.02952   0.06380   0.07220   0.08120   0.10068
 Alpha virt. eigenvalues --    0.10755   0.11867   0.13809   0.14354   0.14620
 Alpha virt. eigenvalues --    0.16068   0.17354   0.18606   0.18665   0.21014

 Mulliken charges:
               1
     1  C   -0.134324
     2  C   -0.088570
     3  H    0.035590
     4  H    0.039588
     5  H    0.056456
     6  C   -0.620368
     7  H    0.034957
     8  H    0.128438
     9  C   -0.158901
    10  H    0.570572
    11  H    0.001794
    12  H    0.090762
    13  H    0.031972
    14  H    0.012032
 Sum of Mulliken charges =   0.00000

 Dipole moment (field-independent basis, Debye):
    X=             -0.6396    Y=              0.0002    Z=             -0.8448  Tot=              1.0596
 Quadrupole moment (field-independent basis, Debye-Ang):
   XX=            -30.8071   YY=            -29.7052   ZZ=            -27.7714
   XY=             -0.8553   XZ=             -1.7663   YZ=              1.3097

 Normal termination of Gaussian 09 at Wed Aug 26 11:30:47 2020.
