 Gaussian 09, Revision D.01,
 Gaussian 09:  ES64L-G09RevD.01 24-Apr-2013

 --------------------
 #p B2PLYPD3/Def2QZVP
 --------------------

 ----------
 butane_opt
 ----------
 Symbolic Z-matrix:
 Charge =  0 Multiplicity = 1

                         Standard orientation:
 ---------------------------------------------------------------------
 Center     Atomic      Atomic             Coordinates (Angstroms)
 Number     Number       Type             X           Y           Z
 ---------------------------------------------------------------------
      1          6           0        2.003059   -0.193712   -0.072606
      2          6           0        0.489049    0.526599    0.180385
      3          1           0        2.719361    0.514403   -0.709630
      4          1           0        1.649011   -0.492444   -0.769491
      5          1           0        2.583758   -0.860224    0.880314
      6          6           0       -0.580745   -0.412327    0.101409
      7          1           0        0.164685    1.318889   -0.764159
      8          1           0        0.298444    1.310322    0.999218
      9          6           0       -1.848966    0.093259   -0.162545
     10          1           0       -0.706123   -0.986607    1.019285
     11          1           0       -0.374394   -1.290406   -0.795907
     12          1           0       -2.046664    0.835766    0.770399
     13          1           0       -2.881867   -1.061274   -0.021387
     14          1           0       -1.780595    0.628663   -0.888491
 ---------------------------------------------------------------------

 SCF Done:  E(RB2PLYPD3) =  -157.825087391     A.U. after   11 cycles
 E2(B2PLYPD3) =    -0.2548510078D+00 E(B2PLYPD3) =    -0.15807993839867D+03

 The electronic state is 1-A.
 Alpha  occ. eigenvalues --  -10.64446 -10.62588 -10.62217 -10.61155  -0.94973
 Alpha  occ. eigenvalues --   -0.85165  -0.74364  -0.66033  -0.55531  -0.49483
 Alpha  occ. eigenvalues --   -0.49001  -0.46611  -0.42601  -0.40494  -0.37163
 Alpha  occ. eigenvalues --   -0.36105  -0.34471
 Alpha virt. eigenvalues --    0.03328   0.05644   0.06632   0.07365   0.09513
 Alpha virt. eigenvalues --    0.10725   0.11284   0.12758   0.14301   0.14947
 Alpha virt. eigenvalues --    0.15921   0.16659   0.18251   0.19202   0.20018

 Mulliken charges:
               1
     1  C   -0.339548
     2  C   -0.074431
     3  H    0.041028
     4  H    0.241410
     5  H    0.083126
     6  C    0.028528
     7  H   -0.014478
     8  H    0.043475
     9  C   -0.202537
    10  H    0.036574
    11  H   -0.005751
    12  H    0.029303
    13  H    0.018199
    14  H    0.115102
 Sum of Mulliken charges =   0.00000

 Dipole moment (field-independent basis, Debye):
    X=              0.3616    Y=              0.0585    Z=              0.0474  Tot=              0.3694
 Quadrupole moment (field-independent basis, Debye-Ang):
   XX=            -31.5490   YY=            -29.9407   ZZ=            -28.6176
   XY=             -0.6896   XZ=             -0.2718   YZ=             -0.6575

 Normal termination of Gaussian 09 at Wed Aug 26 15:48:14 2020.
