 Gaussian 09, Revision D.01,
 Gaussian 09:  ES64L-G09RevD.01 24-Apr-2013

 --------------------
 #p B2PLYPD3/Def2QZVP
 --------------------

 ----------
 butane_opt
 ----------
 Symbolic Z-matrix:
 Charge =  0 Multiplicity = 1

                         Standard orientation:
 ---------------------------------------------------------------------
 Center     Atomic      Atomic             Coordinates (Angstroms)
 Number     Number       Type             X           Y           Z
 ---------------------------------------------------------------------
      1          6           0       -1.891305   -0.101562   -0.139981
      2          6           0       -0.650929    0.514135    0.166387
      3          1           0       -2.827274    0.892956   -0.645592
      4          1           0       -2.544924   -1.127163    0.903343
      5          1           0       -1.717442   -0.402570   -0.816194
      6          6           0        0.536835   -0.640962   -0.033739
      7          1           0       -0.544156    1.493210    1.411525
      8          1           0       -0.449308    0.944737   -0.542728
      9          6           0        1.997127    0.148979   -0.019669
     10          1           0        0.645508   -1.107078   -0.826077
     11          1           0        0.286224   -1.350731    0.923150
     12          1           0        2.346116    1.134473   -1.050296
     13          1           0        2.650485   -0.494920   -0.088109
     14          1           0        2.204404    0.493547    0.892993
 ---------------------------------------------------------------------

 SCF Done:  E(RB2PLYPD3) =  -157.581524398     A.U. after   12 cycles
 E2(B2PLYPD3) =    -0.2566421951D+00 E(B2PLYPD3) =    -0.15783816659293D+03

 The electronic state is 1-A.
 Alpha  occ. eigenvalues --  -10.64163 -10.63430 -10.63281 -10.61473  -0.95413
 Alpha  occ. eigenvalues --   -0.85742  -0.74999  -0.70218  -0.55665  -0.52451
 Alpha  occ. eigenvalues --   -0.46559  -0.44650  -0.43817  -0.39085  -0.38460
 Alpha  occ. eigenvalues --   -0.36317  -0.32955
 Alpha virt. eigenvalues --    0.01563   0.04670   0.05753   0.06914   0.07743
 Alpha virt. eigenvalues --    0.10244   0.11243   0.13128   0.13209   0.14547
 Alpha virt. eigenvalues --    0.14968   0.16131   0.17689   0.18090   0.19619

 Mulliken charges:
               1
     1  C   -0.475338
     2  C   -0.192716
     3  H    0.010608
     4  H    0.020569
     5  H    0.385205
     6  C   -0.114372
     7  H    0.005259
     8  H    0.243148
     9  C   -0.175811
    10  H    0.096201
    11  H    0.040045
    12  H    0.011074
    13  H    0.082068
    14  H    0.064060
 Sum of Mulliken charges =   0.00000

 Dipole moment (field-independent basis, Debye):
    X=              0.8029    Y=             -0.5145    Z=             -0.6002  Tot=              1.1268
 Quadrupole moment (field-independent basis, Debye-Ang):
   XX=            -31.9903   YY=            -29.9288   ZZ=            -28.5291
   XY=             -0.3882   XZ=              0.7036   YZ=             -0.3745

 Normal termination of Gaussian 09 at Wed Aug 26 20:16:47 2020.
