 Gaussian 09, Revision D.01,
 Gaussian 09:  ES64L-G09RevD.01 24-Apr-2013

 --------------------
 #p B2PLYPD3/Def2QZVP
 --------------------

 ----------
 butane_opt
 ----------
 Symbolic Z-matrix:
 Charge =  0 Multiplicity = 1

                         Standard orientation:
 ---------------------------------------------------------------------
 Center     Atomic      Atomic             Coordinates (Angstroms)
 Number     Number       Type             X           Y           Z
 ---------------------------------------------------------------------
      1          6           0       -2.054539   -0.168829    0.189407
      2          6           0       -0.540004    0.657699   -0.166638
      3          1           0       -2.628521    0.297415    0.813511
      4          1           0       -1.562589   -0.704240    0.866892
      5          1           0       -2.866518   -0.805037   -0.976632
      6          6           0        0.553226   -0.439195   -0.218476
      7          1           0       -0.212850    0.794120    0.346171
      8          1           0       -0.468565    1.658148   -1.127887
      9          6           0        1.936838    0.047417    0.142765
     10          1           0        0.850183   -1.017945   -1.129400
     11          1           0        0.468601   -1.330184    0.521358
     12          1           0        2.398221    0.285440   -0.456064
     13          1           0        2.680476   -0.549758    0.050525
     14          1           0        1.968438    0.789490    1.409173
 ---------------------------------------------------------------------

 SCF Done:  E(RB2PLYPD3) =  -157.311700172     A.U. after   12 cycles
 E2(B2PLYPD3) =    -0.2552642298D+00 E(B2PLYPD3) =    -0.15756696440148D+03

 The electronic state is 1-A.
 Alpha  occ. eigenvalues --  -10.63496 -10.62721 -10.62312 -10.58841  -0.96200
 Alpha  occ. eigenvalues --   -0.89551  -0.79098  -0.71698  -0.53287  -0.50929
 Alpha  occ. eigenvalues --   -0.46952  -0.46353  -0.41758  -0.39393  -0.37240
 Alpha  occ. eigenvalues --   -0.36107  -0.35820
 Alpha virt. eigenvalues --    0.03480   0.05273   0.06715   0.07563   0.09447
 Alpha virt. eigenvalues --    0.10495   0.11641   0.13295   0.14219   0.15332
 Alpha virt. eigenvalues --    0.16524   0.17066   0.17616   0.18584   0.20252

 Mulliken charges:
               1
     1  C   -0.192447
     2  C   -0.798135
     3  H    0.077216
     4  H    0.094243
     5  H    0.048797
     6  C    0.022053
     7  H    0.728205
     8  H    0.046840
     9  C   -0.351005
    10  H    0.008493
    11  H    0.029228
    12  H    0.213208
    13  H    0.064352
    14  H    0.008953
 Sum of Mulliken charges =   0.00000

 Dipole moment (field-independent basis, Debye):
    X=              0.5263    Y=             -0.3522    Z=              0.0119  Tot=              0.6334
 Quadrupole moment (field-independent basis, Debye-Ang):
   XX=            -27.6054   YY=            -30.2003   ZZ=            -28.2146
   XY=             -1.0281   XZ=             -2.2183   YZ=              0.2368

 Normal termination of Gaussian 09 at Wed Aug 26 21:43:44 2020.
