 Gaussian 09, Revision D.01,
 Gaussian 09:  ES64L-G09RevD.01 24-Apr-2013

 --------------------
 #p B2PLYPD3/Def2QZVP
 --------------------

 ----------
 butane_opt
 ----------
 Symbolic Z-matrix:
 Charge =  0 Multiplicity = 1

                         Standard orientation:
 ---------------------------------------------------------------------
 Center     Atomic      Atomic             Coordinates (Angstroms)
 Number     Number       Type             X           Y           Z
 ---------------------------------------------------------------------
      1          6           0        1.807306    0.074980   -0.129319
      2          6           0        0.629734   -0.491001    0.093871
      3          1           0        2.610801   -0.771860    0.065417
      4          1           0        2.049533    0.726667    0.677687
      5          1           0        1.799290    0.738823   -1.045672
      6          6           0       -0.488366    0.600191    0.168865
      7          1           0        0.698367   -1.076539    0.941569
      8          1           0        0.292057   -1.208632   -0.812277
      9          6           0       -1.930720   -0.216790   -0.067912
     10          1           0       -0.090784    1.245354   -0.519531
     11          1           0       -0.530962    1.270739    1.028856
     12          1           0       -1.621022   -0.553716   -0.732803
     13          1           0       -2.644889    0.529993   -0.860473
     14          1           0       -2.670106   -0.705104    0.864196
 ---------------------------------------------------------------------

 SCF Done:  E(RB2PLYPD3) =  -157.890212423     A.U. after   11 cycles
 E2(B2PLYPD3) =    -0.2512480879D+00 E(B2PLYPD3) =    -0.15814146051125D+03

 The electronic state is 1-A.
 Alpha  occ. eigenvalues --  -10.61598 -10.60903 -10.59722 -10.59599  -0.94573
 Alpha  occ. eigenvalues --   -0.84999  -0.73565  -0.67191  -0.56330  -0.50179
 Alpha  occ. eigenvalues --   -0.49001  -0.48071  -0.42492  -0.41409  -0.38223
 Alpha  occ. eigenvalues --   -0.36471  -0.33835
 Alpha virt. eigenvalues --    0.05403   0.06278   0.07859   0.08282   0.10023
 Alpha virt. eigenvalues --    0.10875   0.12390   0.13119   0.14675   0.15501
 Alpha virt. eigenvalues --    0.16390   0.16947   0.18381   0.19382   0.21366

 Mulliken charges:
               1
     1  C   -0.159173
     2  C    0.004142
     3  H    0.034807
     4  H    0.053632
     5  H    0.040029
     6  C   -0.066820
     7  H    0.039322
     8  H    0.009604
     9  C   -0.424756
    10  H    0.048390
    11  H    0.031196
    12  H    0.286941
    13  H    0.003735
    14  H    0.098950
 Sum of Mulliken charges =   0.00000

 Dipole moment (field-independent basis, Debye):
    X=              0.3243    Y=             -0.0805    Z=              0.2802  Tot=              0.4360
 Quadrupole moment (field-independent basis, Debye-Ang):
   XX=            -30.8316   YY=            -29.1419   ZZ=            -28.0824
   XY=              0.7420   XZ=             -0.0497   YZ=             -0.6348

 Normal termination of Gaussian 09 at Wed Aug 26 22:36:11 2020.
