 Gaussian 09, Revision D.01,
 Gaussian 09:  ES64L-G09RevD.01 24-Apr-2013

 --------------------
 #p B2PLYPD3/Def2QZVP
 --------------------

 ----------
 butane_opt
 ----------
 Symbolic Z-matrix:
 Charge =  0 Multiplicity = 1

                         Standard orientation:
 ---------------------------------------------------------------------
 Center     Atomic      Atomic             Coordinates (Angstroms)
 Number     Number       Type             X           Y           Z
 ---------------------------------------------------------------------
      1          6           0       -1.937104   -0.129651    0.052314
      2          6           0       -0.462418    0.558633   -0.101597
      3          1           0       -2.807323    0.590441    0.292109
      4          1           0       -1.983517   -1.072999    1.101671
      5          1           0       -2.410688   -0.656765   -0.692625
      6          6           0        0.536563   -0.483655   -0.214718
      7          1           0       -0.230154    1.428168    0.940519
      8          1           0       -0.195012    1.212587   -0.846660
      9          6           0        1.822341    0.085068    0.127518
     10          1           0        0.530888   -1.170051   -1.191056
     11          1           0        0.544643   -0.929151    0.470607
     12          1           0        2.367721    0.933841   -0.834360
     13          1           0        2.768193   -0.939963    0.669431
     14          1           0        1.658960    0.421522    0.909254
 ---------------------------------------------------------------------

 SCF Done:  E(RB2PLYPD3) =  -157.779050444     A.U. after   11 cycles
 E2(B2PLYPD3) =    -0.2538498442D+00 E(B2PLYPD3) =    -0.15803290028783D+03

 The electronic state is 1-A.
 Alpha  occ. eigenvalues --  -10.64594 -10.64408 -10.63645 -10.58235  -0.96850
 Alpha  occ. eigenvalues --   -0.82706  -0.73450  -0.69532  -0.56460  -0.49513
 Alpha  occ. eigenvalues --   -0.48593  -0.46120  -0.42335  -0.39405  -0.38055
 Alpha  occ. eigenvalues --   -0.37359  -0.34701
 Alpha virt. eigenvalues --    0.03910   0.04724   0.06194   0.07733   0.09910
 Alpha virt. eigenvalues --    0.10436   0.12035   0.12896   0.13572   0.14690
 Alpha virt. eigenvalues --    0.15848   0.16200   0.18574   0.19513   0.19980

 Mulliken charges:
               1
     1  C   -0.150009
     2  C   -0.033057
     3  H    0.041690
     4  H    0.007151
     5  H    0.067205
     6  C   -0.265786
     7  H   -0.005261
     8  H    0.072874
     9  C   -0.254958
    10  H    0.048592
    11  H    0.280850
    12  H    0.024751
    13  H   -0.014515
    14  H    0.180472
 Sum of Mulliken charges =   0.00000

 Dipole moment (field-independent basis, Debye):
    X=             -0.7185    Y=              0.1130    Z=             -0.2421  Tot=              0.7665
 Quadrupole moment (field-independent basis, Debye-Ang):
   XX=            -32.0154   YY=            -29.6171   ZZ=            -28.8741
   XY=              0.5095   XZ=              0.8595   YZ=             -0.2342

 Normal termination of Gaussian 09 at Wed Aug 26 16:10:25 2020.
