 Gaussian 09, Revision D.01,
 Gaussian 09:  ES64L-G09RevD.01 24-Apr-2013

 --------------------
 #p B2PLYPD3/Def2QZVP
 --------------------

 ----------
 butane_opt
 ----------
 Symbolic Z-matrix:
 Charge =  0 Multiplicity = 1

                         Standard orientation:
 ---------------------------------------------------------------------
 Center     Atomic      Atomic             Coordinates (Angstroms)
 Number     Number       Type             X           Y           Z
 ---------------------------------------------------------------------
      1          6           0        1.823704    0.055486    0.134861
      2          6           0        0.577910   -0.445947   -0.019051
      3          1           0        2.682597   -0.893056   -0.363488
      4          1           0        2.250699    1.386223    1.275429
      5          1           0        1.812815    0.336608   -0.552727
      6          6           0       -0.478643    0.521819   -0.302920
      7          1           0        0.354216   -1.150659    0.880831
      8          1           0        0.769590   -1.333740   -0.849283
      9          6           0       -1.958720   -0.116930    0.177412
     10          1           0       -0.070923    1.073823   -1.298078
     11          1           0       -0.253551    1.229487    0.458089
     12          1           0       -2.627009   -0.723558   -0.665670
     13          1           0       -2.631975    0.667913    0.072371
     14          1           0       -2.071963   -0.679612    1.100718
 ---------------------------------------------------------------------

 SCF Done:  E(RB2PLYPD3) =  -157.683965950     A.U. after   12 cycles
 E2(B2PLYPD3) =    -0.2582420238D+00 E(B2PLYPD3) =    -0.15794220797348D+03

 The electronic state is 1-A.
 Alpha  occ. eigenvalues --  -10.63603 -10.63022 -10.62589 -10.62215  -0.98068
 Alpha  occ. eigenvalues --   -0.84749  -0.75225  -0.66845  -0.53756  -0.51027
 Alpha  occ. eigenvalues --   -0.49199  -0.45769  -0.42901  -0.39214  -0.37932
 Alpha  occ. eigenvalues --   -0.36368  -0.32665
 Alpha virt. eigenvalues --   -0.00163   0.04090   0.05777   0.07214   0.09988
 Alpha virt. eigenvalues --    0.10830   0.11867   0.12950   0.13377   0.14865
 Alpha virt. eigenvalues --    0.15332   0.16287   0.17535   0.19840   0.20377

 Mulliken charges:
               1
     1  C   -0.527265
     2  C    0.050815
     3  H    0.027654
     4  H   -0.015738
     5  H    0.430851
     6  C   -0.100527
     7  H    0.008737
     8  H    0.008870
     9  C   -0.147629
    10  H    0.041381
    11  H    0.067878
    12  H    0.014285
    13  H    0.057557
    14  H    0.083131
 Sum of Mulliken charges =   0.00000

 Dipole moment (field-independent basis, Debye):
    X=             -0.8338    Y=             -0.0876    Z=             -0.6724  Tot=              1.0747
 Quadrupole moment (field-independent basis, Debye-Ang):
   XX=            -31.5401   YY=            -29.7453   ZZ=            -29.2971
   XY=             -0.5955   XZ=             -2.5276   YZ=             -0.1534

 Normal termination of Gaussian 09 at Wed Aug 26 23:53:56 2020.
