 Gaussian 09, Revision D.01,
 Gaussian 09:  ES64L-G09RevD.01 24-Apr-2013

 --------------------
 #p B2PLYPD3/Def2QZVP
 --------------------

 ----------
 butane_opt
 ----------
 Symbolic Z-matrix:
 Charge =  0 Multiplicity = 1

                         Standard orientation:
 ---------------------------------------------------------------------
 Center     Atomic      Atomic             Coordinates (Angstroms)
 Number     Number       Type             X           Y           Z
 ---------------------------------------------------------------------
      1          6           0        2.046515   -0.082329   -0.123863
      2          6           0        0.582982    0.551452    0.180243
      3          1           0        2.717270    0.387583   -0.778049
      4          1           0        1.749843   -0.627999   -0.800609
      5          1           0        2.753310   -1.109407    0.896897
      6          6           0       -0.611063   -0.447407    0.111131
      7          1           0        0.111788    0.962953   -0.653942
      8          1           0        0.622545    1.461117    1.076768
      9          6           0       -2.014610    0.113202   -0.042989
     10          1           0       -0.463623   -1.049520    1.063182
     11          1           0       -0.446810   -1.223595   -0.886642
     12          1           0       -2.233277    0.366065    0.578562
     13          1           0       -2.887186   -0.768390   -0.207458
     14          1           0       -1.946807    0.791684   -1.035844
 ---------------------------------------------------------------------

 SCF Done:  E(RB2PLYPD3) =  -157.694493939     A.U. after   11 cycles
 E2(B2PLYPD3) =    -0.2540887317D+00 E(B2PLYPD3) =    -0.15794858267061D+03

 The electronic state is 1-A.
 Alpha  occ. eigenvalues --  -10.63983 -10.63878 -10.62818 -10.60111  -0.92505
 Alpha  occ. eigenvalues --   -0.85896  -0.76845  -0.65601  -0.56693  -0.49866
 Alpha  occ. eigenvalues --   -0.49276  -0.44928  -0.41927  -0.40732  -0.38013
 Alpha  occ. eigenvalues --   -0.37033  -0.34008
 Alpha virt. eigenvalues --    0.03398   0.04976   0.07249   0.08185   0.09243
 Alpha virt. eigenvalues --    0.10605   0.11559   0.13256   0.14473   0.14885
 Alpha virt. eigenvalues --    0.15769   0.16436   0.17806   0.18730   0.20350

 Mulliken charges:
               1
     1  C   -0.219121
     2  C   -0.057612
     3  H    0.061018
     4  H    0.119102
     5  H    0.008378
     6  C   -0.020049
     7  H    0.054214
     8  H    0.023361
     9  C   -0.511883
    10  H    0.033612
    11  H    0.019905
    12  H    0.384448
    13  H    0.043928
    14  H    0.060701
 Sum of Mulliken charges =   0.00000

 Dipole moment (field-independent basis, Debye):
    X=             -0.6322    Y=              0.1291    Z=             -0.5966  Tot=              0.8788
 Quadrupole moment (field-independent basis, Debye-Ang):
   XX=            -30.2333   YY=            -30.4126   ZZ=            -28.3282
   XY=             -0.0857   XZ=             -1.6660   YZ=             -0.0028

 Normal termination of Gaussian 09 at Wed Aug 26 12:30:55 2020.
