 Gaussian 09, Revision D.01,
 Gaussian 09:  ES64L-G09RevD.01 24-Apr-2013

 --------------------
 #p B2PLYPD3/Def2QZVP
 --------------------

 ----------
 butane_opt
 ----------
 Symbolic Z-matrix:
 Charge =  0 Multiplicity = 1

                         Standard orientation:
 ---------------------------------------------------------------------
 Center     Atomic      Atomic             Coordinates (Angstroms)
 Number     Number       Type             X           Y           Z
 ---------------------------------------------------------------------
      1          6           0       -2.047802   -0.250651    0.124312
      2          6           0       -0.573598    0.611482   -0.058711
      3          1           0       -2.731644    0.104159    0.797409
      4          1           0       -1.663592   -0.868227    0.717964
      5          1           0       -2.644138   -0.619427   -0.851721
      6          6           0        0.621956   -0.299666   -0.354534
      7          1           0       -0.272919    0.873649    0.791607
      8          1           0       -0.559105    1.759170   -0.903019
      9          6           0        1.969295    0.007044    0.128312
     10          1           0        0.617401   -0.662397   -1.355622
     11          1           0        0.874876   -1.339244    0.409049
     12          1           0        2.143256    0.718856   -0.324391
     13          1           0        2.671733   -0.885042    0.218428
     14          1           0        1.745031    0.509247    1.464016
 ---------------------------------------------------------------------

 SCF Done:  E(RB2PLYPD3) =  -157.836598574     A.U. after   11 cycles
 E2(B2PLYPD3) =    -0.2534770733D+00 E(B2PLYPD3) =    -0.15809007564709D+03

 The electronic state is 1-A.
 Alpha  occ. eigenvalues --  -10.64090 -10.62162 -10.61750 -10.60392  -0.92641
 Alpha  occ. eigenvalues --   -0.84590  -0.75691  -0.66134  -0.56808  -0.51076
 Alpha  occ. eigenvalues --   -0.49227  -0.46890  -0.42180  -0.40648  -0.38811
 Alpha  occ. eigenvalues --   -0.36248  -0.31603
 Alpha virt. eigenvalues --    0.04404   0.05706   0.06837   0.07765   0.10344
 Alpha virt. eigenvalues --    0.10777   0.12285   0.12785   0.13768   0.14633
 Alpha virt. eigenvalues --    0.16152   0.16784   0.17460   0.19292   0.20654

 Mulliken charges:
               1
     1  C   -0.174613
     2  C   -0.137299
     3  H    0.040396
     4  H    0.100070
     5  H    0.055350
     6  C   -0.014651
     7  H    0.124444
     8  H   -0.002639
     9  C   -0.236078
    10  H    0.053006
    11  H   -0.027046
    12  H    0.149561
    13  H    0.091756
    14  H   -0.022257
 Sum of Mulliken charges =   0.00000

 Dipole moment (field-independent basis, Debye):
    X=              0.1895    Y=             -0.2979    Z=             -0.0291  Tot=              0.3542
 Quadrupole moment (field-independent basis, Debye-Ang):
   XX=            -28.4889   YY=            -30.4863   ZZ=            -28.6987
   XY=             -0.7102   XZ=             -1.1209   YZ=             -0.3767

 Normal termination of Gaussian 09 at Wed Aug 26 10:35:05 2020.
