 Gaussian 09, Revision D.01,
 Gaussian 09:  ES64L-G09RevD.01 24-Apr-2013

 --------------------
 #p B2PLYPD3/Def2QZVP
 --------------------

 ----------
 butane_opt
 ----------
 Symbolic Z-matrix:
 Charge =  0 Multiplicity = 1

                         Standard orientation:
 ---------------------------------------------------------------------
 Center     Atomic      Atomic             Coordinates (Angstroms)
 Number     Number       Type             X           Y           Z
 ---------------------------------------------------------------------
      1          6           0        1.856102    0.047733   -0.085966
      2          6           0        0.546791   -0.482911    0.035221
      3          1           0        2.783249   -0.931870   -0.175627
      4          1           0        1.852159    0.716656    0.843495
      5          1           0        1.962559    0.788525   -1.080244
      6          6           0       -0.420843    0.600632    0.230700
      7          1           0        0.340185   -1.201206    1.043539
      8          1           0        0.464936   -0.793870   -0.693510
      9          6           0       -1.971086   -0.137958   -0.138532
     10          1           0       -0.419662    0.952136   -0.512978
     11          1           0       -0.447944    1.411736    1.096758
     12          1           0       -1.580244   -0.409082   -0.839463
     13          1           0       -2.467885    0.442013   -0.857698
     14          1           0       -2.553133   -1.140013    0.927188
 ---------------------------------------------------------------------

 SCF Done:  E(RB2PLYPD3) =  -157.647093461     A.U. after   11 cycles
 E2(B2PLYPD3) =    -0.2549346098D+00 E(B2PLYPD3) =    -0.15790202807066D+03

 The electronic state is 1-A.
 Alpha  occ. eigenvalues --  -10.64080 -10.61576 -10.60172 -10.58359  -0.97158
 Alpha  occ. eigenvalues --   -0.86354  -0.75378  -0.69047  -0.58253  -0.49570
 Alpha  occ. eigenvalues --   -0.47846  -0.45707  -0.41415  -0.40779  -0.39981
 Alpha  occ. eigenvalues --   -0.35698  -0.33771
 Alpha virt. eigenvalues --    0.03347   0.04941   0.07269   0.08205   0.09102
 Alpha virt. eigenvalues --    0.10581   0.11729   0.12233   0.13686   0.15081
 Alpha virt. eigenvalues --    0.16318   0.17371   0.17600   0.19252   0.19582

 Mulliken charges:
               1
     1  C   -0.162022
     2  C   -0.268998
     3  H    0.033784
     4  H    0.059867
     5  H    0.031363
     6  C   -0.278851
     7  H    0.039229
     8  H    0.268592
     9  C   -0.368533
    10  H    0.251919
    11  H    0.057974
    12  H    0.231163
    13  H    0.050974
    14  H    0.053540
 Sum of Mulliken charges =   0.00000

 Dipole moment (field-independent basis, Debye):
    X=              0.1757    Y=              0.1999    Z=             -0.7244  Tot=              0.7718
 Quadrupole moment (field-independent basis, Debye-Ang):
   XX=            -33.3412   YY=            -29.4691   ZZ=            -27.1498
   XY=             -0.2474   XZ=              0.2948   YZ=             -0.4994

 Normal termination of Gaussian 09 at Wed Aug 26 14:37:00 2020.
