 Gaussian 09, Revision D.01,
 Gaussian 09:  ES64L-G09RevD.01 24-Apr-2013

 --------------------
 #p B2PLYPD3/Def2QZVP
 --------------------

 ----------
 butane_opt
 ----------
 Symbolic Z-matrix:
 Charge =  0 Multiplicity = 1

                         Standard orientation:
 ---------------------------------------------------------------------
 Center     Atomic      Atomic             Coordinates (Angstroms)
 Number     Number       Type             X           Y           Z
 ---------------------------------------------------------------------
      1          6           0        1.986884    0.020107   -0.175582
      2          6           0        0.585603   -0.332912    0.380848
      3          1           0        2.707547   -1.042929   -0.697734
      4          1           0        2.484040    1.103223    0.508509
      5          1           0        1.726964    0.129027   -0.890751
      6          6           0       -0.574353    0.555004   -0.065400
      7          1           0        0.516272   -1.022134    1.588950
      8          1           0        0.354553   -1.001018   -0.312217
      9          6           0       -2.009079   -0.136007   -0.143254
     10          1           0       -0.302971    0.834485   -0.844035
     11          1           0       -0.417018    1.769973    0.713632
     12          1           0       -2.262443   -1.185013   -0.898457
     13          1           0       -2.648021    0.378760   -0.091885
     14          1           0       -2.093254   -0.601520    0.944321
 ---------------------------------------------------------------------

 SCF Done:  E(RB2PLYPD3) =  -157.634878713     A.U. after   11 cycles
 E2(B2PLYPD3) =    -0.2547687323D+00 E(B2PLYPD3) =    -0.15788964744568D+03

 The electronic state is 1-A.
 Alpha  occ. eigenvalues --  -10.63648 -10.63017 -10.62898 -10.61887  -0.94391
 Alpha  occ. eigenvalues --   -0.86080  -0.77603  -0.67762  -0.53235  -0.52233
 Alpha  occ. eigenvalues --   -0.47817  -0.46314  -0.40966  -0.40386  -0.39731
 Alpha  occ. eigenvalues --   -0.36687  -0.33784
 Alpha virt. eigenvalues --    0.03288   0.05416   0.06272   0.07688   0.09313
 Alpha virt. eigenvalues --    0.10493   0.11586   0.12697   0.13829   0.14582
 Alpha virt. eigenvalues --    0.15919   0.16204   0.17537   0.18712   0.20000

 Mulliken charges:
               1
     1  C   -0.498548
     2  C   -0.062670
     3  H    0.032457
     4  H    0.055371
     5  H    0.372545
     6  C   -0.137491
     7  H    0.012566
     8  H    0.096864
     9  C   -0.280538
    10  H    0.160716
    11  H   -0.024131
    12  H    0.043537
    13  H    0.190348
    14  H    0.038975
 Sum of Mulliken charges =   0.00000

 Dipole moment (field-independent basis, Debye):
    X=             -0.5411    Y=             -0.1995    Z=             -0.9521  Tot=              1.1132
 Quadrupole moment (field-independent basis, Debye-Ang):
   XX=            -30.4496   YY=            -30.0064   ZZ=            -29.0483
   XY=              0.5758   XZ=             -0.6503   YZ=              0.8754

 Normal termination of Gaussian 09 at Wed Aug 26 13:50:25 2020.
