 Gaussian 09, Revision D.01,
 Gaussian 09:  ES64L-G09RevD.01 24-Apr-2013

 --------------------
 #p B2PLYPD3/Def2QZVP
 --------------------

 ----------
 butane_opt
 ----------
 Symbolic Z-matrix:
 Charge =  0 Multiplicity = 1

                         Standard orientation:
 ---------------------------------------------------------------------
 Center     Atomic      Atomic             Coordinates (Angstroms)
 Number     Number       Type             X           Y           Z
 ---------------------------------------------------------------------
      1          6           0        1.925538   -0.230732   -0.146151
      2          6           0        0.497898    0.591651    0.046188
      3          1           0        2.689962    0.458742   -0.191255
      4          1           0        2.217450   -0.878112   -0.749458
      5          1           0        2.191410   -0.516989    0.864776
      6          6           0       -0.544361   -0.358612    0.348591
      7          1           0        0.175432    1.019486   -1.058382
      8          1           0        0.415396    1.453582    0.721843
      9          6           0       -1.846478    0.013831   -0.175684
     10          1           0       -0.783904   -0.819899    1.234076
     11          1           0       -0.485352   -0.948725   -0.192447
     12          1           0       -2.528226    0.902704    0.630402
     13          1           0       -2.584663   -0.895776   -0.764188
     14          1           0       -1.503090    0.128156   -0.933034
 ---------------------------------------------------------------------

 SCF Done:  E(RB2PLYPD3) =  -157.777051047     A.U. after   11 cycles
 E2(B2PLYPD3) =    -0.2508273122D+00 E(B2PLYPD3) =    -0.15802787835882D+03

 The electronic state is 1-A.
 Alpha  occ. eigenvalues --  -10.63426 -10.60829 -10.58561 -10.55329  -0.97591
 Alpha  occ. eigenvalues --   -0.84975  -0.75711  -0.69706  -0.57769  -0.51742
 Alpha  occ. eigenvalues --   -0.48251  -0.46983  -0.44956  -0.40918  -0.39506
 Alpha  occ. eigenvalues --   -0.36391  -0.34079
 Alpha virt. eigenvalues --    0.04922   0.06434   0.08038   0.08581   0.10360
 Alpha virt. eigenvalues --    0.10837   0.12634   0.13319   0.14931   0.15269
 Alpha virt. eigenvalues --    0.16632   0.17105   0.18720   0.19750   0.20612

 Mulliken charges:
               1
     1  C   -0.134877
     2  C   -0.025713
     3  H    0.027592
     4  H    0.064208
     5  H    0.030767
     6  C   -0.329068
     7  H    0.012144
     8  H    0.061454
     9  C   -0.324305
    10  H    0.036212
    11  H    0.313846
    12  H    0.040108
    13  H    0.013823
    14  H    0.213810
 Sum of Mulliken charges =   0.00000

 Dipole moment (field-independent basis, Debye):
    X=              0.6990    Y=             -0.1819    Z=             -0.1342  Tot=              0.7346
 Quadrupole moment (field-independent basis, Debye-Ang):
   XX=            -30.3584   YY=            -29.1173   ZZ=            -27.7860
   XY=             -0.0949   XZ=             -0.2647   YZ=              1.4334

 Normal termination of Gaussian 09 at Wed Aug 26 22:25:56 2020.
