 Gaussian 09, Revision D.01,
 Gaussian 09:  ES64L-G09RevD.01 24-Apr-2013

 --------------------
 #p B2PLYPD3/Def2QZVP
 --------------------

 ----------
 butane_opt
 ----------
 Symbolic Z-matrix:
 Charge =  0 Multiplicity = 1

                         Standard orientation:
 ---------------------------------------------------------------------
 Center     Atomic      Atomic             Coordinates (Angstroms)
 Number     Number       Type             X           Y           Z
 ---------------------------------------------------------------------
      1          6           0        1.964990   -0.106357   -0.190657
      2          6           0        0.572141    0.519847    0.299753
      3          1           0        2.598736    0.657695   -0.707347
      4          1           0        1.872527   -0.382498   -0.922009
      5          1           0        2.700102   -1.094706    0.742253
      6          6           0       -0.594679   -0.537262    0.128386
      7          1           0        0.152003    1.254974   -0.500305
      8          1           0        0.546955    1.236842    1.182948
      9          6           0       -1.878269    0.081249   -0.099130
     10          1           0       -0.609163   -1.147303    0.963172
     11          1           0       -0.578944   -1.308228   -0.833524
     12          1           0       -2.281002    0.642821    0.753597
     13          1           0       -2.696152   -0.660739   -0.360754
     14          1           0       -2.090157    1.056282   -1.148142
 ---------------------------------------------------------------------

 SCF Done:  E(RB2PLYPD3) =  -157.843608917     A.U. after   11 cycles
 E2(B2PLYPD3) =    -0.2532415992D+00 E(B2PLYPD3) =    -0.15809685051582D+03

 The electronic state is 1-A.
 Alpha  occ. eigenvalues --  -10.63675 -10.63418 -10.62218 -10.61675  -0.91496
 Alpha  occ. eigenvalues --   -0.85494  -0.74113  -0.66354  -0.53093  -0.50601
 Alpha  occ. eigenvalues --   -0.48547  -0.44729  -0.42229  -0.39930  -0.38040
 Alpha  occ. eigenvalues --   -0.36171  -0.34793
 Alpha virt. eigenvalues --    0.04345   0.04906   0.07342   0.08032   0.08335
 Alpha virt. eigenvalues --    0.11171   0.11531   0.12734   0.13733   0.14714
 Alpha virt. eigenvalues --    0.16377   0.16486   0.18523   0.19281   0.19691

 Mulliken charges:
               1
     1  C   -0.392425
     2  C   -0.040747
     3  H    0.037046
     4  H    0.287032
     5  H    0.026461
     6  C   -0.008865
     7  H    0.020076
     8  H    0.055006
     9  C   -0.146286
    10  H    0.054530
    11  H    0.014371
    12  H    0.050554
    13  H    0.049628
    14  H   -0.006381
 Sum of Mulliken charges =   0.00000

 Dipole moment (field-independent basis, Debye):
    X=             -0.3611    Y=             -0.1124    Z=             -0.0352  Tot=              0.3798
 Quadrupole moment (field-independent basis, Debye-Ang):
   XX=            -31.1139   YY=            -29.4333   ZZ=            -28.5974
   XY=              0.6299   XZ=             -1.4227   YZ=              0.0668

 Normal termination of Gaussian 09 at Wed Aug 26 22:34:52 2020.
