 Gaussian 09, Revision D.01,
 Gaussian 09:  ES64L-G09RevD.01 24-Apr-2013

 --------------------
 #p B2PLYPD3/Def2QZVP
 --------------------

 ----------
 butane_opt
 ----------
 Symbolic Z-matrix:
 Charge =  0 Multiplicity = 1

                         Standard orientation:
 ---------------------------------------------------------------------
 Center     Atomic      Atomic             Coordinates (Angstroms)
 Number     Number       Type             X           Y           Z
 ---------------------------------------------------------------------
      1          6           0        1.950858    0.036889   -0.168781
      2          6           0        0.620936   -0.372204    0.287448
      3          1           0        2.815180   -0.895140   -0.439122
      4          1           0        2.639869    0.643479    0.457754
      5          1           0        1.788100    0.461201   -1.026132
      6          6           0       -0.547399    0.652865    0.076263
      7          1           0        0.529902   -1.049938    1.354402
      8          1           0        0.383776   -1.007578   -0.513472
      9          6           0       -2.030596   -0.172090   -0.114117
     10          1           0       -0.416811    0.939272   -0.777333
     11          1           0       -0.362094    1.296084    0.852058
     12          1           0       -2.383816   -1.056213   -0.930710
     13          1           0       -2.732837    0.331001   -0.134649
     14          1           0       -2.224064   -0.534928    0.672326
 ---------------------------------------------------------------------

 SCF Done:  E(RB2PLYPD3) =  -157.888615816     A.U. after   11 cycles
 E2(B2PLYPD3) =    -0.2484028694D+00 E(B2PLYPD3) =    -0.15813701868535D+03

 The electronic state is 1-A.
 Alpha  occ. eigenvalues --  -10.61342 -10.60648 -10.60120 -10.57514  -0.92081
 Alpha  occ. eigenvalues --   -0.85440  -0.77636  -0.66824  -0.56425  -0.50310
 Alpha  occ. eigenvalues --   -0.49692  -0.45575  -0.44213  -0.42105  -0.39068
 Alpha  occ. eigenvalues --   -0.38326  -0.34302
 Alpha virt. eigenvalues --    0.05436   0.06148   0.08429   0.09182   0.10215
 Alpha virt. eigenvalues --    0.11480   0.12514   0.14277   0.14799   0.15542
 Alpha virt. eigenvalues --    0.15646   0.16960   0.18494   0.20288   0.20999

 Mulliken charges:
               1
     1  C   -0.141715
     2  C   -0.076338
     3  H    0.011159
     4  H    0.035863
     5  H    0.070329
     6  C   -0.145381
     7  H    0.015592
     8  H    0.069218
     9  C   -0.224916
    10  H    0.114953
    11  H    0.067541
    12  H    0.023711
    13  H    0.099856
    14  H    0.080128
 Sum of Mulliken charges =   0.00000

 Dipole moment (field-independent basis, Debye):
    X=             -0.3733    Y=              0.3523    Z=             -0.0718  Tot=              0.5183
 Quadrupole moment (field-independent basis, Debye-Ang):
   XX=            -28.1204   YY=            -29.4446   ZZ=            -28.0678
   XY=              0.6843   XZ=             -0.2674   YZ=              0.3202

 Normal termination of Gaussian 09 at Wed Aug 26 16:01:23 2020.
