 Gaussian 09, Revision D.01,
 Gaussian 09:  ES64L-G09RevD.01 24-Apr-2013

 --------------------
 #p B2PLYPD3/Def2QZVP
 --------------------

 ----------
 butane_opt
 ----------
 Symbolic Z-matrix:
 Charge =  0 Multiplicity = 1

                         Standard orientation:
 ---------------------------------------------------------------------
 Center     Atomic      Atomic             Coordinates (Angstroms)
 Number     Number       Type             X           Y           Z
 ---------------------------------------------------------------------
      1          6           0        2.015329   -0.194450   -0.153380
      2          6           0        0.565666    0.635795    0.164453
      3          1           0        2.795490    0.271532   -0.759976
      4          1           0        1.710841   -0.371539   -0.691059
      5          1           0        2.821164   -0.966560    1.041800
      6          6           0       -0.648519   -0.478026    0.098033
      7          1           0        0.234905    1.011389   -0.574575
      8          1           0        0.441894    1.696102    1.228791
      9          6           0       -1.939336   -0.020863   -0.133830
     10          1           0       -0.917536   -1.273500    1.187142
     11          1           0       -0.244268   -0.927554   -0.775104
     12          1           0       -2.189719    0.744508    0.772924
     13          1           0       -2.545723   -0.572040   -0.052416
     14          1           0       -2.065885    0.732925   -1.229190
 ---------------------------------------------------------------------

 SCF Done:  E(RB2PLYPD3) =  -157.376225648     A.U. after   12 cycles
 E2(B2PLYPD3) =    -0.2576248998D+00 E(B2PLYPD3) =    -0.15763385054791D+03

 The electronic state is 1-A.
 Alpha  occ. eigenvalues --  -10.65228 -10.64185 -10.62877 -10.60580  -0.94697
 Alpha  occ. eigenvalues --   -0.89833  -0.78420  -0.66761  -0.54147  -0.52191
 Alpha  occ. eigenvalues --   -0.49435  -0.47534  -0.42926  -0.38236  -0.36884
 Alpha  occ. eigenvalues --   -0.35307  -0.34373
 Alpha virt. eigenvalues --    0.02102   0.05021   0.06358   0.06587   0.07793
 Alpha virt. eigenvalues --    0.10172   0.12015   0.12329   0.13614   0.14524
 Alpha virt. eigenvalues --    0.15927   0.16892   0.18317   0.18559   0.19344

 Mulliken charges:
               1
     1  C   -0.782886
     2  C   -0.192434
     3  H    0.078143
     4  H    0.645156
     5  H    0.056474
     6  C   -0.024988
     7  H    0.192256
     8  H   -0.001725
     9  C   -0.257435
    10  H    0.003073
    11  H    0.063196
    12  H    0.043640
    13  H    0.179319
    14  H   -0.001788
 Sum of Mulliken charges =   0.00000

 Dipole moment (field-independent basis, Debye):
    X=             -0.2175    Y=             -0.3535    Z=             -0.8363  Tot=              0.9337
 Quadrupole moment (field-independent basis, Debye-Ang):
   XX=            -28.6679   YY=            -31.1285   ZZ=            -28.5123
   XY=              0.3246   XZ=             -1.3343   YZ=             -0.5586

 Normal termination of Gaussian 09 at Wed Aug 26 14:02:53 2020.
