 Gaussian 09, Revision D.01,
 Gaussian 09:  ES64L-G09RevD.01 24-Apr-2013

 --------------------
 #p B2PLYPD3/Def2QZVP
 --------------------

 ----------
 butane_opt
 ----------
 Symbolic Z-matrix:
 Charge =  0 Multiplicity = 1

                         Standard orientation:
 ---------------------------------------------------------------------
 Center     Atomic      Atomic             Coordinates (Angstroms)
 Number     Number       Type             X           Y           Z
 ---------------------------------------------------------------------
      1          6           0        1.960812   -0.132748   -0.061665
      2          6           0        0.601236    0.531114    0.019648
      3          1           0        2.759444    0.610910   -0.029387
      4          1           0        2.116794   -0.923735   -0.913360
      5          1           0        2.095015   -0.708945    0.803146
      6          6           0       -0.571557   -0.526898    0.088419
      7          1           0        0.407586    1.224527   -0.898769
      8          1           0        0.527021    1.287231    0.952191
      9          6           0       -2.001769    0.110635   -0.060925
     10          1           0       -0.503361   -1.339007    1.103889
     11          1           0       -0.482027   -0.933980   -0.666960
     12          1           0       -2.129850    0.966536    0.936740
     13          1           0       -2.773438   -0.644413   -0.378223
     14          1           0       -1.949520    0.568257   -0.822130
 ---------------------------------------------------------------------

 SCF Done:  E(RB2PLYPD3) =  -157.966480187     A.U. after   11 cycles
 E2(B2PLYPD3) =    -0.2487086306D+00 E(B2PLYPD3) =    -0.15821518881716D+03

 The electronic state is 1-A.
 Alpha  occ. eigenvalues --  -10.63104 -10.60601 -10.60478 -10.60461  -0.91225
 Alpha  occ. eigenvalues --   -0.84013  -0.73696  -0.66654  -0.53361  -0.49450
 Alpha  occ. eigenvalues --   -0.48417  -0.46937  -0.42933  -0.40468  -0.38004
 Alpha  occ. eigenvalues --   -0.37478  -0.37172
 Alpha virt. eigenvalues --    0.05306   0.06551   0.07637   0.08425   0.10828
 Alpha virt. eigenvalues --    0.11676   0.12293   0.13281   0.14519   0.14796
 Alpha virt. eigenvalues --    0.15518   0.16452   0.19302   0.19464   0.20828

 Mulliken charges:
               1
     1  C   -0.137034
     2  C   -0.025396
     3  H    0.050131
     4  H    0.028476
     5  H    0.053855
     6  C   -0.172355
     7  H    0.019524
     8  H    0.016158
     9  C   -0.214889
    10  H    0.013438
    11  H    0.169837
    12  H    0.031900
    13  H    0.043971
    14  H    0.122385
 Sum of Mulliken charges =   0.00000

 Dipole moment (field-independent basis, Debye):
    X=              0.2130    Y=             -0.0673    Z=             -0.5081  Tot=              0.5550
 Quadrupole moment (field-independent basis, Debye-Ang):
   XX=            -30.1635   YY=            -29.0969   ZZ=            -28.3564
   XY=              0.4531   XZ=              1.4346   YZ=              0.4842

 Normal termination of Gaussian 09 at Wed Aug 26 20:02:23 2020.
