 Gaussian 09, Revision D.01,
 Gaussian 09:  ES64L-G09RevD.01 24-Apr-2013

 --------------------
 #p B2PLYPD3/Def2QZVP
 --------------------

 ----------
 butane_opt
 ----------
 Symbolic Z-matrix:
 Charge =  0 Multiplicity = 1

                         Standard orientation:
 ---------------------------------------------------------------------
 Center     Atomic      Atomic             Coordinates (Angstroms)
 Number     Number       Type             X           Y           Z
 ---------------------------------------------------------------------
      1          6           0        1.968874    0.121055   -0.014437
      2          6           0        0.564983   -0.483015   -0.105755
      3          1           0        2.853551   -0.812140   -0.020076
      4          1           0        1.806984    0.856160    1.115842
      5          1           0        2.020584    0.364252   -0.535016
      6          6           0       -0.523070    0.552587    0.034120
      7          1           0        0.581374   -0.869975    0.745012
      8          1           0        0.510226   -1.088954   -1.003594
      9          6           0       -1.993116   -0.137706    0.042942
     10          1           0       -0.538306    1.268876   -0.830144
     11          1           0       -0.336816    1.101981    0.892667
     12          1           0       -2.004898   -0.325786   -0.671083
     13          1           0       -2.645323    0.408293   -0.647501
     14          1           0       -2.353401   -1.220235    1.212674
 ---------------------------------------------------------------------

 SCF Done:  E(RB2PLYPD3) =  -157.155268139     A.U. after   12 cycles
 E2(B2PLYPD3) =    -0.2542333092D+00 E(B2PLYPD3) =    -0.15740950144823D+03

 The electronic state is 1-A.
 Alpha  occ. eigenvalues --  -10.61591 -10.61352 -10.61088 -10.58244  -0.95089
 Alpha  occ. eigenvalues --   -0.91043  -0.80708  -0.69847  -0.57028  -0.50463
 Alpha  occ. eigenvalues --   -0.48202  -0.45268  -0.42716  -0.40542  -0.37511
 Alpha  occ. eigenvalues --   -0.35912  -0.34913
 Alpha virt. eigenvalues --    0.02143   0.05212   0.06603   0.08034   0.09851
 Alpha virt. eigenvalues --    0.10705   0.11869   0.12895   0.13703   0.15510
 Alpha virt. eigenvalues --    0.16074   0.16805   0.18358   0.19402   0.21087

 Mulliken charges:
               1
     1  C   -0.806096
     2  C   -0.036481
     3  H    0.057973
     4  H    0.046774
     5  H    0.605559
     6  C   -0.032918
     7  H    0.100828
     8  H    0.037472
     9  C   -0.598326
    10  H    0.010356
    11  H    0.054130
    12  H    0.466940
    13  H    0.041281
    14  H    0.052507
 Sum of Mulliken charges =   0.00000

 Dipole moment (field-independent basis, Debye):
    X=              0.0802    Y=             -0.1798    Z=             -0.8471  Tot=              0.8696
 Quadrupole moment (field-independent basis, Debye-Ang):
   XX=            -31.8483   YY=            -29.5928   ZZ=            -26.4865
   XY=             -0.0127   XZ=              1.3539   YZ=             -0.6967

 Normal termination of Gaussian 09 at Wed Aug 26 10:46:46 2020.
