 Gaussian 09, Revision D.01,
 Gaussian 09:  ES64L-G09RevD.01 24-Apr-2013

 --------------------
 #p B2PLYPD3/Def2QZVP
 --------------------

 ----------
 butane_opt
 ----------
 Symbolic Z-matrix:
 Charge =  0 Multiplicity = 1

                         Standard orientation:
 ---------------------------------------------------------------------
 Center     Atomic      Atomic             Coordinates (Angstroms)
 Number     Number       Type             X           Y           Z
 ---------------------------------------------------------------------
      1          6           0        1.937246    0.120748    0.032163
      2          6           0        0.552653   -0.474743    0.008524
      3          1           0        2.831455   -0.759637   -0.316426
      4          1           0        2.274171    0.987920    1.042173
      5          1           0        1.740505    0.440627   -0.650306
      6          6           0       -0.565755    0.561158   -0.060261
      7          1           0        0.485612   -1.167099    0.896938
      8          1           0        0.556002   -1.277540   -0.901371
      9          6           0       -1.928739   -0.162384    0.018042
     10          1           0       -0.319310    1.279510   -1.075169
     11          1           0       -0.566633    1.141607    0.718214
     12          1           0       -2.161442   -0.659567   -0.719256
     13          1           0       -2.685785    0.538261    0.014171
     14          1           0       -2.127003   -0.792757    1.000221
 ---------------------------------------------------------------------

 SCF Done:  E(RB2PLYPD3) =  -157.861868551     A.U. after   11 cycles
 E2(B2PLYPD3) =    -0.2496577936D+00 E(B2PLYPD3) =    -0.15811152634460D+03

 The electronic state is 1-A.
 Alpha  occ. eigenvalues --  -10.62283 -10.61914 -10.60515 -10.58563  -0.93115
 Alpha  occ. eigenvalues --   -0.86124  -0.74663  -0.66584  -0.54452  -0.48751
 Alpha  occ. eigenvalues --   -0.48315  -0.47805  -0.43136  -0.41554  -0.37875
 Alpha  occ. eigenvalues --   -0.37152  -0.36322
 Alpha virt. eigenvalues --    0.05244   0.06391   0.07474   0.07526   0.10510
 Alpha virt. eigenvalues --    0.11389   0.12745   0.13144   0.14909   0.15212
 Alpha virt. eigenvalues --    0.15899   0.16351   0.18949   0.19827   0.21476

 Mulliken charges:
               1
     1  C   -0.457003
     2  C   -0.011934
     3  H    0.037652
     4  H    0.039210
     5  H    0.335235
     6  C   -0.062983
     7  H    0.025115
     8  H    0.015636
     9  C   -0.134560
    10  H    0.006625
    11  H    0.076756
    12  H    0.065142
    13  H    0.030504
    14  H    0.034607
 Sum of Mulliken charges =   0.00000

 Dipole moment (field-independent basis, Debye):
    X=             -0.5852    Y=              0.0848    Z=             -0.1406  Tot=              0.6078
 Quadrupole moment (field-independent basis, Debye-Ang):
   XX=            -30.2541   YY=            -29.0222   ZZ=            -28.2631
   XY=             -0.2942   XZ=             -0.3145   YZ=              0.6575

 Normal termination of Gaussian 09 at Wed Aug 26 10:32:04 2020.
