 Gaussian 09, Revision D.01,
 Gaussian 09:  ES64L-G09RevD.01 24-Apr-2013

 --------------------
 #p B2PLYPD3/Def2QZVP
 --------------------

 ----------
 butane_opt
 ----------
 Symbolic Z-matrix:
 Charge =  0 Multiplicity = 1

                         Standard orientation:
 ---------------------------------------------------------------------
 Center     Atomic      Atomic             Coordinates (Angstroms)
 Number     Number       Type             X           Y           Z
 ---------------------------------------------------------------------
      1          6           0        1.840126   -0.050728    0.136094
      2          6           0        0.576371    0.414800   -0.207245
      3          1           0        2.735405    0.730248   -0.404278
      4          1           0        2.073212   -0.456696   -0.367359
      5          1           0        1.849505   -0.848189    1.311433
      6          6           0       -0.488166   -0.530075   -0.040993
      7          1           0        0.413791    1.012291   -1.337887
      8          1           0        0.613338    1.147827    0.602838
      9          6           0       -1.938562    0.134631    0.039981
     10          1           0       -0.129588   -1.066408    1.036192
     11          1           0       -0.226688   -1.331031   -0.800390
     12          1           0       -2.346827    1.733783    1.204814
     13          1           0       -2.805202   -0.886120   -0.357575
     14          1           0       -2.115566    0.152525   -0.454808
 ---------------------------------------------------------------------

 SCF Done:  E(RB2PLYPD3) =  -156.704305082     A.U. after   14 cycles
 E2(B2PLYPD3) =    -0.2662144334D+00 E(B2PLYPD3) =    -0.15697051951585D+03

 The electronic state is 1-A.
 Alpha  occ. eigenvalues --  -10.68513 -10.64415 -10.61253 -10.60343  -0.96680
 Alpha  occ. eigenvalues --   -0.91777  -0.80701  -0.68283  -0.55175  -0.53393
 Alpha  occ. eigenvalues --   -0.48565  -0.42772  -0.39901  -0.38480  -0.35866
 Alpha  occ. eigenvalues --   -0.35063  -0.34498
 Alpha virt. eigenvalues --   -0.05597   0.03494   0.04011   0.05617   0.09187
 Alpha virt. eigenvalues --    0.09400   0.11617   0.12206   0.13225   0.14593
 Alpha virt. eigenvalues --    0.15938   0.16605   0.17393   0.18877   0.20597

 Mulliken charges:
               1
     1  C   -0.607732
     2  C    0.004710
     3  H    0.030227
     4  H    0.459250
     5  H    0.047249
     6  C   -0.022773
     7  H    0.009794
     8  H    0.068316
     9  C   -0.943098
    10  H    0.023018
    11  H    0.054233
    12  H    0.051908
    13  H    0.004042
    14  H    0.820855
 Sum of Mulliken charges =   0.00000

 Dipole moment (field-independent basis, Debye):
    X=              0.4009    Y=             -0.2178    Z=             -0.9888  Tot=              1.0890
 Quadrupole moment (field-independent basis, Debye-Ang):
   XX=            -32.5628   YY=            -29.4121   ZZ=            -28.5316
   XY=             -1.7407   XZ=              0.4581   YZ=              1.0998

 Normal termination of Gaussian 09 at Wed Aug 26 11:43:20 2020.
