 Gaussian 09, Revision D.01,
 Gaussian 09:  ES64L-G09RevD.01 24-Apr-2013

 --------------------
 #p B2PLYPD3/Def2QZVP
 --------------------

 ----------
 butane_opt
 ----------
 Symbolic Z-matrix:
 Charge =  0 Multiplicity = 1

                         Standard orientation:
 ---------------------------------------------------------------------
 Center     Atomic      Atomic             Coordinates (Angstroms)
 Number     Number       Type             X           Y           Z
 ---------------------------------------------------------------------
      1          6           0        1.964381   -0.083329   -0.127088
      2          6           0        0.594432    0.571607    0.079810
      3          1           0        2.609156    0.460017   -0.266493
      4          1           0        2.108522   -0.957875   -1.182563
      5          1           0        2.016552   -0.652504    0.726357
      6          6           0       -0.523789   -0.561704    0.331801
      7          1           0        0.186736    1.083666   -0.802076
      8          1           0        0.716524    1.424928    1.051055
      9          6           0       -1.978412    0.083583   -0.167287
     10          1           0       -0.554240   -1.208083    1.224209
     11          1           0       -0.126163   -1.134150   -0.406707
     12          1           0       -2.625920    1.040958    0.800505
     13          1           0       -2.897715   -0.706036   -0.750487
     14          1           0       -1.773124    0.588133   -1.097216
 ---------------------------------------------------------------------

 SCF Done:  E(RB2PLYPD3) =  -157.893290250     A.U. after   11 cycles
 E2(B2PLYPD3) =    -0.2535669629D+00 E(B2PLYPD3) =    -0.15814685721278D+03

 The electronic state is 1-A.
 Alpha  occ. eigenvalues --  -10.66940 -10.64293 -10.62539 -10.60153  -0.90757
 Alpha  occ. eigenvalues --   -0.82440  -0.71771  -0.67029  -0.54887  -0.52191
 Alpha  occ. eigenvalues --   -0.46228  -0.43662  -0.41294  -0.40288  -0.38308
 Alpha  occ. eigenvalues --   -0.36989  -0.35371
 Alpha virt. eigenvalues --    0.03943   0.05633   0.07204   0.08055   0.09170
 Alpha virt. eigenvalues --    0.10297   0.12177   0.13319   0.13502   0.14713
 Alpha virt. eigenvalues --    0.15700   0.16887   0.18529   0.19182   0.20090

 Mulliken charges:
               1
     1  C   -0.220481
     2  C   -0.050467
     3  H    0.128892
     4  H   -0.011613
     5  H    0.084713
     6  C   -0.070913
     7  H    0.059784
     8  H    0.010107
     9  C   -0.205638
    10  H    0.051680
    11  H    0.089016
    12  H    0.028539
    13  H    0.032410
    14  H    0.073972
 Sum of Mulliken charges =   0.00000

 Dipole moment (field-independent basis, Debye):
    X=              0.6931    Y=             -0.0295    Z=             -0.2093  Tot=              0.7246
 Quadrupole moment (field-independent basis, Debye-Ang):
   XX=            -31.2048   YY=            -29.9347   ZZ=            -28.6687
   XY=              0.3410   XZ=              1.0019   YZ=             -0.3820

 Normal termination of Gaussian 09 at Wed Aug 26 12:30:54 2020.
