 Gaussian 09, Revision D.01,
 Gaussian 09:  ES64L-G09RevD.01 24-Apr-2013

 --------------------
 #p B2PLYPD3/Def2QZVP
 --------------------

 ----------
 butane_opt
 ----------
 Symbolic Z-matrix:
 Charge =  0 Multiplicity = 1

                         Standard orientation:
 ---------------------------------------------------------------------
 Center     Atomic      Atomic             Coordinates (Angstroms)
 Number     Number       Type             X           Y           Z
 ---------------------------------------------------------------------
      1          6           0        1.859789    0.049640    0.034528
      2          6           0        0.529944   -0.469516   -0.008547
      3          1           0        2.593512   -0.861215   -0.235225
      4          1           0        2.153498    0.796442    0.946423
      5          1           0        1.787910    0.559172   -0.835278
      6          6           0       -0.465360    0.591367    0.098024
      7          1           0        0.712940   -0.899575    0.641350
      8          1           0        0.530559   -1.270288   -1.066534
      9          6           0       -2.004570   -0.131306   -0.023903
     10          1           0        0.031297    1.438781   -0.854789
     11          1           0       -0.556116    1.218828    1.072750
     12          1           0       -1.714172   -0.405291   -0.690500
     13          1           0       -2.682966    0.519838   -0.787115
     14          1           0       -2.375279   -1.337801    1.208309
 ---------------------------------------------------------------------

 SCF Done:  E(RB2PLYPD3) =  -157.596145204     A.U. after   12 cycles
 E2(B2PLYPD3) =    -0.2596811836D+00 E(B2PLYPD3) =    -0.15785582638733D+03

 The electronic state is 1-A.
 Alpha  occ. eigenvalues --  -10.65794 -10.63405 -10.60957 -10.58860  -0.96152
 Alpha  occ. eigenvalues --   -0.86566  -0.73283  -0.68714  -0.56094  -0.49916
 Alpha  occ. eigenvalues --   -0.47464  -0.43459  -0.40354  -0.38835  -0.37515
 Alpha  occ. eigenvalues --   -0.36071  -0.35071
 Alpha virt. eigenvalues --   -0.01310   0.04725   0.06368   0.07084   0.09980
 Alpha virt. eigenvalues --    0.10483   0.11570   0.11667   0.13281   0.14780
 Alpha virt. eigenvalues --    0.16179   0.17169   0.17919   0.18566   0.20751

 Mulliken charges:
               1
     1  C   -0.177915
     2  C   -0.255063
     3  H    0.041434
     4  H    0.054822
     5  H    0.062466
     6  C   -0.072438
     7  H    0.272555
     8  H    0.017943
     9  C   -0.521152
    10  H    0.015903
    11  H    0.052366
    12  H    0.401974
    13  H    0.053328
    14  H    0.053777
 Sum of Mulliken charges =   0.00000

 Dipole moment (field-independent basis, Debye):
    X=              0.5335    Y=             -0.3172    Z=             -0.1356  Tot=              0.6353
 Quadrupole moment (field-independent basis, Debye-Ang):
   XX=            -32.5652   YY=            -29.6936   ZZ=            -27.8972
   XY=              0.0065   XZ=              0.7807   YZ=             -0.2895

 Normal termination of Gaussian 09 at Wed Aug 26 12:44:05 2020.
