 Gaussian 09, Revision D.01,
 Gaussian 09:  ES64L-G09RevD.01 24-Apr-2013

 --------------------
 #p B2PLYPD3/Def2QZVP
 --------------------

 ----------
 butane_opt
 ----------
 Symbolic Z-matrix:
 Charge =  0 Multiplicity = 1

                         Standard orientation:
 ---------------------------------------------------------------------
 Center     Atomic      Atomic             Coordinates (Angstroms)
 Number     Number       Type             X           Y           Z
 ---------------------------------------------------------------------
      1          6           0       -1.902871    0.117406    0.095899
      2          6           0       -0.521225   -0.547398   -0.086730
      3          1           0       -2.558748   -0.483246   -0.576844
      4          1           0       -2.121750    0.264341   -0.386038
      5          1           0       -2.317480    1.403880    1.495995
      6          6           0        0.610485    0.474529   -0.124612
      7          1           0       -0.517320   -1.370522   -0.906087
      8          1           0       -0.468961   -1.017349    0.601663
      9          6           0        1.928707   -0.079258    0.138397
     10          1           0        0.346467    0.686133    0.306399
     11          1           0        0.553660    1.492536   -1.423623
     12          1           0        1.832694   -1.003840    1.259818
     13          1           0        2.608298    0.782932    0.047101
     14          1           0        1.952572   -0.546539   -0.556106
 ---------------------------------------------------------------------

 SCF Done:  E(RB2PLYPD3) =  -156.260535133     A.U. after   14 cycles
 E2(B2PLYPD3) =    -0.2613055493D+00 E(B2PLYPD3) =    -0.15652184068256D+03

 The electronic state is 1-A.
 Alpha  occ. eigenvalues --  -10.64403 -10.62450 -10.60718 -10.60399  -1.00377
 Alpha  occ. eigenvalues --   -0.95588  -0.83103  -0.76638  -0.54931  -0.51458
 Alpha  occ. eigenvalues --   -0.50602  -0.45521  -0.42969  -0.41642  -0.35687
 Alpha  occ. eigenvalues --   -0.34495  -0.33533
 Alpha virt. eigenvalues --   -0.03937   0.02321   0.04829   0.06218   0.09882
 Alpha virt. eigenvalues --    0.10567   0.11706   0.13070   0.13601   0.14743
 Alpha virt. eigenvalues --    0.15822   0.16839   0.17136   0.19185   0.20314

 Mulliken charges:
               1
     1  C   -0.875297
     2  C   -0.102662
     3  H    0.030372
     4  H    0.747784
     5  H    0.036811
     6  C   -0.890612
     7  H    0.009088
     8  H    0.189425
     9  C   -0.211585
    10  H    0.799715
    11  H   -0.030517
    12  H    0.016491
    13  H    0.071876
    14  H    0.209110
 Sum of Mulliken charges =   0.00000

 Dipole moment (field-independent basis, Debye):
    X=             -0.0032    Y=             -0.3822    Z=             -0.5696  Tot=              0.6860
 Quadrupole moment (field-independent basis, Debye-Ang):
   XX=            -30.3584   YY=            -29.0418   ZZ=            -28.2363
   XY=             -0.2043   XZ=              1.6670   YZ=              1.2190

 Normal termination of Gaussian 09 at Wed Aug 26 10:21:19 2020.
