 Gaussian 09, Revision D.01,
 Gaussian 09:  ES64L-G09RevD.01 24-Apr-2013

 --------------------
 #p B2PLYPD3/Def2QZVP
 --------------------

 ----------
 butane_opt
 ----------
 Symbolic Z-matrix:
 Charge =  0 Multiplicity = 1

                         Standard orientation:
 ---------------------------------------------------------------------
 Center     Atomic      Atomic             Coordinates (Angstroms)
 Number     Number       Type             X           Y           Z
 ---------------------------------------------------------------------
      1          6           0       -1.953119   -0.186506   -0.189253
      2          6           0       -0.517462    0.580728    0.281851
      3          1           0       -2.664500    0.391944   -0.636466
      4          1           0       -2.769526   -0.620572    0.610103
      5          1           0       -1.420919   -0.654533   -0.963879
      6          6           0        0.579011   -0.502013    0.186410
      7          1           0       -0.475689    1.371576    1.149817
      8          1           0       -0.357789    0.953555   -0.538936
      9          6           0        1.823567    0.128658   -0.196780
     10          1           0        0.580961   -1.105371   -0.550769
     11          1           0        0.673629   -1.133361    1.049621
     12          1           0        2.065967    0.993472   -1.123931
     13          1           0        2.794993   -0.818319    0.078157
     14          1           0        1.980899    0.496406    0.432920
 ---------------------------------------------------------------------

 SCF Done:  E(RB2PLYPD3) =  -157.768761282     A.U. after   11 cycles
 E2(B2PLYPD3) =    -0.2510498672D+00 E(B2PLYPD3) =    -0.15801981114885D+03

 The electronic state is 1-A.
 Alpha  occ. eigenvalues --  -10.61032 -10.60897 -10.59853 -10.58591  -0.94783
 Alpha  occ. eigenvalues --   -0.84660  -0.74542  -0.70596  -0.56157  -0.51759
 Alpha  occ. eigenvalues --   -0.47417  -0.46629  -0.42928  -0.41650  -0.38664
 Alpha  occ. eigenvalues --   -0.36437  -0.34589
 Alpha virt. eigenvalues --    0.04929   0.06219   0.07759   0.08386   0.10426
 Alpha virt. eigenvalues --    0.11507   0.12447   0.13346   0.14461   0.15803
 Alpha virt. eigenvalues --    0.16045   0.16737   0.17294   0.19898   0.21506

 Mulliken charges:
               1
     1  C   -0.156333
     2  C   -0.209323
     3  H    0.042036
     4  H    0.042716
     5  H    0.067059
     6  C   -0.035245
     7  H    0.049054
     8  H    0.151770
     9  C   -0.512308
    10  H    0.091372
    11  H    0.036951
    12  H    0.060572
    13  H    0.004302
    14  H    0.367376
 Sum of Mulliken charges =   0.00000

 Dipole moment (field-independent basis, Debye):
    X=             -0.1790    Y=              0.5158    Z=              0.0350  Tot=              0.5471
 Quadrupole moment (field-independent basis, Debye-Ang):
   XX=            -30.2710   YY=            -28.9430   ZZ=            -28.1271
   XY=              0.0022   XZ=              0.5011   YZ=             -0.3186

 Normal termination of Gaussian 09 at Wed Aug 26 15:36:11 2020.
