 Gaussian 09, Revision D.01,
 Gaussian 09:  ES64L-G09RevD.01 24-Apr-2013

 --------------------
 #p B2PLYPD3/Def2QZVP
 --------------------

 ----------
 butane_opt
 ----------
 Symbolic Z-matrix:
 Charge =  0 Multiplicity = 1

                         Standard orientation:
 ---------------------------------------------------------------------
 Center     Atomic      Atomic             Coordinates (Angstroms)
 Number     Number       Type             X           Y           Z
 ---------------------------------------------------------------------
      1          6           0        2.011891   -0.173623   -0.097879
      2          6           0        0.559239    0.679081    0.175160
      3          1           0        2.737241    0.191262   -0.815752
      4          1           0        1.854072   -0.776404   -0.986292
      5          1           0        2.665483   -0.713562    0.778775
      6          6           0       -0.598299   -0.441237    0.168686
      7          1           0        0.227354    0.804732   -0.396188
      8          1           0        0.340507    1.660940    0.988001
      9          6           0       -2.010671    0.031656   -0.187903
     10          1           0       -0.638185   -1.349163    1.359775
     11          1           0       -0.269237   -0.923210   -0.512104
     12          1           0       -2.060871    0.556096    0.567751
     13          1           0       -2.813263   -0.675878   -0.152652
     14          1           0       -1.816061    0.649929   -1.179700
 ---------------------------------------------------------------------

 SCF Done:  E(RB2PLYPD3) =  -157.604393952     A.U. after   11 cycles
 E2(B2PLYPD3) =    -0.2529609996D+00 E(B2PLYPD3) =    -0.15785735495159D+03

 The electronic state is 1-A.
 Alpha  occ. eigenvalues --  -10.63277 -10.62711 -10.61819 -10.59555  -0.95464
 Alpha  occ. eigenvalues --   -0.84413  -0.77844  -0.69299  -0.53785  -0.51645
 Alpha  occ. eigenvalues --   -0.48515  -0.45778  -0.44570  -0.40259  -0.39239
 Alpha  occ. eigenvalues --   -0.36784  -0.33436
 Alpha virt. eigenvalues --    0.05289   0.06014   0.07051   0.08168   0.10752
 Alpha virt. eigenvalues --    0.11724   0.12233   0.12942   0.14188   0.15654
 Alpha virt. eigenvalues --    0.15995   0.16615   0.17949   0.18792   0.20157

 Mulliken charges:
               1
     1  C   -0.132087
     2  C   -0.721064
     3  H    0.043270
     4  H    0.046041
     5  H    0.064191
     6  C   -0.132775
     7  H    0.648377
     8  H    0.058928
     9  C   -0.191581
    10  H   -0.041265
    11  H    0.144742
    12  H    0.110976
    13  H    0.067257
    14  H    0.034989
 Sum of Mulliken charges =   0.00000

 Dipole moment (field-independent basis, Debye):
    X=             -0.0171    Y=              0.1439    Z=             -0.9537  Tot=              0.9647
 Quadrupole moment (field-independent basis, Debye-Ang):
   XX=            -27.9689   YY=            -30.4271   ZZ=            -28.2538
   XY=             -0.8469   XZ=             -0.9736   YZ=              0.8394

 Normal termination of Gaussian 09 at Wed Aug 26 16:33:31 2020.
