 Gaussian 09, Revision D.01,
 Gaussian 09:  ES64L-G09RevD.01 24-Apr-2013

 --------------------
 #p B2PLYPD3/Def2QZVP
 --------------------

 ----------
 butane_opt
 ----------
 Symbolic Z-matrix:
 Charge =  0 Multiplicity = 1

                         Standard orientation:
 ---------------------------------------------------------------------
 Center     Atomic      Atomic             Coordinates (Angstroms)
 Number     Number       Type             X           Y           Z
 ---------------------------------------------------------------------
      1          6           0        1.955173    0.145508   -0.164794
      2          6           0        0.598238   -0.536550    0.276511
      3          1           0        2.853906   -0.828352   -0.545141
      4          1           0        2.424087    0.769495    0.573371
      5          1           0        1.670584    0.476986   -0.981350
      6          6           0       -0.575197    0.578913    0.055697
      7          1           0        0.608641   -1.095316    1.414805
      8          1           0        0.579746   -0.846279   -0.298493
      9          6           0       -1.992857   -0.167780   -0.146336
     10          1           0       -0.351591    0.963502   -0.750136
     11          1           0       -0.671286    1.665941    1.042236
     12          1           0       -1.972386   -0.959985   -1.013003
     13          1           0       -2.566199    0.376241   -0.140511
     14          1           0       -2.487637   -0.642777    0.571758
 ---------------------------------------------------------------------

 SCF Done:  E(RB2PLYPD3) =  -157.506606833     A.U. after   11 cycles
 E2(B2PLYPD3) =    -0.2499469584D+00 E(B2PLYPD3) =    -0.15775655379156D+03

 The electronic state is 1-A.
 Alpha  occ. eigenvalues --  -10.63945 -10.61132 -10.59784 -10.57203  -0.94356
 Alpha  occ. eigenvalues --   -0.87213  -0.75810  -0.71826  -0.55945  -0.51393
 Alpha  occ. eigenvalues --   -0.48940  -0.46357  -0.44275  -0.41998  -0.38869
 Alpha  occ. eigenvalues --   -0.36214  -0.35179
 Alpha virt. eigenvalues --    0.04929   0.06516   0.07094   0.08479   0.10498
 Alpha virt. eigenvalues --    0.10881   0.12498   0.14330   0.14777   0.15129
 Alpha virt. eigenvalues --    0.15999   0.16727   0.18464   0.18772   0.20268

 Mulliken charges:
               1
     1  C   -0.175472
     2  C   -0.780381
     3  H   -0.004838
     4  H    0.077548
     5  H    0.102824
     6  C   -0.080868
     7  H    0.068708
     8  H    0.688142
     9  C   -0.302711
    10  H    0.132618
    11  H   -0.010242
    12  H    0.034516
    13  H    0.218736
    14  H    0.031418
 Sum of Mulliken charges =   0.00000

 Dipole moment (field-independent basis, Debye):
    X=             -0.5296    Y=              0.0084    Z=             -0.3156  Tot=              0.6165
 Quadrupole moment (field-independent basis, Debye-Ang):
   XX=            -29.1270   YY=            -29.2853   ZZ=            -27.9707
   XY=              0.4920   XZ=             -0.1057   YZ=              0.1598

 Normal termination of Gaussian 09 at Wed Aug 26 20:24:13 2020.
