 Gaussian 09, Revision D.01,
 Gaussian 09:  ES64L-G09RevD.01 24-Apr-2013

 --------------------
 #p B2PLYPD3/Def2QZVP
 --------------------

 ----------
 butane_opt
 ----------
 Symbolic Z-matrix:
 Charge =  0 Multiplicity = 1

                         Standard orientation:
 ---------------------------------------------------------------------
 Center     Atomic      Atomic             Coordinates (Angstroms)
 Number     Number       Type             X           Y           Z
 ---------------------------------------------------------------------
      1          6           0        2.042158   -0.166048   -0.091987
      2          6           0        0.520701    0.672762    0.099972
      3          1           0        2.576795    0.333134   -0.473919
      4          1           0        2.063945   -1.224071   -1.002940
      5          1           0        2.643844   -0.574714    0.655153
      6          6           0       -0.627937   -0.395858    0.352360
      7          1           0        0.176176    1.212832   -0.888385
      8          1           0        0.542686    1.459907    0.735554
      9          6           0       -1.930800   -0.024855   -0.197931
     10          1           0       -0.814180   -1.095498    1.447423
     11          1           0       -0.119531   -1.042160   -0.366581
     12          1           0       -2.468947    0.918217    0.603517
     13          1           0       -2.693584   -0.803980   -0.704376
     14          1           0       -1.931936    0.300325   -0.979934
 ---------------------------------------------------------------------

 SCF Done:  E(RB2PLYPD3) =  -157.816144682     A.U. after   11 cycles
 E2(B2PLYPD3) =    -0.2520430960D+00 E(B2PLYPD3) =    -0.15806818777760D+03

 The electronic state is 1-A.
 Alpha  occ. eigenvalues --  -10.64311 -10.62858 -10.61115 -10.60417  -0.90877
 Alpha  occ. eigenvalues --   -0.84242  -0.77016  -0.67909  -0.54462  -0.50432
 Alpha  occ. eigenvalues --   -0.47906  -0.44220  -0.43523  -0.39327  -0.38433
 Alpha  occ. eigenvalues --   -0.36694  -0.35097
 Alpha virt. eigenvalues --    0.04836   0.05424   0.07290   0.08684   0.10259
 Alpha virt. eigenvalues --    0.11129   0.11718   0.12961   0.14282   0.14541
 Alpha virt. eigenvalues --    0.16579   0.17440   0.18809   0.19070   0.20154

 Mulliken charges:
               1
     1  C   -0.283804
     2  C   -0.037047
     3  H    0.194551
     4  H   -0.007397
     5  H    0.059598
     6  C   -0.034417
     7  H    0.029059
     8  H    0.058533
     9  C   -0.270394
    10  H    0.035538
    11  H    0.051500
    12  H    0.014051
    13  H    0.035055
    14  H    0.155172
 Sum of Mulliken charges =   0.00000

 Dipole moment (field-independent basis, Debye):
    X=              0.5734    Y=              0.4902    Z=             -0.5086  Tot=              0.9098
 Quadrupole moment (field-independent basis, Debye-Ang):
   XX=            -29.3610   YY=            -29.3034   ZZ=            -28.7167
   XY=              0.2363   XZ=              1.5595   YZ=              0.2535

 Normal termination of Gaussian 09 at Wed Aug 26 11:37:40 2020.
