 Gaussian 09, Revision D.01,
 Gaussian 09:  ES64L-G09RevD.01 24-Apr-2013

 --------------------
 #p B2PLYPD3/Def2QZVP
 --------------------

 ----------
 butane_opt
 ----------
 Symbolic Z-matrix:
 Charge =  0 Multiplicity = 1

                         Standard orientation:
 ---------------------------------------------------------------------
 Center     Atomic      Atomic             Coordinates (Angstroms)
 Number     Number       Type             X           Y           Z
 ---------------------------------------------------------------------
      1          6           0       -1.904324   -0.151302    0.085131
      2          6           0       -0.545110    0.540287   -0.119785
      3          1           0       -2.684256    0.537596    0.094604
      4          1           0       -2.233945   -0.856111    1.016442
      5          1           0       -2.150578   -0.682240   -0.674117
      6          6           0        0.554658   -0.458793   -0.022443
      7          1           0       -0.388392    0.979611    0.466476
      8          1           0       -0.457104    1.390222   -1.155168
      9          6           0        1.908178    0.086828    0.048433
     10          1           0        0.490291   -1.194803   -0.899879
     11          1           0        0.601430   -0.964415    0.803679
     12          1           0        1.865873    0.333582   -0.542373
     13          1           0        2.761235   -0.860280   -0.300312
     14          1           0        2.115035    1.214723    1.242632
 ---------------------------------------------------------------------

 SCF Done:  E(RB2PLYPD3) =  -157.418902851     A.U. after   12 cycles
 E2(B2PLYPD3) =    -0.2514854827D+00 E(B2PLYPD3) =    -0.15767038833358D+03

 The electronic state is 1-A.
 Alpha  occ. eigenvalues --  -10.61929 -10.59789 -10.59333 -10.59293  -0.96711
 Alpha  occ. eigenvalues --   -0.88153  -0.77490  -0.71297  -0.56660  -0.49168
 Alpha  occ. eigenvalues --   -0.48104  -0.47354  -0.43826  -0.41049  -0.38520
 Alpha  occ. eigenvalues --   -0.37686  -0.35471
 Alpha virt. eigenvalues --    0.02152   0.05699   0.06583   0.07231   0.10521
 Alpha virt. eigenvalues --    0.11291   0.12238   0.13196   0.14010   0.15160
 Alpha virt. eigenvalues --    0.15517   0.16743   0.18876   0.19762   0.21342

 Mulliken charges:
               1
     1  C   -0.101896
     2  C   -0.418693
     3  H    0.031510
     4  H    0.023659
     5  H    0.055922
     6  C    0.042191
     7  H    0.372781
     8  H    0.013052
     9  C   -0.808437
    10  H    0.015223
    11  H    0.078324
    12  H    0.626099
    13  H    0.059814
    14  H    0.010451
 Sum of Mulliken charges =   0.00000

 Dipole moment (field-independent basis, Debye):
    X=             -0.5522    Y=             -0.1676    Z=             -0.3195  Tot=              0.6596
 Quadrupole moment (field-independent basis, Debye-Ang):
   XX=            -30.3850   YY=            -28.6787   ZZ=            -28.2676
   XY=             -0.4968   XZ=             -1.0006   YZ=              0.5427

 Normal termination of Gaussian 09 at Wed Aug 26 09:38:31 2020.
