 Gaussian 09, Revision D.01,
 Gaussian 09:  ES64L-G09RevD.01 24-Apr-2013

 --------------------
 #p B2PLYPD3/Def2QZVP
 --------------------

 ----------
 butane_opt
 ----------
 Symbolic Z-matrix:
 Charge =  0 Multiplicity = 1

                         Standard orientation:
 ---------------------------------------------------------------------
 Center     Atomic      Atomic             Coordinates (Angstroms)
 Number     Number       Type             X           Y           Z
 ---------------------------------------------------------------------
      1          6           0       -1.987579   -0.204663    0.149015
      2          6           0       -0.541083    0.675115   -0.162935
      3          1           0       -2.678492    0.108647    0.857358
      4          1           0       -1.753656   -0.714186    0.825583
      5          1           0       -2.790094   -0.738779   -0.867531
      6          6           0        0.662068   -0.481382   -0.263055
      7          1           0       -0.127895    1.047592    0.637828
      8          1           0       -0.764902    1.571911   -0.956783
      9          6           0        1.917281    0.077933    0.148497
     10          1           0        0.655588   -0.925157   -1.125507
     11          1           0        0.238968   -1.099775    0.622560
     12          1           0        1.905934    0.623309   -0.514882
     13          1           0        2.868639   -0.891496    0.083889
     14          1           0        2.141790    0.615916    1.208356
 ---------------------------------------------------------------------

 SCF Done:  E(RB2PLYPD3) =  -157.820720932     A.U. after   11 cycles
 E2(B2PLYPD3) =    -0.2523578831D+00 E(B2PLYPD3) =    -0.15807307881472D+03

 The electronic state is 1-A.
 Alpha  occ. eigenvalues --  -10.63228 -10.61089 -10.60805 -10.60734  -0.93118
 Alpha  occ. eigenvalues --   -0.84836  -0.75188  -0.68393  -0.55968  -0.50733
 Alpha  occ. eigenvalues --   -0.47136  -0.45790  -0.43231  -0.40788  -0.37998
 Alpha  occ. eigenvalues --   -0.36178  -0.34177
 Alpha virt. eigenvalues --    0.05048   0.05721   0.08074   0.08636   0.10094
 Alpha virt. eigenvalues --    0.10689   0.11576   0.13314   0.14447   0.14941
 Alpha virt. eigenvalues --    0.16481   0.17055   0.17613   0.18804   0.20711

 Mulliken charges:
               1
     1  C   -0.259804
     2  C   -0.150524
     3  H    0.041143
     4  H    0.142753
     5  H    0.038945
     6  C   -0.048493
     7  H    0.104506
     8  H    0.038676
     9  C   -0.275828
    10  H    0.079732
    11  H    0.038729
    12  H    0.184809
    13  H    0.017029
    14  H    0.048326
 Sum of Mulliken charges =   0.00000

 Dipole moment (field-independent basis, Debye):
    X=              0.1327    Y=              0.0629    Z=              0.3694  Tot=              0.3975
 Quadrupole moment (field-independent basis, Debye-Ang):
   XX=            -30.6156   YY=            -29.9113   ZZ=            -27.4038
   XY=              0.6850   XZ=             -0.4328   YZ=              0.0314

 Normal termination of Gaussian 09 at Wed Aug 26 18:38:38 2020.
