 Gaussian 09, Revision D.01,
 Gaussian 09:  ES64L-G09RevD.01 24-Apr-2013

 --------------------
 #p B2PLYPD3/Def2QZVP
 --------------------

 ----------
 butane_opt
 ----------
 Symbolic Z-matrix:
 Charge =  0 Multiplicity = 1

                         Standard orientation:
 ---------------------------------------------------------------------
 Center     Atomic      Atomic             Coordinates (Angstroms)
 Number     Number       Type             X           Y           Z
 ---------------------------------------------------------------------
      1          6           0       -1.979124    0.120585   -0.102238
      2          6           0       -0.572488   -0.532039    0.071617
      3          1           0       -2.682844   -0.530111    0.107482
      4          1           0       -2.307311    0.979220   -1.047658
      5          1           0       -2.168041    0.636958    0.715227
      6          6           0        0.598609    0.472175    0.126704
      7          1           0       -0.432293   -1.173748   -0.785394
      8          1           0       -0.427006   -1.216247    1.001356
      9          6           0        1.973279   -0.081497   -0.104786
     10          1           0        0.643889    1.364899    1.164114
     11          1           0        0.391667    0.962267   -0.589720
     12          1           0        2.054012   -0.891944    0.831403
     13          1           0        2.856339    0.721578   -0.305760
     14          1           0        1.949933   -0.728214   -1.038832
 ---------------------------------------------------------------------

 SCF Done:  E(RB2PLYPD3) =  -157.969359096     A.U. after   11 cycles
 E2(B2PLYPD3) =    -0.2499495179D+00 E(B2PLYPD3) =    -0.15821930861354D+03

 The electronic state is 1-A.
 Alpha  occ. eigenvalues --  -10.63192 -10.62410 -10.60653 -10.60151  -0.91694
 Alpha  occ. eigenvalues --   -0.83916  -0.73273  -0.66816  -0.53560  -0.49199
 Alpha  occ. eigenvalues --   -0.48188  -0.46175  -0.42553  -0.40325  -0.38724
 Alpha  occ. eigenvalues --   -0.37283  -0.36161
 Alpha virt. eigenvalues --    0.05281   0.06050   0.07314   0.08178   0.10781
 Alpha virt. eigenvalues --    0.11520   0.12341   0.13474   0.14112   0.14508
 Alpha virt. eigenvalues --    0.15329   0.16309   0.19376   0.19795   0.20759

 Mulliken charges:
               1
     1  C   -0.151625
     2  C   -0.021457
     3  H    0.050242
     4  H    0.031244
     5  H    0.051170
     6  C   -0.116644
     7  H    0.043255
     8  H    0.016841
     9  C   -0.156012
    10  H   -0.007418
    11  H    0.131060
    12  H    0.032861
    13  H    0.057180
    14  H    0.039303
 Sum of Mulliken charges =   0.00000

 Dipole moment (field-independent basis, Debye):
    X=             -0.3388    Y=             -0.0526    Z=             -0.2474  Tot=              0.4228
 Quadrupole moment (field-independent basis, Debye-Ang):
   XX=            -29.5438   YY=            -29.3426   ZZ=            -28.8846
   XY=              0.5005   XZ=             -1.2307   YZ=             -0.6492

 Normal termination of Gaussian 09 at Wed Aug 26 11:40:22 2020.
