 Gaussian 09, Revision D.01,
 Gaussian 09:  ES64L-G09RevD.01 24-Apr-2013

 --------------------
 #p B2PLYPD3/Def2QZVP
 --------------------

 ----------
 butane_opt
 ----------
 Symbolic Z-matrix:
 Charge =  0 Multiplicity = 1

                         Standard orientation:
 ---------------------------------------------------------------------
 Center     Atomic      Atomic             Coordinates (Angstroms)
 Number     Number       Type             X           Y           Z
 ---------------------------------------------------------------------
      1          6           0        1.884947    0.066965   -0.124675
      2          6           0        0.598413   -0.336850    0.263993
      3          1           0        2.898724   -0.967883   -0.466680
      4          1           0        1.952744    1.111191    0.708383
      5          1           0        1.619095    0.372092   -0.853680
      6          6           0       -0.533902    0.514596   -0.062734
      7          1           0        0.492115   -1.046407    1.404382
      8          1           0        0.682522   -1.091039   -0.394915
      9          6           0       -1.958761   -0.154863   -0.123811
     10          1           0       -0.163039    0.855066   -0.920942
     11          1           0       -0.599703    1.592810    0.720500
     12          1           0       -2.213797   -1.215557   -0.854182
     13          1           0       -2.621489    0.508395   -0.000045
     14          1           0       -1.991353   -0.657750    0.940541
 ---------------------------------------------------------------------

 SCF Done:  E(RB2PLYPD3) =  -157.792275769     A.U. after   11 cycles
 E2(B2PLYPD3) =    -0.2551094443D+00 E(B2PLYPD3) =    -0.15804738521371D+03

 The electronic state is 1-A.
 Alpha  occ. eigenvalues --  -10.63415 -10.63015 -10.62626 -10.61205  -0.97459
 Alpha  occ. eigenvalues --   -0.85524  -0.74281  -0.66665  -0.54974  -0.51549
 Alpha  occ. eigenvalues --   -0.49005  -0.47332  -0.41431  -0.40729  -0.38505
 Alpha  occ. eigenvalues --   -0.36234  -0.33184
 Alpha virt. eigenvalues --    0.02761   0.05811   0.06386   0.07856   0.09490
 Alpha virt. eigenvalues --    0.10983   0.11851   0.12313   0.13763   0.14276
 Alpha virt. eigenvalues --    0.15320   0.16605   0.18402   0.19227   0.20033

 Mulliken charges:
               1
     1  C   -0.329546
     2  C   -0.014892
     3  H    0.043968
     4  H    0.012714
     5  H    0.236036
     6  C   -0.040018
     7  H   -0.019634
     8  H    0.059003
     9  C   -0.173411
    10  H    0.062443
    11  H   -0.002441
    12  H    0.048251
    13  H    0.086142
    14  H    0.031385
 Sum of Mulliken charges =   0.00000

 Dipole moment (field-independent basis, Debye):
    X=             -0.4951    Y=             -0.2047    Z=             -0.7745  Tot=              0.9417
 Quadrupole moment (field-independent basis, Debye-Ang):
   XX=            -31.0698   YY=            -29.4727   ZZ=            -29.7517
   XY=             -1.5614   XZ=             -1.6527   YZ=              1.0182

 Normal termination of Gaussian 09 at Wed Aug 26 19:25:13 2020.
