 Gaussian 09, Revision D.01,
 Gaussian 09:  ES64L-G09RevD.01 24-Apr-2013

 --------------------
 #p B2PLYPD3/Def2QZVP
 --------------------

 ----------
 butane_opt
 ----------
 Symbolic Z-matrix:
 Charge =  0 Multiplicity = 1

                         Standard orientation:
 ---------------------------------------------------------------------
 Center     Atomic      Atomic             Coordinates (Angstroms)
 Number     Number       Type             X           Y           Z
 ---------------------------------------------------------------------
      1          6           0       -1.967591   -0.148704   -0.116720
      2          6           0       -0.440332    0.539587    0.115657
      3          1           0       -2.644844    0.426040   -0.198549
      4          1           0       -2.308530   -0.579507    0.821674
      5          1           0       -2.011084   -0.807127   -0.964641
      6          6           0        0.558077   -0.466976    0.128861
      7          1           0       -0.142961    1.296546    1.057703
      8          1           0       -0.429007    1.149957   -0.641440
      9          6           0        1.792491    0.071010   -0.194627
     10          1           0        0.502716   -0.649431   -0.365293
     11          1           0        0.727050   -1.285856    1.237380
     12          1           0        1.659537    0.376111   -0.891665
     13          1           0        2.694529   -0.720596   -0.335266
     14          1           0        2.296727    0.824370    0.681077
 ---------------------------------------------------------------------

 SCF Done:  E(RB2PLYPD3) =  -157.081778958     A.U. after   11 cycles
 E2(B2PLYPD3) =    -0.2495373096D+00 E(B2PLYPD3) =    -0.15733131626794D+03

 The electronic state is 1-A.
 Alpha  occ. eigenvalues --  -10.61462 -10.59951 -10.58467 -10.58449  -1.02121
 Alpha  occ. eigenvalues --   -0.85234  -0.77277  -0.72142  -0.59107  -0.52266
 Alpha  occ. eigenvalues --   -0.50426  -0.48452  -0.43239  -0.42025  -0.39371
 Alpha  occ. eigenvalues --   -0.36215  -0.35942
 Alpha virt. eigenvalues --    0.04958   0.06520   0.07703   0.08937   0.11007
 Alpha virt. eigenvalues --    0.11432   0.12663   0.13470   0.14981   0.15569
 Alpha virt. eigenvalues --    0.16228   0.16846   0.18904   0.19732   0.21392

 Mulliken charges:
               1
     1  C   -0.162821
     2  C   -0.000804
     3  H    0.081880
     4  H    0.036428
     5  H    0.044109
     6  C   -0.985114
     7  H    0.024831
     8  H    0.054912
     9  C   -0.309769
    10  H    0.849899
    11  H    0.034811
    12  H    0.273955
    13  H    0.032082
    14  H    0.025599
 Sum of Mulliken charges =   0.00000

 Dipole moment (field-independent basis, Debye):
    X=             -0.2804    Y=              0.1011    Z=             -0.6652  Tot=              0.7289
 Quadrupole moment (field-independent basis, Debye-Ang):
   XX=            -28.4796   YY=            -29.3207   ZZ=            -27.3267
   XY=             -0.5884   XZ=              0.4142   YZ=             -0.0489

 Normal termination of Gaussian 09 at Wed Aug 26 20:07:59 2020.
