 Gaussian 09, Revision D.01,
 Gaussian 09:  ES64L-G09RevD.01 24-Apr-2013

 --------------------
 #p B2PLYPD3/Def2QZVP
 --------------------

 ----------
 butane_opt
 ----------
 Symbolic Z-matrix:
 Charge =  0 Multiplicity = 1

                         Standard orientation:
 ---------------------------------------------------------------------
 Center     Atomic      Atomic             Coordinates (Angstroms)
 Number     Number       Type             X           Y           Z
 ---------------------------------------------------------------------
      1          6           0       -2.091626   -0.153269    0.088649
      2          6           0       -0.486642    0.558562    0.049524
      3          1           0       -2.677593    0.500701   -0.512272
      4          1           0       -2.650033   -1.435605    1.145807
      5          1           0       -1.960506   -0.374432   -0.742703
      6          6           0        0.646080   -0.399055   -0.219651
      7          1           0       -0.282658    0.928159    1.036959
      8          1           0       -0.703656    1.707657   -0.882194
      9          6           0        1.978055    0.015953    0.161401
     10          1           0        0.439041   -1.007931   -1.344728
     11          1           0        0.576120   -0.966015    0.411164
     12          1           0        2.128379    0.826417   -0.542472
     13          1           0        2.882305   -0.894239   -0.323828
     14          1           0        1.973395    0.582135    1.274730
 ---------------------------------------------------------------------

 SCF Done:  E(RB2PLYPD3) =  -157.677795351     A.U. after   12 cycles
 E2(B2PLYPD3) =    -0.2602791297D+00 E(B2PLYPD3) =    -0.15793807448060D+03

 The electronic state is 1-A.
 Alpha  occ. eigenvalues --  -10.66793 -10.64406 -10.63166 -10.60218  -0.94123
 Alpha  occ. eigenvalues --   -0.85874  -0.74360  -0.66849  -0.54473  -0.47882
 Alpha  occ. eigenvalues --   -0.46596  -0.43186  -0.40210  -0.39415  -0.38019
 Alpha  occ. eigenvalues --   -0.37036  -0.33555
 Alpha virt. eigenvalues --   -0.00634   0.03849   0.05292   0.06728   0.10104
 Alpha virt. eigenvalues --    0.10298   0.11018   0.12037   0.13280   0.14502
 Alpha virt. eigenvalues --    0.15108   0.16529   0.17692   0.18724   0.19127

 Mulliken charges:
               1
     1  C   -0.347080
     2  C   -0.075515
     3  H    0.062526
     4  H    0.051813
     5  H    0.216023
     6  C   -0.201522
     7  H    0.064430
     8  H   -0.007833
     9  C   -0.163372
    10  H    0.013540
    11  H    0.235796
    12  H    0.054230
    13  H    0.047001
    14  H    0.049963
 Sum of Mulliken charges =   0.00000

 Dipole moment (field-independent basis, Debye):
    X=              0.3325    Y=             -0.2517    Z=             -0.3340  Tot=              0.5343
 Quadrupole moment (field-independent basis, Debye-Ang):
   XX=            -32.0954   YY=            -30.2644   ZZ=            -28.4367
   XY=              0.3015   XZ=              1.4266   YZ=             -0.5434

 Normal termination of Gaussian 09 at Wed Aug 26 12:24:24 2020.
