 Gaussian 09, Revision D.01,
 Gaussian 09:  ES64L-G09RevD.01 24-Apr-2013

 --------------------
 #p B2PLYPD3/Def2QZVP
 --------------------

 ----------
 butane_opt
 ----------
 Symbolic Z-matrix:
 Charge =  0 Multiplicity = 1

                         Standard orientation:
 ---------------------------------------------------------------------
 Center     Atomic      Atomic             Coordinates (Angstroms)
 Number     Number       Type             X           Y           Z
 ---------------------------------------------------------------------
      1          6           0       -1.969524   -0.160394   -0.080509
      2          6           0       -0.433182    0.472993   -0.066038
      3          1           0       -2.751258    0.706394   -0.116700
      4          1           0       -2.195847   -0.559748    0.849632
      5          1           0       -2.073133   -1.152444   -0.749615
      6          6           0        0.578840   -0.384207    0.239260
      7          1           0       -0.619305    1.520133    0.754505
      8          1           0       -0.160115    0.965383   -1.093924
      9          6           0        1.877480    0.030132   -0.158579
     10          1           0        0.368426   -0.811049   -0.262158
     11          1           0        0.616376   -0.927681    1.515071
     12          1           0        1.551500    0.125731   -0.877204
     13          1           0        2.692617   -0.978059   -0.464315
     14          1           0        2.249051    1.360198    0.839902
 ---------------------------------------------------------------------

 SCF Done:  E(RB2PLYPD3) =  -157.503634934     A.U. after   12 cycles
 E2(B2PLYPD3) =    -0.2570760717D+00 E(B2PLYPD3) =    -0.15776071100563D+03

 The electronic state is 1-A.
 Alpha  occ. eigenvalues --  -10.65086 -10.63593 -10.63086 -10.59183  -1.02682
 Alpha  occ. eigenvalues --   -0.84462  -0.76573  -0.67565  -0.57310  -0.50263
 Alpha  occ. eigenvalues --   -0.48609  -0.46985  -0.42043  -0.40853  -0.37242
 Alpha  occ. eigenvalues --   -0.35469  -0.34537
 Alpha virt. eigenvalues --    0.00897   0.05438   0.06498   0.07296   0.08084
 Alpha virt. eigenvalues --    0.10458   0.11855   0.12867   0.13349   0.14353
 Alpha virt. eigenvalues --    0.15290   0.16460   0.18269   0.19069   0.19992

 Mulliken charges:
               1
     1  C   -0.139996
     2  C   -0.018966
     3  H    0.057059
     4  H    0.066926
     5  H    0.026257
     6  C   -0.627473
     7  H   -0.011934
     8  H    0.032968
     9  C   -0.371081
    10  H    0.589696
    11  H    0.017096
    12  H    0.316920
    13  H    0.045879
    14  H    0.016649
 Sum of Mulliken charges =   0.00000

 Dipole moment (field-independent basis, Debye):
    X=             -0.6631    Y=             -0.6042    Z=             -0.5956  Tot=              1.0768
 Quadrupole moment (field-independent basis, Debye-Ang):
   XX=            -31.5318   YY=            -29.7016   ZZ=            -29.2657
   XY=             -1.2027   XZ=             -1.3415   YZ=              1.0530

 Normal termination of Gaussian 09 at Wed Aug 26 13:52:21 2020.
