 Gaussian 09, Revision D.01,
 Gaussian 09:  ES64L-G09RevD.01 24-Apr-2013

 --------------------
 #p B2PLYPD3/Def2QZVP
 --------------------

 ----------
 butane_opt
 ----------
 Symbolic Z-matrix:
 Charge =  0 Multiplicity = 1

                         Standard orientation:
 ---------------------------------------------------------------------
 Center     Atomic      Atomic             Coordinates (Angstroms)
 Number     Number       Type             X           Y           Z
 ---------------------------------------------------------------------
      1          6           0        1.976331   -0.191216   -0.099556
      2          6           0        0.427431    0.617164   -0.047612
      3          1           0        2.616870    0.387042   -0.172777
      4          1           0        2.229193   -1.199149   -0.808302
      5          1           0        1.875308   -0.466044    0.816963
      6          6           0       -0.565888   -0.362393    0.395969
      7          1           0        0.230738    0.789556   -0.792014
      8          1           0        0.441502    1.757506    0.730250
      9          6           0       -1.825078   -0.003843   -0.234871
     10          1           0       -0.706539   -0.853434    1.482203
     11          1           0       -0.331377   -0.875733   -0.297822
     12          1           0       -2.320099    0.898756    0.530722
     13          1           0       -2.601484   -0.895347   -0.422670
     14          1           0       -1.510887    0.098569   -1.150130
 ---------------------------------------------------------------------

 SCF Done:  E(RB2PLYPD3) =  -157.753716610     A.U. after   11 cycles
 E2(B2PLYPD3) =    -0.2508239055D+00 E(B2PLYPD3) =    -0.15800454051586D+03

 The electronic state is 1-A.
 Alpha  occ. eigenvalues --  -10.61697 -10.61284 -10.58640 -10.58599  -0.97494
 Alpha  occ. eigenvalues --   -0.84179  -0.76347  -0.68683  -0.57089  -0.53229
 Alpha  occ. eigenvalues --   -0.48659  -0.47135  -0.43485  -0.42397  -0.39320
 Alpha  occ. eigenvalues --   -0.36346  -0.33730
 Alpha virt. eigenvalues --    0.05105   0.06488   0.07686   0.08275   0.10490
 Alpha virt. eigenvalues --    0.11183   0.12436   0.13887   0.14250   0.14447
 Alpha virt. eigenvalues --    0.16163   0.17159   0.18544   0.19751   0.20475

 Mulliken charges:
               1
     1  C   -0.248900
     2  C   -0.326392
     3  H    0.123898
     4  H    0.026349
     5  H    0.092842
     6  C   -0.167005
     7  H    0.300120
     8  H   -0.002277
     9  C   -0.165051
    10  H    0.048365
    11  H    0.190180
    12  H    0.036019
    13  H    0.027629
    14  H    0.064223
 Sum of Mulliken charges =   0.00000

 Dipole moment (field-independent basis, Debye):
    X=              0.1569    Y=             -0.4594    Z=             -0.2650  Tot=              0.5531
 Quadrupole moment (field-independent basis, Debye-Ang):
   XX=            -30.4619   YY=            -29.6355   ZZ=            -27.6565
   XY=              0.6606   XZ=             -0.3555   YZ=              0.5782

 Normal termination of Gaussian 09 at Wed Aug 26 11:40:17 2020.
