 Gaussian 09, Revision D.01,
 Gaussian 09:  ES64L-G09RevD.01 24-Apr-2013

 --------------------
 #p B2PLYPD3/Def2QZVP
 --------------------

 ----------
 butane_opt
 ----------
 Symbolic Z-matrix:
 Charge =  0 Multiplicity = 1

                         Standard orientation:
 ---------------------------------------------------------------------
 Center     Atomic      Atomic             Coordinates (Angstroms)
 Number     Number       Type             X           Y           Z
 ---------------------------------------------------------------------
      1          6           0       -1.951944   -0.226276   -0.135588
      2          6           0       -0.466892    0.606794   -0.002913
      3          1           0       -2.665911    0.489636   -0.040284
      4          1           0       -2.307974   -0.501097    0.760101
      5          1           0       -2.086579   -1.099505   -1.058261
      6          6           0        0.648002   -0.431207    0.389268
      7          1           0       -0.704289    1.750514    0.758048
      8          1           0       -0.070223    0.855050   -0.702855
      9          6           0        1.860140    0.015999   -0.222941
     10          1           0        0.255008   -0.839460   -0.205862
     11          1           0        0.737461   -1.007757    1.394695
     12          1           0        1.441678    0.378354   -1.155315
     13          1           0        2.617860   -0.816871   -0.524847
     14          1           0        2.247132    0.999280    0.607628
 ---------------------------------------------------------------------

 SCF Done:  E(RB2PLYPD3) =  -157.793432129     A.U. after   11 cycles
 E2(B2PLYPD3) =    -0.2524916042D+00 E(B2PLYPD3) =    -0.15804592373288D+03

 The electronic state is 1-A.
 Alpha  occ. eigenvalues --  -10.63127 -10.62533 -10.61568 -10.57914  -0.96550
 Alpha  occ. eigenvalues --   -0.83117  -0.75327  -0.69429  -0.55374  -0.50150
 Alpha  occ. eigenvalues --   -0.47688  -0.46607  -0.42739  -0.40957  -0.39607
 Alpha  occ. eigenvalues --   -0.36600  -0.34149
 Alpha virt. eigenvalues --    0.05136   0.06271   0.07264   0.08490   0.10508
 Alpha virt. eigenvalues --    0.11142   0.12448   0.13443   0.14164   0.14605
 Alpha virt. eigenvalues --    0.16022   0.16461   0.17839   0.19309   0.20607

 Mulliken charges:
               1
     1  C   -0.154417
     2  C   -0.230980
     3  H    0.057199
     4  H    0.053050
     5  H    0.049594
     6  C   -0.296910
     7  H   -0.014118
     8  H    0.220261
     9  C   -0.164191
    10  H    0.294199
    11  H    0.051115
    12  H    0.047418
    13  H    0.051782
    14  H    0.035998
 Sum of Mulliken charges =   0.00000

 Dipole moment (field-independent basis, Debye):
    X=             -0.4679    Y=             -0.5662    Z=             -0.2621  Tot=              0.7799
 Quadrupole moment (field-independent basis, Debye-Ang):
   XX=            -29.8585   YY=            -29.6915   ZZ=            -28.4361
   XY=             -0.8439   XZ=             -0.8725   YZ=              0.6482

 Normal termination of Gaussian 09 at Wed Aug 26 14:20:56 2020.
