 Gaussian 09, Revision D.01,
 Gaussian 09:  ES64L-G09RevD.01 24-Apr-2013

 --------------------
 #p B2PLYPD3/Def2QZVP
 --------------------

 ----------
 butane_opt
 ----------
 Symbolic Z-matrix:
 Charge =  0 Multiplicity = 1

                         Standard orientation:
 ---------------------------------------------------------------------
 Center     Atomic      Atomic             Coordinates (Angstroms)
 Number     Number       Type             X           Y           Z
 ---------------------------------------------------------------------
      1          6           0        1.929642    0.119751   -0.209481
      2          6           0        0.609212   -0.477158    0.180350
      3          1           0        2.817405   -0.682807   -0.221938
      4          1           0        2.440008    0.543271    0.548615
      5          1           0        1.862035    0.667198   -1.070473
      6          6           0       -0.591970    0.590589    0.239107
      7          1           0        0.881181   -1.162748    1.037401
      8          1           0        0.510754   -0.977387   -0.480483
      9          6           0       -2.051527   -0.219341   -0.247143
     10          1           0       -0.322203    0.865361   -0.412767
     11          1           0       -0.538791    1.593927    1.220767
     12          1           0       -1.783655   -0.419560   -0.789708
     13          1           0       -2.815622    0.540996   -0.636008
     14          1           0       -2.423252   -1.051298    1.027601
 ---------------------------------------------------------------------

 SCF Done:  E(RB2PLYPD3) =  -157.369821383     A.U. after   12 cycles
 E2(B2PLYPD3) =    -0.2523632201D+00 E(B2PLYPD3) =    -0.15762218460309D+03

 The electronic state is 1-A.
 Alpha  occ. eigenvalues --  -10.62944 -10.61779 -10.59093 -10.58581  -0.94408
 Alpha  occ. eigenvalues --   -0.87661  -0.78492  -0.71544  -0.55449  -0.51261
 Alpha  occ. eigenvalues --   -0.48272  -0.47625  -0.42510  -0.40331  -0.39132
 Alpha  occ. eigenvalues --   -0.36134  -0.35384
 Alpha virt. eigenvalues --    0.03419   0.05765   0.07720   0.08092   0.09352
 Alpha virt. eigenvalues --    0.10943   0.12174   0.12845   0.14609   0.15596
 Alpha virt. eigenvalues --    0.15712   0.17272   0.18361   0.18975   0.19959

 Mulliken charges:
               1
     1  C   -0.126821
     2  C   -0.208690
     3  H    0.009112
     4  H    0.043218
     5  H    0.050015
     6  C   -0.466066
     7  H    0.025027
     8  H    0.212272
     9  C   -0.753457
    10  H    0.432687
    11  H    0.035273
    12  H    0.604058
    13  H    0.087731
    14  H    0.055641
 Sum of Mulliken charges =   0.00000

 Dipole moment (field-independent basis, Debye):
    X=              0.3856    Y=              0.0727    Z=             -0.5945  Tot=              0.7123
 Quadrupole moment (field-independent basis, Debye-Ang):
   XX=            -29.4955   YY=            -29.3506   ZZ=            -27.5812
   XY=             -0.7413   XZ=              1.2321   YZ=             -0.6739

 Normal termination of Gaussian 09 at Wed Aug 26 10:44:03 2020.
