 Gaussian 09, Revision D.01,
 Gaussian 09:  ES64L-G09RevD.01 24-Apr-2013

 --------------------
 #p B2PLYPD3/Def2QZVP
 --------------------

 ----------
 butane_opt
 ----------
 Symbolic Z-matrix:
 Charge =  0 Multiplicity = 1

                         Standard orientation:
 ---------------------------------------------------------------------
 Center     Atomic      Atomic             Coordinates (Angstroms)
 Number     Number       Type             X           Y           Z
 ---------------------------------------------------------------------
      1          6           0       -2.008709    0.146433   -0.011013
      2          6           0       -0.580747   -0.578022    0.017255
      3          1           0       -2.697799   -0.530556   -0.282441
      4          1           0       -1.993099    0.607380   -0.719337
      5          1           0       -2.187538    1.117856    1.092046
      6          6           0        0.583374    0.463619   -0.075039
      7          1           0       -0.447475   -1.210558   -0.818012
      8          1           0       -0.528965   -1.144128    0.914008
      9          6           0        1.972907   -0.107046    0.041381
     10          1           0        0.506745    1.208702    0.774466
     11          1           0        0.600935    1.157172   -1.039525
     12          1           0        1.893822   -0.819541    1.020646
     13          1           0        2.896682    0.782107   -0.018987
     14          1           0        2.155742   -0.718334   -0.758362
 ---------------------------------------------------------------------

 SCF Done:  E(RB2PLYPD3) =  -157.956649259     A.U. after   11 cycles
 E2(B2PLYPD3) =    -0.2494032895D+00 E(B2PLYPD3) =    -0.15820605254820D+03

 The electronic state is 1-A.
 Alpha  occ. eigenvalues --  -10.62163 -10.61946 -10.61253 -10.60146  -0.90784
 Alpha  occ. eigenvalues --   -0.84310  -0.73994  -0.66038  -0.53646  -0.50381
 Alpha  occ. eigenvalues --   -0.48532  -0.45868  -0.42888  -0.39736  -0.37951
 Alpha  occ. eigenvalues --   -0.37694  -0.36751
 Alpha virt. eigenvalues --    0.04827   0.05696   0.07847   0.08281   0.10500
 Alpha virt. eigenvalues --    0.11161   0.12092   0.12869   0.14172   0.15166
 Alpha virt. eigenvalues --    0.15576   0.15891   0.19234   0.19567   0.21229

 Mulliken charges:
               1
     1  C   -0.269855
     2  C   -0.040886
     3  H    0.053864
     4  H    0.166166
     5  H    0.020703
     6  C   -0.023239
     7  H    0.039892
     8  H    0.045246
     9  C   -0.161476
    10  H    0.033432
    11  H    0.006064
    12  H    0.034453
    13  H    0.036106
    14  H    0.059528
 Sum of Mulliken charges =   0.00000

 Dipole moment (field-independent basis, Debye):
    X=             -0.1088    Y=             -0.2913    Z=             -0.5994  Tot=              0.6753
 Quadrupole moment (field-independent basis, Debye-Ang):
   XX=            -30.8670   YY=            -28.9551   ZZ=            -28.4817
   XY=              0.8969   XZ=              0.3917   YZ=              0.2431

 Normal termination of Gaussian 09 at Wed Aug 26 22:21:34 2020.
