 Gaussian 09, Revision D.01,
 Gaussian 09:  ES64L-G09RevD.01 24-Apr-2013

 --------------------
 #p B2PLYPD3/Def2QZVP
 --------------------

 ----------
 butane_opt
 ----------
 Symbolic Z-matrix:
 Charge =  0 Multiplicity = 1

                         Standard orientation:
 ---------------------------------------------------------------------
 Center     Atomic      Atomic             Coordinates (Angstroms)
 Number     Number       Type             X           Y           Z
 ---------------------------------------------------------------------
      1          6           0       -1.877616    0.092382    0.083888
      2          6           0       -0.636658   -0.468921   -0.132403
      3          1           0       -2.639642   -0.890086   -0.057592
      4          1           0       -1.945254    0.356578   -0.486565
      5          1           0       -1.861898    1.062421    1.269512
      6          6           0        0.515073    0.628497   -0.194363
      7          1           0       -0.504282   -0.996356   -0.984042
      8          1           0       -0.345155   -1.416357    0.868519
      9          6           0        1.958652   -0.144168    0.141880
     10          1           0        0.432592    1.002998    0.598892
     11          1           0        0.325539    1.398775   -1.131531
     12          1           0        1.706399   -0.517159    0.914351
     13          1           0        2.512614    0.304085    0.436271
     14          1           0        2.562385   -0.951638   -0.821824
 ---------------------------------------------------------------------

 SCF Done:  E(RB2PLYPD3) =  -157.341053464     A.U. after   12 cycles
 E2(B2PLYPD3) =    -0.2526206027D+00 E(B2PLYPD3) =    -0.15759367406716D+03

 The electronic state is 1-A.
 Alpha  occ. eigenvalues --  -10.62279 -10.61363 -10.61105 -10.58049  -0.96727
 Alpha  occ. eigenvalues --   -0.89314  -0.78412  -0.68545  -0.56271  -0.52628
 Alpha  occ. eigenvalues --   -0.49158  -0.47353  -0.43333  -0.41264  -0.37753
 Alpha  occ. eigenvalues --   -0.35564  -0.35215
 Alpha virt. eigenvalues --    0.03260   0.05892   0.06954   0.07058   0.10465
 Alpha virt. eigenvalues --    0.10711   0.11924   0.13012   0.13960   0.14955
 Alpha virt. eigenvalues --    0.15882   0.17014   0.17604   0.19310   0.21407

 Mulliken charges:
               1
     1  C   -0.756886
     2  C    0.019433
     3  H    0.077052
     4  H    0.587858
     5  H    0.027576
     6  C   -0.186199
     7  H    0.075663
     8  H   -0.029098
     9  C   -0.388574
    10  H    0.163842
    11  H    0.033887
    12  H    0.103231
    13  H    0.247108
    14  H    0.025106
 Sum of Mulliken charges =   0.00000

 Dipole moment (field-independent basis, Debye):
    X=              0.0561    Y=              0.3888    Z=             -0.2197  Tot=              0.4501
 Quadrupole moment (field-independent basis, Debye-Ang):
   XX=            -30.4544   YY=            -29.4156   ZZ=            -27.5948
   XY=              0.7425   XZ=              2.1705   YZ=              0.8911

 Normal termination of Gaussian 09 at Wed Aug 26 23:10:45 2020.
