 Gaussian 09, Revision D.01,
 Gaussian 09:  ES64L-G09RevD.01 24-Apr-2013

 --------------------
 #p B2PLYPD3/Def2QZVP
 --------------------

 ----------
 butane_opt
 ----------
 Symbolic Z-matrix:
 Charge =  0 Multiplicity = 1

                         Standard orientation:
 ---------------------------------------------------------------------
 Center     Atomic      Atomic             Coordinates (Angstroms)
 Number     Number       Type             X           Y           Z
 ---------------------------------------------------------------------
      1          6           0       -2.011912   -0.147076   -0.133332
      2          6           0       -0.528604    0.639807    0.023209
      3          1           0       -2.480133    0.202750   -0.282528
      4          1           0       -2.247516   -0.625459    0.783623
      5          1           0       -2.277608   -1.065798   -0.921950
      6          6           0        0.580047   -0.386402    0.351791
      7          1           0       -0.502420    1.737118    0.886798
      8          1           0       -0.278135    0.926204   -0.866246
      9          6           0        1.931928   -0.009419   -0.208114
     10          1           0        0.225537   -1.070328   -0.185981
     11          1           0        0.679938   -1.115918    1.551756
     12          1           0        1.750031    0.334641   -1.196911
     13          1           0        2.799286   -1.064666   -0.594195
     14          1           0        2.502261    1.159997    0.624318
 ---------------------------------------------------------------------

 SCF Done:  E(RB2PLYPD3) =  -157.421400418     A.U. after   11 cycles
 E2(B2PLYPD3) =    -0.2552879521D+00 E(B2PLYPD3) =    -0.15767668837020D+03

 The electronic state is 1-A.
 Alpha  occ. eigenvalues --  -10.67131 -10.65055 -10.62871 -10.59455  -0.92594
 Alpha  occ. eigenvalues --   -0.87381  -0.75399  -0.66911  -0.54236  -0.51899
 Alpha  occ. eigenvalues --   -0.47118  -0.45734  -0.42308  -0.39747  -0.38046
 Alpha  occ. eigenvalues --   -0.36862  -0.34906
 Alpha virt. eigenvalues --    0.02602   0.05704   0.06502   0.07011   0.08186
 Alpha virt. eigenvalues --    0.10499   0.11781   0.12947   0.13510   0.15050
 Alpha virt. eigenvalues --    0.15853   0.16837   0.18693   0.18927   0.19694

 Mulliken charges:
               1
     1  C   -0.712164
     2  C   -0.082805
     3  H    0.533361
     4  H    0.097460
     5  H    0.044662
     6  C   -0.077914
     7  H    0.015075
     8  H    0.111084
     9  C   -0.181002
    10  H    0.117879
    11  H    0.010885
    12  H    0.070140
    13  H    0.034836
    14  H    0.018501
 Sum of Mulliken charges =   0.00000

 Dipole moment (field-independent basis, Debye):
    X=             -0.8037    Y=             -0.2277    Z=             -0.8241  Tot=              1.1734
 Quadrupole moment (field-independent basis, Debye-Ang):
   XX=            -30.7808   YY=            -29.3928   ZZ=            -29.0694
   XY=             -0.0658   XZ=             -0.6705   YZ=              0.3844

 Normal termination of Gaussian 09 at Wed Aug 26 16:33:54 2020.
