 Gaussian 09, Revision D.01,
 Gaussian 09:  ES64L-G09RevD.01 24-Apr-2013

 --------------------
 #p B2PLYPD3/Def2QZVP
 --------------------

 ----------
 butane_opt
 ----------
 Symbolic Z-matrix:
 Charge =  0 Multiplicity = 1

                         Standard orientation:
 ---------------------------------------------------------------------
 Center     Atomic      Atomic             Coordinates (Angstroms)
 Number     Number       Type             X           Y           Z
 ---------------------------------------------------------------------
      1          6           0       -2.058338   -0.221971    0.111555
      2          6           0       -0.565198    0.624350   -0.081815
      3          1           0       -2.818042    0.519873   -0.024065
      4          1           0       -1.962102   -0.879400    0.955679
      5          1           0       -2.369798   -0.739438   -0.744950
      6          6           0        0.665424   -0.462215   -0.146718
      7          1           0       -0.276277    1.227144    0.834945
      8          1           0       -0.474065    1.318345   -0.861130
      9          6           0        1.955829    0.021420    0.060643
     10          1           0        0.379937   -0.984675   -1.053201
     11          1           0        0.716239   -1.158824    0.730637
     12          1           0        2.231533    0.760313   -0.875216
     13          1           0        2.826720   -0.810969    0.233096
     14          1           0        1.759557    0.978120    1.142216
 ---------------------------------------------------------------------

 SCF Done:  E(RB2PLYPD3) =  -157.994413920     A.U. after   11 cycles
 E2(B2PLYPD3) =    -0.2523539754D+00 E(B2PLYPD3) =    -0.15824676789584D+03

 The electronic state is 1-A.
 Alpha  occ. eigenvalues --  -10.65285 -10.62662 -10.60921 -10.60631  -0.90654
 Alpha  occ. eigenvalues --   -0.82383  -0.72883  -0.64339  -0.53873  -0.51088
 Alpha  occ. eigenvalues --   -0.49086  -0.44604  -0.44360  -0.39719  -0.38402
 Alpha  occ. eigenvalues --   -0.35707  -0.33430
 Alpha virt. eigenvalues --    0.04533   0.06250   0.08003   0.08221   0.10364
 Alpha virt. eigenvalues --    0.10613   0.11966   0.13578   0.14342   0.14615
 Alpha virt. eigenvalues --    0.15231   0.15811   0.18189   0.19684   0.21021

 Mulliken charges:
               1
     1  C   -0.152290
     2  C   -0.087116
     3  H    0.046562
     4  H    0.079763
     5  H    0.036027
     6  C   -0.000086
     7  H    0.031303
     8  H    0.053502
     9  C   -0.181269
    10  H    0.046780
    11  H    0.023302
    12  H    0.022256
    13  H    0.074930
    14  H    0.006337
 Sum of Mulliken charges =   0.00000

 Dipole moment (field-independent basis, Debye):
    X=             -0.4213    Y=             -0.3667    Z=             -0.4105  Tot=              0.6932
 Quadrupole moment (field-independent basis, Debye-Ang):
   XX=            -30.0679   YY=            -29.2491   ZZ=            -29.1276
   XY=             -1.1911   XZ=              0.6124   YZ=             -0.8319

 Normal termination of Gaussian 09 at Wed Aug 26 12:13:45 2020.
