 Gaussian 09, Revision D.01,
 Gaussian 09:  ES64L-G09RevD.01 24-Apr-2013

 --------------------
 #p B2PLYPD3/Def2QZVP
 --------------------

 ----------
 butane_opt
 ----------
 Symbolic Z-matrix:
 Charge =  0 Multiplicity = 1

                         Standard orientation:
 ---------------------------------------------------------------------
 Center     Atomic      Atomic             Coordinates (Angstroms)
 Number     Number       Type             X           Y           Z
 ---------------------------------------------------------------------
      1          6           0        1.951533    0.126359    0.068745
      2          6           0        0.550650   -0.471791   -0.092315
      3          1           0        2.900296   -0.889499    0.071919
      4          1           0        1.946981    1.112408    1.137141
      5          1           0        2.184330    0.460005   -0.611529
      6          6           0       -0.550930    0.534933   -0.160104
      7          1           0        0.394008   -1.120084    0.848483
      8          1           0        0.630414   -1.162892   -0.944129
      9          6           0       -1.976738   -0.137265    0.082147
     10          1           0       -0.464696    1.257378   -1.132142
     11          1           0       -0.438253    1.073965    0.671734
     12          1           0       -2.299242   -0.762588   -0.716437
     13          1           0       -2.745636    0.565544    0.314963
     14          1           0       -1.955290   -0.847649    0.969163
 ---------------------------------------------------------------------

 SCF Done:  E(RB2PLYPD3) =  -157.918667391     A.U. after   11 cycles
 E2(B2PLYPD3) =    -0.2496922641D+00 E(B2PLYPD3) =    -0.15816835965538D+03

 The electronic state is 1-A.
 Alpha  occ. eigenvalues --  -10.62829 -10.61568 -10.61515 -10.60381  -0.91766
 Alpha  occ. eigenvalues --   -0.83726  -0.74582  -0.67186  -0.54244  -0.49665
 Alpha  occ. eigenvalues --   -0.48213  -0.46147  -0.42061  -0.40803  -0.38363
 Alpha  occ. eigenvalues --   -0.37267  -0.36977
 Alpha virt. eigenvalues --    0.04175   0.06388   0.07560   0.07848   0.10205
 Alpha virt. eigenvalues --    0.11357   0.12099   0.13637   0.14108   0.14841
 Alpha virt. eigenvalues --    0.15265   0.16234   0.19144   0.19619   0.21043

 Mulliken charges:
               1
     1  C   -0.362035
     2  C    0.002201
     3  H    0.017441
     4  H    0.015040
     5  H    0.251968
     6  C   -0.088758
     7  H    0.036586
     8  H    0.034314
     9  C   -0.126997
    10  H    0.018826
    11  H    0.074690
    12  H    0.047692
    13  H    0.048233
    14  H    0.030798
 Sum of Mulliken charges =   0.00000

 Dipole moment (field-independent basis, Debye):
    X=             -0.3956    Y=              0.0192    Z=             -0.3614  Tot=              0.5362
 Quadrupole moment (field-independent basis, Debye-Ang):
   XX=            -30.8130   YY=            -29.1332   ZZ=            -28.6245
   XY=             -0.2800   XZ=             -1.6216   YZ=              0.3053

 Normal termination of Gaussian 09 at Wed Aug 26 22:48:35 2020.
