 Gaussian 09, Revision D.01,
 Gaussian 09:  ES64L-G09RevD.01 24-Apr-2013

 --------------------
 #p B2PLYPD3/Def2QZVP
 --------------------

 ----------
 butane_opt
 ----------
 Symbolic Z-matrix:
 Charge =  0 Multiplicity = 1

                         Standard orientation:
 ---------------------------------------------------------------------
 Center     Atomic      Atomic             Coordinates (Angstroms)
 Number     Number       Type             X           Y           Z
 ---------------------------------------------------------------------
      1          6           0       -1.875664    0.093147   -0.110671
      2          6           0       -0.575488   -0.435015    0.181119
      3          1           0       -2.879385   -0.958060   -0.092738
      4          1           0       -1.743446    0.733971   -1.101373
      5          1           0       -1.914102    0.736442    0.673462
      6          6           0        0.480983    0.547151    0.100820
      7          1           0       -0.144127   -1.370236   -0.864606
      8          1           0       -0.620340   -0.942394    1.096232
      9          6           0        1.953223   -0.159974   -0.137475
     10          1           0        0.593630    1.438882    1.098016
     11          1           0        0.222376    1.128166   -0.728405
     12          1           0        2.488231   -0.860146    0.908120
     13          1           0        2.451421    0.397680   -0.533899
     14          1           0        1.647419   -0.576158   -0.657570
 ---------------------------------------------------------------------

 SCF Done:  E(RB2PLYPD3) =  -157.700130514     A.U. after   11 cycles
 E2(B2PLYPD3) =    -0.2531750492D+00 E(B2PLYPD3) =    -0.15795330556272D+03

 The electronic state is 1-A.
 Alpha  occ. eigenvalues --  -10.63504 -10.63379 -10.63070 -10.57067  -0.94982
 Alpha  occ. eigenvalues --   -0.88096  -0.74732  -0.65587  -0.56411  -0.53206
 Alpha  occ. eigenvalues --   -0.47721  -0.47549  -0.43316  -0.40290  -0.39349
 Alpha  occ. eigenvalues --   -0.37157  -0.33158
 Alpha virt. eigenvalues --    0.03915   0.05577   0.06219   0.07778   0.09717
 Alpha virt. eigenvalues --    0.10978   0.12116   0.12553   0.14072   0.15188
 Alpha virt. eigenvalues --    0.15637   0.16705   0.17614   0.19662   0.20804

 Mulliken charges:
               1
     1  C   -0.180997
     2  C   -0.024046
     3  H    0.034937
     4  H    0.042750
     5  H    0.094599
     6  C   -0.048816
     7  H   -0.046782
     8  H    0.072435
     9  C   -0.537116
    10  H   -0.011436
    11  H    0.057500
    12  H    0.045107
    13  H    0.120396
    14  H    0.381469
 Sum of Mulliken charges =   0.00000

 Dipole moment (field-independent basis, Debye):
    X=              0.1163    Y=              0.3740    Z=              0.0163  Tot=              0.3920
 Quadrupole moment (field-independent basis, Debye-Ang):
   XX=            -30.6834   YY=            -30.1017   ZZ=            -28.3934
   XY=              0.3481   XZ=             -1.0358   YZ=             -1.1816

 Normal termination of Gaussian 09 at Wed Aug 26 16:14:44 2020.
