 Gaussian 09, Revision D.01,
 Gaussian 09:  ES64L-G09RevD.01 24-Apr-2013

 --------------------
 #p B2PLYPD3/Def2QZVP
 --------------------

 ----------
 butane_opt
 ----------
 Symbolic Z-matrix:
 Charge =  0 Multiplicity = 1

                         Standard orientation:
 ---------------------------------------------------------------------
 Center     Atomic      Atomic             Coordinates (Angstroms)
 Number     Number       Type             X           Y           Z
 ---------------------------------------------------------------------
      1          6           0        2.018855   -0.196149   -0.061418
      2          6           0        0.556672    0.624863    0.012007
      3          1           0        2.661744    0.429760   -0.196440
      4          1           0        2.375762   -1.007494   -0.970209
      5          1           0        2.348767   -0.547261    0.815168
      6          6           0       -0.667568   -0.494038    0.294075
      7          1           0        0.295388    1.243112   -0.979867
      8          1           0        0.302714    1.557809    0.931936
      9          6           0       -1.909665    0.072968   -0.159496
     10          1           0       -0.658581   -1.110002    1.339796
     11          1           0       -0.602284   -1.004915   -0.446792
     12          1           0       -2.671944    0.906290    0.753568
     13          1           0       -2.696338   -0.915771   -0.915277
     14          1           0       -1.344988    0.402610   -0.842888
 ---------------------------------------------------------------------

 SCF Done:  E(RB2PLYPD3) =  -157.793048183     A.U. after   11 cycles
 E2(B2PLYPD3) =    -0.2559877654D+00 E(B2PLYPD3) =    -0.15804903594859D+03

 The electronic state is 1-A.
 Alpha  occ. eigenvalues --  -10.67315 -10.64302 -10.61003 -10.60675  -0.94703
 Alpha  occ. eigenvalues --   -0.84574  -0.71483  -0.65958  -0.54250  -0.49535
 Alpha  occ. eigenvalues --   -0.46775  -0.45279  -0.42568  -0.39591  -0.39047
 Alpha  occ. eigenvalues --   -0.38058  -0.32558
 Alpha virt. eigenvalues --    0.03509   0.05564   0.06938   0.07384   0.08731
 Alpha virt. eigenvalues --    0.10481   0.11968   0.13449   0.14184   0.14763
 Alpha virt. eigenvalues --    0.15019   0.16728   0.17914   0.18009   0.19785

 Mulliken charges:
               1
     1  C   -0.160703
     2  C   -0.097242
     3  H    0.092518
     4  H    0.030846
     5  H    0.054872
     6  C   -0.163919
     7  H    0.036872
     8  H    0.031850
     9  C   -0.202480
    10  H    0.034557
    11  H    0.184148
    12  H    0.033314
    13  H   -0.001611
    14  H    0.126978
 Sum of Mulliken charges =   0.00000

 Dipole moment (field-independent basis, Debye):
    X=              1.1074    Y=              0.0212    Z=             -0.1419  Tot=              1.1166
 Quadrupole moment (field-independent basis, Debye-Ang):
   XX=            -30.9858   YY=            -29.9720   ZZ=            -28.7391
   XY=             -0.2406   XZ=             -0.6857   YZ=              0.4185

 Normal termination of Gaussian 09 at Wed Aug 26 23:34:19 2020.
