 Gaussian 09, Revision D.01,
 Gaussian 09:  ES64L-G09RevD.01 24-Apr-2013

 --------------------
 #p B2PLYPD3/Def2QZVP
 --------------------

 ----------
 butane_opt
 ----------
 Symbolic Z-matrix:
 Charge =  0 Multiplicity = 1

                         Standard orientation:
 ---------------------------------------------------------------------
 Center     Atomic      Atomic             Coordinates (Angstroms)
 Number     Number       Type             X           Y           Z
 ---------------------------------------------------------------------
      1          6           0        1.914181   -0.131602   -0.079798
      2          6           0        0.472010    0.475002   -0.007737
      3          1           0        2.685552    0.715248   -0.057799
      4          1           0        1.945237   -0.754973   -0.918851
      5          1           0        2.246888   -0.787319    0.909057
      6          6           0       -0.562841   -0.417692    0.175777
      7          1           0        0.168638    1.213937   -0.927302
      8          1           0        0.710716    1.229581    0.776116
      9          6           0       -1.920756    0.096556   -0.043784
     10          1           0       -0.418343   -1.169801    1.177177
     11          1           0       -0.361312   -1.188971   -0.729569
     12          1           0       -2.243304    1.041697    0.914673
     13          1           0       -2.705970   -0.712514   -0.615594
     14          1           0       -1.443667    0.279536   -0.794657
 ---------------------------------------------------------------------

 SCF Done:  E(RB2PLYPD3) =  -157.912986118     A.U. after   11 cycles
 E2(B2PLYPD3) =    -0.2546595519D+00 E(B2PLYPD3) =    -0.15816764567016D+03

 The electronic state is 1-A.
 Alpha  occ. eigenvalues --  -10.63543 -10.62313 -10.62098 -10.62070  -0.96728
 Alpha  occ. eigenvalues --   -0.84928  -0.72856  -0.63917  -0.55464  -0.50048
 Alpha  occ. eigenvalues --   -0.49187  -0.46691  -0.42481  -0.40091  -0.39045
 Alpha  occ. eigenvalues --   -0.34791  -0.34141
 Alpha virt. eigenvalues --    0.04909   0.05995   0.06716   0.07046   0.10273
 Alpha virt. eigenvalues --    0.10603   0.12390   0.12614   0.13631   0.14826
 Alpha virt. eigenvalues --    0.16038   0.16721   0.18747   0.19435   0.20553

 Mulliken charges:
               1
     1  C   -0.144716
     2  C    0.002376
     3  H    0.046463
     4  H    0.058238
     5  H    0.035897
     6  C   -0.029856
     7  H    0.009055
     8  H    0.015640
     9  C   -0.251255
    10  H    0.012087
    11  H    0.019524
    12  H    0.058400
    13  H    0.047696
    14  H    0.120451
 Sum of Mulliken charges =   0.00000

 Dipole moment (field-independent basis, Debye):
    X=              0.4580    Y=              0.1076    Z=             -0.2818  Tot=              0.5484
 Quadrupole moment (field-independent basis, Debye-Ang):
   XX=            -30.9585   YY=            -29.9309   ZZ=            -28.9630
   XY=              0.6692   XZ=              0.6907   YZ=              1.2527

 Normal termination of Gaussian 09 at Wed Aug 26 14:06:20 2020.
