 Gaussian 09, Revision D.01,
 Gaussian 09:  ES64L-G09RevD.01 24-Apr-2013

 --------------------
 #p B2PLYPD3/Def2QZVP
 --------------------

 ----------
 butane_opt
 ----------
 Symbolic Z-matrix:
 Charge =  0 Multiplicity = 1

                         Standard orientation:
 ---------------------------------------------------------------------
 Center     Atomic      Atomic             Coordinates (Angstroms)
 Number     Number       Type             X           Y           Z
 ---------------------------------------------------------------------
      1          6           0       -1.980417    0.153199   -0.128638
      2          6           0       -0.579370   -0.486170    0.185258
      3          1           0       -2.839814   -0.703022   -0.186116
      4          1           0       -1.703803    0.776683   -1.144403
      5          1           0       -2.395280    0.490467    0.621354
      6          6           0        0.593017    0.478431    0.180326
      7          1           0       -0.564692   -1.183809   -0.773692
      8          1           0       -0.579733   -0.772520    0.917909
      9          6           0        1.935041   -0.169875   -0.124379
     10          1           0        0.527079    1.417467    1.202327
     11          1           0        0.589916    0.965708   -0.684477
     12          1           0        2.589439   -0.833770    0.887082
     13          1           0        2.809532    0.614847   -0.798873
     14          1           0        1.757732   -0.625566   -0.716507
 ---------------------------------------------------------------------

 SCF Done:  E(RB2PLYPD3) =  -157.703755107     A.U. after   11 cycles
 E2(B2PLYPD3) =    -0.2511728528D+00 E(B2PLYPD3) =    -0.15795492795958D+03

 The electronic state is 1-A.
 Alpha  occ. eigenvalues --  -10.62701 -10.62171 -10.61219 -10.59046  -0.93940
 Alpha  occ. eigenvalues --   -0.86226  -0.75566  -0.69052  -0.57855  -0.49571
 Alpha  occ. eigenvalues --   -0.48515  -0.47316  -0.42795  -0.40540  -0.38202
 Alpha  occ. eigenvalues --   -0.36500  -0.35287
 Alpha virt. eigenvalues --    0.04568   0.05737   0.06968   0.08491   0.09644
 Alpha virt. eigenvalues --    0.10906   0.11614   0.12824   0.14480   0.15479
 Alpha virt. eigenvalues --    0.15686   0.16603   0.17542   0.19254   0.20861

 Mulliken charges:
               1
     1  C   -0.152522
     2  C   -0.278493
     3  H    0.016805
     4  H    0.061842
     5  H    0.071687
     6  C   -0.040930
     7  H    0.044263
     8  H    0.243927
     9  C   -0.455117
    10  H    0.002584
    11  H    0.090079
    12  H    0.031631
    13  H    0.024136
    14  H    0.340108
 Sum of Mulliken charges =   0.00000

 Dipole moment (field-independent basis, Debye):
    X=             -0.5047    Y=             -0.2620    Z=             -0.2049  Tot=              0.6044
 Quadrupole moment (field-independent basis, Debye-Ang):
   XX=            -31.0169   YY=            -30.2648   ZZ=            -27.7440
   XY=              0.3365   XZ=             -1.7996   YZ=             -0.4073

 Normal termination of Gaussian 09 at Wed Aug 26 12:17:46 2020.
