 Gaussian 09, Revision D.01,
 Gaussian 09:  ES64L-G09RevD.01 24-Apr-2013

 --------------------
 #p B2PLYPD3/Def2QZVP
 --------------------

 ----------
 butane_opt
 ----------
 Symbolic Z-matrix:
 Charge =  0 Multiplicity = 1

                         Standard orientation:
 ---------------------------------------------------------------------
 Center     Atomic      Atomic             Coordinates (Angstroms)
 Number     Number       Type             X           Y           Z
 ---------------------------------------------------------------------
      1          6           0       -1.862034    0.048388   -0.079544
      2          6           0       -0.600102   -0.421869    0.153482
      3          1           0       -2.589767   -0.933065   -0.378024
      4          1           0       -1.860714    0.672916   -1.082748
      5          1           0       -2.104293    0.811937    0.758160
      6          6           0        0.510564    0.614880    0.130912
      7          1           0       -0.325912   -1.148517   -0.867567
      8          1           0       -0.375210   -1.194559    1.158173
      9          6           0        1.894987   -0.138173   -0.146261
     10          1           0        0.576822    1.504885    1.051994
     11          1           0        0.348419    1.039130   -0.596233
     12          1           0        2.275378   -1.177940    1.065789
     13          1           0        2.508175    0.397652   -0.624632
     14          1           0        1.886614   -0.591799   -0.836450
 ---------------------------------------------------------------------

 SCF Done:  E(RB2PLYPD3) =  -157.772591633     A.U. after   11 cycles
 E2(B2PLYPD3) =    -0.2535781432D+00 E(B2PLYPD3) =    -0.15802616977666D+03

 The electronic state is 1-A.
 Alpha  occ. eigenvalues --  -10.63569 -10.62925 -10.61140 -10.60415  -0.94237
 Alpha  occ. eigenvalues --   -0.87291  -0.77069  -0.64405  -0.53830  -0.51122
 Alpha  occ. eigenvalues --   -0.50137  -0.45464  -0.42662  -0.41789  -0.36663
 Alpha  occ. eigenvalues --   -0.35760  -0.34180
 Alpha virt. eigenvalues --    0.03003   0.05174   0.06779   0.07331   0.09437
 Alpha virt. eigenvalues --    0.10756   0.11362   0.12539   0.13314   0.15359
 Alpha virt. eigenvalues --    0.15934   0.17056   0.18786   0.19138   0.19569

 Mulliken charges:
               1
     1  C   -0.164947
     2  C   -0.020798
     3  H    0.057110
     4  H    0.033207
     5  H    0.057725
     6  C   -0.168047
     7  H    0.004643
     8  H    0.030014
     9  C   -0.280126
    10  H    0.022734
    11  H    0.178816
    12  H    0.002099
    13  H    0.059731
    14  H    0.187839
 Sum of Mulliken charges =   0.00000

 Dipole moment (field-independent basis, Debye):
    X=             -0.2388    Y=              0.4586    Z=             -1.0021  Tot=              1.1276
 Quadrupole moment (field-independent basis, Debye-Ang):
   XX=            -32.0146   YY=            -29.5542   ZZ=            -28.2458
   XY=              0.4711   XZ=             -1.5997   YZ=             -0.0115

 Normal termination of Gaussian 09 at Wed Aug 26 10:11:33 2020.
