 Gaussian 09, Revision D.01,
 Gaussian 09:  ES64L-G09RevD.01 24-Apr-2013

 --------------------
 #p B2PLYPD3/Def2QZVP
 --------------------

 ----------
 butane_opt
 ----------
 Symbolic Z-matrix:
 Charge =  0 Multiplicity = 1

                         Standard orientation:
 ---------------------------------------------------------------------
 Center     Atomic      Atomic             Coordinates (Angstroms)
 Number     Number       Type             X           Y           Z
 ---------------------------------------------------------------------
      1          6           0        1.962877    0.085066    0.021178
      2          6           0        0.601023   -0.468584    0.096465
      3          1           0        2.801469   -0.800541   -0.493805
      4          1           0        2.361826    1.044991    0.961066
      5          1           0        1.812953    0.486525   -0.814192
      6          6           0       -0.536501    0.536998   -0.078269
      7          1           0        0.519508   -1.016729    0.954523
      8          1           0        0.484559   -1.117759   -0.806334
      9          6           0       -2.034844   -0.122638    0.023961
     10          1           0       -0.515219    1.119647   -1.005791
     11          1           0       -0.444538    1.136925    0.699495
     12          1           0       -2.134957   -0.832487   -0.811971
     13          1           0       -2.666956    0.528365   -0.048655
     14          1           0       -2.173979   -0.733990    0.985655
 ---------------------------------------------------------------------

 SCF Done:  E(RB2PLYPD3) =  -157.975380209     A.U. after   11 cycles
 E2(B2PLYPD3) =    -0.2487309930D+00 E(B2PLYPD3) =    -0.15822411120175D+03

 The electronic state is 1-A.
 Alpha  occ. eigenvalues --  -10.62562 -10.60114 -10.59960 -10.59255  -0.92244
 Alpha  occ. eigenvalues --   -0.83946  -0.74019  -0.67066  -0.55253  -0.50708
 Alpha  occ. eigenvalues --   -0.47822  -0.46512  -0.42825  -0.41299  -0.38915
 Alpha  occ. eigenvalues --   -0.37710  -0.35701
 Alpha virt. eigenvalues --    0.04713   0.06266   0.07955   0.08569   0.10442
 Alpha virt. eigenvalues --    0.11338   0.12429   0.13560   0.14256   0.14826
 Alpha virt. eigenvalues --    0.15535   0.16615   0.19344   0.19763   0.20829

 Mulliken charges:
               1
     1  C   -0.223545
     2  C   -0.024323
     3  H    0.031510
     4  H    0.031489
     5  H    0.106574
     6  C   -0.070020
     7  H    0.051631
     8  H    0.025848
     9  C   -0.166605
    10  H    0.026705
    11  H    0.052673
    12  H    0.034316
    13  H    0.089269
    14  H    0.034478
 Sum of Mulliken charges =   0.00000

 Dipole moment (field-independent basis, Debye):
    X=             -0.4998    Y=              0.1951    Z=             -0.3067  Tot=              0.6180
 Quadrupole moment (field-independent basis, Debye-Ang):
   XX=            -31.0043   YY=            -29.0884   ZZ=            -27.8224
   XY=             -0.4096   XZ=             -0.4752   YZ=              0.4304

 Normal termination of Gaussian 09 at Wed Aug 26 11:16:02 2020.
