 Gaussian 09, Revision D.01,
 Gaussian 09:  ES64L-G09RevD.01 24-Apr-2013

 --------------------
 #p B2PLYPD3/Def2QZVP
 --------------------

 ----------
 butane_opt
 ----------
 Symbolic Z-matrix:
 Charge =  0 Multiplicity = 1

                         Standard orientation:
 ---------------------------------------------------------------------
 Center     Atomic      Atomic             Coordinates (Angstroms)
 Number     Number       Type             X           Y           Z
 ---------------------------------------------------------------------
      1          6           0       -1.898902   -0.124615   -0.180422
      2          6           0       -0.484328    0.514710    0.219502
      3          1           0       -2.788800    0.706167   -0.290521
      4          1           0       -2.353414   -0.513521    0.521637
      5          1           0       -2.014797   -0.867210   -1.011243
      6          6           0        0.573152   -0.508821    0.317810
      7          1           0       -0.391574    1.263949    1.081824
      8          1           0       -0.221389    1.152918   -0.746264
      9          6           0        1.832360    0.068675   -0.225300
     10          1           0        0.166877   -1.168405   -0.420116
     11          1           0        0.663724   -1.292694    1.197423
     12          1           0        1.793415    0.701747   -1.185857
     13          1           0        2.608196   -0.656569   -0.715538
     14          1           0        2.404066    0.973924    0.779109
 ---------------------------------------------------------------------

 SCF Done:  E(RB2PLYPD3) =  -157.980403929     A.U. after   11 cycles
 E2(B2PLYPD3) =    -0.2523406634D+00 E(B2PLYPD3) =    -0.15823274459262D+03

 The electronic state is 1-A.
 Alpha  occ. eigenvalues --  -10.64780 -10.63026 -10.61475 -10.60335  -0.92211
 Alpha  occ. eigenvalues --   -0.82396  -0.72962  -0.66223  -0.53799  -0.50256
 Alpha  occ. eigenvalues --   -0.47647  -0.45630  -0.42085  -0.41180  -0.38187
 Alpha  occ. eigenvalues --   -0.35978  -0.34770
 Alpha virt. eigenvalues --    0.04823   0.05970   0.07415   0.08084   0.10312
 Alpha virt. eigenvalues --    0.10855   0.12094   0.13026   0.14582   0.15013
 Alpha virt. eigenvalues --    0.15694   0.16505   0.19293   0.19804   0.20279

 Mulliken charges:
               1
     1  C   -0.156456
     2  C   -0.033769
     3  H    0.011379
     4  H    0.069794
     5  H    0.045103
     6  C   -0.018373
     7  H    0.039784
     8  H    0.034760
     9  C   -0.156631
    10  H    0.029183
    11  H    0.043116
    12  H    0.046275
    13  H    0.045018
    14  H    0.000817
 Sum of Mulliken charges =   0.00000

 Dipole moment (field-independent basis, Debye):
    X=             -0.4413    Y=             -0.5386    Z=             -0.2812  Tot=              0.7510
 Quadrupole moment (field-independent basis, Debye-Ang):
   XX=            -31.0066   YY=            -29.3262   ZZ=            -28.6734
   XY=              0.2749   XZ=             -1.3213   YZ=              0.2678

 Normal termination of Gaussian 09 at Wed Aug 26 19:09:39 2020.
