 Gaussian 09, Revision D.01,
 Gaussian 09:  ES64L-G09RevD.01 24-Apr-2013

 --------------------
 #p B2PLYPD3/Def2QZVP
 --------------------

 ----------
 butane_opt
 ----------
 Symbolic Z-matrix:
 Charge =  0 Multiplicity = 1

                         Standard orientation:
 ---------------------------------------------------------------------
 Center     Atomic      Atomic             Coordinates (Angstroms)
 Number     Number       Type             X           Y           Z
 ---------------------------------------------------------------------
      1          6           0       -1.947387   -0.134628   -0.067616
      2          6           0       -0.552480    0.473069    0.076938
      3          1           0       -2.819488    0.775988   -0.198781
      4          1           0       -2.000215   -0.670850    0.864933
      5          1           0       -1.859773   -0.726224   -0.929470
      6          6           0        0.573729   -0.531456    0.163745
      7          1           0       -0.658108    1.042051    0.927517
      8          1           0       -0.485738    1.261439   -0.951728
      9          6           0        1.897698    0.149565   -0.070582
     10          1           0        0.637418   -1.188182   -0.786850
     11          1           0        0.269212   -1.201858    1.055781
     12          1           0        1.545585    0.602649   -0.913397
     13          1           0        2.742504   -0.729586   -0.626424
     14          1           0        2.799250    1.095275    0.943510
 ---------------------------------------------------------------------

 SCF Done:  E(RB2PLYPD3) =  -157.931541654     A.U. after   11 cycles
 E2(B2PLYPD3) =    -0.2551207964D+00 E(B2PLYPD3) =    -0.15818666245024D+03

 The electronic state is 1-A.
 Alpha  occ. eigenvalues --  -10.66494 -10.63911 -10.62113 -10.61494  -0.92988
 Alpha  occ. eigenvalues --   -0.84233  -0.70605  -0.65198  -0.54859  -0.49407
 Alpha  occ. eigenvalues --   -0.47894  -0.46885  -0.42119  -0.40313  -0.37454
 Alpha  occ. eigenvalues --   -0.36790  -0.34157
 Alpha virt. eigenvalues --    0.02755   0.05098   0.06362   0.07114   0.09637
 Alpha virt. eigenvalues --    0.09956   0.12204   0.12735   0.13970   0.15164
 Alpha virt. eigenvalues --    0.15714   0.15887   0.18293   0.18944   0.20551

 Mulliken charges:
               1
     1  C   -0.160691
     2  C   -0.046550
     3  H    0.038216
     4  H    0.056143
     5  H    0.062442
     6  C   -0.037488
     7  H    0.066730
     8  H   -0.017569
     9  C   -0.201756
    10  H    0.045603
    11  H    0.039305
    12  H    0.118851
    13  H    0.023695
    14  H    0.013069
 Sum of Mulliken charges =   0.00000

 Dipole moment (field-independent basis, Debye):
    X=             -0.6141    Y=             -0.3854    Z=             -0.2397  Tot=              0.7637
 Quadrupole moment (field-independent basis, Debye-Ang):
   XX=            -32.9524   YY=            -30.2916   ZZ=            -28.6326
   XY=             -1.1293   XZ=             -0.9926   YZ=              0.3572

 Normal termination of Gaussian 09 at Wed Aug 26 20:37:51 2020.
