 Gaussian 09, Revision D.01,
 Gaussian 09:  ES64L-G09RevD.01 24-Apr-2013

 --------------------
 #p B2PLYPD3/Def2QZVP
 --------------------

 ----------
 butane_opt
 ----------
 Symbolic Z-matrix:
 Charge =  0 Multiplicity = 1

                         Standard orientation:
 ---------------------------------------------------------------------
 Center     Atomic      Atomic             Coordinates (Angstroms)
 Number     Number       Type             X           Y           Z
 ---------------------------------------------------------------------
      1          6           0        1.854853    0.092325    0.116220
      2          6           0        0.606630   -0.439397   -0.124083
      3          1           0        2.816564   -0.776376   -0.106593
      4          1           0        1.862470    1.119676    1.180687
      5          1           0        1.948317    0.453128   -0.540961
      6          6           0       -0.554419    0.495172   -0.268471
      7          1           0        0.373836   -1.276496    1.053171
      8          1           0        0.532848   -1.075815   -0.875746
      9          6           0       -1.988320   -0.142472    0.184730
     10          1           0       -0.441742    1.321798   -1.182163
     11          1           0       -0.117968    1.097680    0.508641
     12          1           0       -2.271723   -1.105805   -0.763078
     13          1           0       -2.679280    0.603658    0.471786
     14          1           0       -1.535787   -0.395218    0.803882
 ---------------------------------------------------------------------

 SCF Done:  E(RB2PLYPD3) =  -157.645508395     A.U. after   11 cycles
 E2(B2PLYPD3) =    -0.2554315134D+00 E(B2PLYPD3) =    -0.15790093990812D+03

 The electronic state is 1-A.
 Alpha  occ. eigenvalues --  -10.62740 -10.62645 -10.61691 -10.60802  -0.96485
 Alpha  occ. eigenvalues --   -0.87901  -0.75891  -0.66727  -0.56361  -0.53564
 Alpha  occ. eigenvalues --   -0.48117  -0.45719  -0.44013  -0.39401  -0.38115
 Alpha  occ. eigenvalues --   -0.36213  -0.33422
 Alpha virt. eigenvalues --    0.03030   0.05711   0.06404   0.07150   0.10090
 Alpha virt. eigenvalues --    0.10579   0.11883   0.12826   0.14019   0.14435
 Alpha virt. eigenvalues --    0.15266   0.16838   0.17218   0.19199   0.20484

 Mulliken charges:
               1
     1  C   -0.463358
     2  C   -0.002945
     3  H    0.050265
     4  H    0.029455
     5  H    0.368373
     6  C   -0.076527
     7  H   -0.044083
     8  H    0.066565
     9  C   -0.362125
    10  H    0.013429
    11  H    0.032436
    12  H    0.037604
    13  H    0.074457
    14  H    0.276452
 Sum of Mulliken charges =   0.00000

 Dipole moment (field-independent basis, Debye):
    X=              0.1695    Y=              0.4057    Z=             -0.6179  Tot=              0.7583
 Quadrupole moment (field-independent basis, Debye-Ang):
   XX=            -30.1194   YY=            -29.8770   ZZ=            -29.1288
   XY=             -0.7544   XZ=             -1.6324   YZ=              1.4809

 Normal termination of Gaussian 09 at Wed Aug 26 23:49:00 2020.
