 Gaussian 09, Revision D.01,
 Gaussian 09:  ES64L-G09RevD.01 24-Apr-2013

 --------------------
 #p B2PLYPD3/Def2QZVP
 --------------------

 ----------
 butane_opt
 ----------
 Symbolic Z-matrix:
 Charge =  0 Multiplicity = 1

                         Standard orientation:
 ---------------------------------------------------------------------
 Center     Atomic      Atomic             Coordinates (Angstroms)
 Number     Number       Type             X           Y           Z
 ---------------------------------------------------------------------
      1          6           0       -1.919039    0.047649    0.055392
      2          6           0       -0.539413   -0.410915    0.008488
      3          1           0       -2.697290   -0.751947   -0.461228
      4          1           0       -1.624601    0.390500   -0.667110
      5          1           0       -2.285963    1.012098    1.097366
      6          6           0        0.480124    0.531790   -0.036637
      7          1           0       -0.371140   -1.175383   -0.934375
      8          1           0       -0.375116   -0.937367    0.806726
      9          6           0        1.883059   -0.145618    0.064808
     10          1           0        0.678785    0.934850    0.425544
     11          1           0        0.181667    1.289872   -1.025361
     12          1           0        1.943528   -0.884411    1.011427
     13          1           0        2.818000    0.680655   -0.073963
     14          1           0        2.303746   -0.696313   -0.731324
 ---------------------------------------------------------------------

 SCF Done:  E(RB2PLYPD3) =  -157.517055078     A.U. after   11 cycles
 E2(B2PLYPD3) =    -0.2531583437D+00 E(B2PLYPD3) =    -0.15777021342203D+03

 The electronic state is 1-A.
 Alpha  occ. eigenvalues --  -10.63161 -10.60933 -10.60273 -10.58821  -0.98145
 Alpha  occ. eigenvalues --   -0.88635  -0.73844  -0.71754  -0.58968  -0.50325
 Alpha  occ. eigenvalues --   -0.49040  -0.46835  -0.41455  -0.39660  -0.38579
 Alpha  occ. eigenvalues --   -0.36648  -0.35478
 Alpha virt. eigenvalues --    0.04620   0.05438   0.06849   0.07747   0.10342
 Alpha virt. eigenvalues --    0.11186   0.12326   0.12885   0.14448   0.15250
 Alpha virt. eigenvalues --    0.15479   0.16212   0.18426   0.20345   0.22039

 Mulliken charges:
               1
     1  C   -0.328763
     2  C    0.053805
     3  H    0.048874
     4  H    0.203950
     5  H    0.037878
     6  C   -0.655949
     7  H    0.026314
     8  H    0.051046
     9  C   -0.136784
    10  H    0.565898
    11  H    0.019969
    12  H    0.052703
    13  H    0.019337
    14  H    0.041722
 Sum of Mulliken charges =   0.00000

 Dipole moment (field-independent basis, Debye):
    X=              0.4653    Y=             -0.2362    Z=             -0.1126  Tot=              0.5338
 Quadrupole moment (field-independent basis, Debye-Ang):
   XX=            -30.5865   YY=            -29.2899   ZZ=            -28.4155
   XY=             -0.0276   XZ=              0.1546   YZ=              0.7126

 Normal termination of Gaussian 09 at Wed Aug 26 14:34:15 2020.
