 Gaussian 09, Revision D.01,
 Gaussian 09:  ES64L-G09RevD.01 24-Apr-2013

 --------------------
 #p B2PLYPD3/Def2QZVP
 --------------------

 ----------
 butane_opt
 ----------
 Symbolic Z-matrix:
 Charge =  0 Multiplicity = 1

                         Standard orientation:
 ---------------------------------------------------------------------
 Center     Atomic      Atomic             Coordinates (Angstroms)
 Number     Number       Type             X           Y           Z
 ---------------------------------------------------------------------
      1          6           0       -1.880725    0.039292   -0.026065
      2          6           0       -0.563098   -0.410383    0.134956
      3          1           0       -2.721174   -0.926919   -0.841980
      4          1           0       -1.556903    0.258117   -0.755038
      5          1           0       -2.420428    1.369666    1.109833
      6          6           0        0.530536    0.529601   -0.040880
      7          1           0       -0.743351   -0.971736   -0.449698
      8          1           0       -0.569750   -0.936077    1.184280
      9          6           0        1.984481   -0.173045    0.047438
     10          1           0        0.342896    0.942426    0.405201
     11          1           0        0.450300    1.295147   -1.133583
     12          1           0        2.176156   -0.561597    0.936240
     13          1           0        2.708644    0.516336   -0.237138
     14          1           0        1.906450   -0.898150   -0.910811
 ---------------------------------------------------------------------

 SCF Done:  E(RB2PLYPD3) =  -157.299061601     A.U. after   13 cycles
 E2(B2PLYPD3) =    -0.2571010246D+00 E(B2PLYPD3) =    -0.15755616262528D+03

 The electronic state is 1-A.
 Alpha  occ. eigenvalues --  -10.65168 -10.61324 -10.60312 -10.59369  -1.01773
 Alpha  occ. eigenvalues --   -0.89464  -0.78510  -0.69666  -0.57173  -0.52818
 Alpha  occ. eigenvalues --   -0.51208  -0.47440  -0.42390  -0.42137  -0.38728
 Alpha  occ. eigenvalues --   -0.35553  -0.32353
 Alpha virt. eigenvalues --   -0.01764   0.04988   0.05823   0.06830   0.09732
 Alpha virt. eigenvalues --    0.10572   0.12144   0.12673   0.13847   0.15208
 Alpha virt. eigenvalues --    0.15487   0.16863   0.18082   0.19022   0.20557

 Mulliken charges:
               1
     1  C   -0.380890
     2  C   -0.176166
     3  H    0.019419
     4  H    0.292931
     5  H   -0.023380
     6  C   -0.676164
     7  H    0.248009
     8  H    0.029121
     9  C   -0.113594
    10  H    0.588470
    11  H    0.018922
    12  H    0.079247
    13  H    0.057262
    14  H    0.036813
 Sum of Mulliken charges =   0.00000

 Dipole moment (field-independent basis, Debye):
    X=              1.2248    Y=             -0.3130    Z=             -0.4945  Tot=              1.3574
 Quadrupole moment (field-independent basis, Debye-Ang):
   XX=            -32.7040   YY=            -29.9020   ZZ=            -28.0095
   XY=              1.5502   XZ=              1.7462   YZ=              0.8809

 Normal termination of Gaussian 09 at Wed Aug 26 23:29:06 2020.
