 Gaussian 09, Revision D.01,
 Gaussian 09:  ES64L-G09RevD.01 24-Apr-2013

 --------------------
 #p B2PLYPD3/Def2QZVP
 --------------------

 ----------
 butane_opt
 ----------
 Symbolic Z-matrix:
 Charge =  0 Multiplicity = 1

                         Standard orientation:
 ---------------------------------------------------------------------
 Center     Atomic      Atomic             Coordinates (Angstroms)
 Number     Number       Type             X           Y           Z
 ---------------------------------------------------------------------
      1          6           0        1.865308   -0.048212    0.099508
      2          6           0        0.605291    0.355891   -0.238039
      3          1           0        2.617796    0.850369    0.449853
      4          1           0        2.223971   -0.815227   -0.693432
      5          1           0        1.760550   -0.427057    1.068221
      6          6           0       -0.481119   -0.530000   -0.027227
      7          1           0        0.446105    0.995654   -1.223611
      8          1           0        0.353719    1.136099    0.495418
      9          6           0       -1.966237    0.156463    0.045834
     10          1           0       -0.417367   -1.115946    1.035862
     11          1           0       -0.171776   -1.304916   -0.705278
     12          1           0       -2.006526    1.271947    1.005213
     13          1           0       -2.856363   -0.663735    0.122084
     14          1           0       -2.089569    0.467957   -0.834789
 ---------------------------------------------------------------------

 SCF Done:  E(RB2PLYPD3) =  -157.958473280     A.U. after   11 cycles
 E2(B2PLYPD3) =    -0.2523052532D+00 E(B2PLYPD3) =    -0.15821077853333D+03

 The electronic state is 1-A.
 Alpha  occ. eigenvalues --  -10.64269 -10.61910 -10.60700 -10.59541  -0.94880
 Alpha  occ. eigenvalues --   -0.83178  -0.73643  -0.65111  -0.56026  -0.49516
 Alpha  occ. eigenvalues --   -0.49325  -0.46965  -0.42720  -0.39612  -0.37751
 Alpha  occ. eigenvalues --   -0.37022  -0.34057
 Alpha virt. eigenvalues --    0.04278   0.05792   0.07536   0.07836   0.10425
 Alpha virt. eigenvalues --    0.10850   0.12223   0.13405   0.13611   0.15072
 Alpha virt. eigenvalues --    0.15708   0.16204   0.18833   0.19733   0.20592

 Mulliken charges:
               1
     1  C   -0.162101
     2  C    0.000214
     3  H    0.041170
     4  H    0.037562
     5  H    0.062024
     6  C   -0.029441
     7  H    0.014282
     8  H    0.007694
     9  C   -0.191394
    10  H    0.000794
    11  H    0.031963
    12  H    0.031815
    13  H    0.049181
    14  H    0.106237
 Sum of Mulliken charges =   0.00000

 Dipole moment (field-independent basis, Debye):
    X=             -0.0750    Y=             -0.0135    Z=             -0.1204  Tot=              0.1425
 Quadrupole moment (field-independent basis, Debye-Ang):
   XX=            -30.4521   YY=            -29.6961   ZZ=            -28.7244
   XY=              0.3345   XZ=              0.9953   YZ=              0.7761

 Normal termination of Gaussian 09 at Wed Aug 26 23:06:09 2020.
