 Gaussian 09, Revision D.01,
 Gaussian 09:  ES64L-G09RevD.01 24-Apr-2013

 --------------------
 #p B2PLYPD3/Def2QZVP
 --------------------

 ----------
 butane_opt
 ----------
 Symbolic Z-matrix:
 Charge =  0 Multiplicity = 1

                         Standard orientation:
 ---------------------------------------------------------------------
 Center     Atomic      Atomic             Coordinates (Angstroms)
 Number     Number       Type             X           Y           Z
 ---------------------------------------------------------------------
      1          6           0       -1.993100    0.076903   -0.111248
      2          6           0       -0.665955   -0.418769    0.178429
      3          1           0       -2.867508   -0.897764   -0.355110
      4          1           0       -1.775110    0.707369   -1.034392
      5          1           0       -2.136570    0.559442    0.518293
      6          6           0        0.581902    0.610937    0.153634
      7          1           0       -0.501325   -1.024036   -0.595100
      8          1           0       -0.325483   -1.150357    1.258130
      9          6           0        2.030741   -0.209156   -0.208818
     10          1           0        0.602920    1.855155    1.164421
     11          1           0        0.417294    0.972872   -0.551961
     12          1           0        2.471815   -1.123207    1.090019
     13          1           0        2.642868    0.397997   -0.751302
     14          1           0        1.749567   -0.656963   -0.814975
 ---------------------------------------------------------------------

 SCF Done:  E(RB2PLYPD3) =  -157.582490880     A.U. after   11 cycles
 E2(B2PLYPD3) =    -0.2552642372D+00 E(B2PLYPD3) =    -0.15783775511724D+03

 The electronic state is 1-A.
 Alpha  occ. eigenvalues --  -10.63959 -10.62813 -10.62597 -10.60278  -0.93731
 Alpha  occ. eigenvalues --   -0.87414  -0.77441  -0.69159  -0.55364  -0.50867
 Alpha  occ. eigenvalues --   -0.47993  -0.47112  -0.43549  -0.40684  -0.36441
 Alpha  occ. eigenvalues --   -0.35496  -0.34880
 Alpha virt. eigenvalues --    0.01966   0.04521   0.05770   0.07718   0.08926
 Alpha virt. eigenvalues --    0.10316   0.11357   0.12162   0.14528   0.14794
 Alpha virt. eigenvalues --    0.15709   0.16421   0.17160   0.18336   0.19018

 Mulliken charges:
               1
     1  C   -0.328896
     2  C   -0.048749
     3  H    0.051660
     4  H    0.048794
     5  H    0.233067
     6  C   -0.329348
     7  H    0.073126
     8  H    0.008289
     9  C   -0.363681
    10  H   -0.009720
    11  H    0.291232
    12  H    0.028003
    13  H    0.071982
    14  H    0.274239
 Sum of Mulliken charges =   0.00000

 Dipole moment (field-independent basis, Debye):
    X=             -0.3364    Y=             -0.0305    Z=             -1.3818  Tot=              1.4225
 Quadrupole moment (field-independent basis, Debye-Ang):
   XX=            -30.6978   YY=            -30.1091   ZZ=            -28.5857
   XY=              0.2668   XZ=             -1.3084   YZ=             -0.3438

 Normal termination of Gaussian 09 at Wed Aug 26 10:18:47 2020.
