 Gaussian 09, Revision D.01,
 Gaussian 09:  ES64L-G09RevD.01 24-Apr-2013

 --------------------
 #p B2PLYPD3/Def2QZVP
 --------------------

 ----------
 butane_opt
 ----------
 Symbolic Z-matrix:
 Charge =  0 Multiplicity = 1

                         Standard orientation:
 ---------------------------------------------------------------------
 Center     Atomic      Atomic             Coordinates (Angstroms)
 Number     Number       Type             X           Y           Z
 ---------------------------------------------------------------------
      1          6           0        1.944872   -0.169373    0.018552
      2          6           0        0.487037    0.562792    0.044983
      3          1           0        2.768772    0.749809   -0.664632
      4          1           0        1.789155   -0.501527   -0.724353
      5          1           0        2.662982   -1.111256    1.140428
      6          6           0       -0.640505   -0.519917    0.025763
      7          1           0        0.216298    1.348745   -0.891788
      8          1           0        0.477736    1.353819    0.860109
      9          6           0       -1.853784    0.082884   -0.012347
     10          1           0       -0.399616   -0.926893    0.710078
     11          1           0       -0.495042   -1.356689   -0.983130
     12          1           0       -2.332553    0.881036    1.153453
     13          1           0       -2.693710   -0.769783   -0.244489
     14          1           0       -1.619746    0.594426   -0.817385
 ---------------------------------------------------------------------

 SCF Done:  E(RB2PLYPD3) =  -157.676006092     A.U. after   11 cycles
 E2(B2PLYPD3) =    -0.2581790487D+00 E(B2PLYPD3) =    -0.15793418514026D+03

 The electronic state is 1-A.
 Alpha  occ. eigenvalues --  -10.65043 -10.64572 -10.62709 -10.60001  -0.95492
 Alpha  occ. eigenvalues --   -0.85020  -0.73365  -0.68632  -0.54421  -0.48894
 Alpha  occ. eigenvalues --   -0.47340  -0.45513  -0.41659  -0.38920  -0.38591
 Alpha  occ. eigenvalues --   -0.35451  -0.34137
 Alpha virt. eigenvalues --    0.01122   0.04515   0.04703   0.06387   0.09512
 Alpha virt. eigenvalues --    0.10396   0.10853   0.12385   0.14325   0.15086
 Alpha virt. eigenvalues --    0.15783   0.16288   0.17900   0.18577   0.19441

 Mulliken charges:
               1
     1  C   -0.409867
     2  C   -0.009256
     3  H    0.010407
     4  H    0.279623
     5  H    0.067511
     6  C   -0.175153
     7  H   -0.003894
     8  H    0.044022
     9  C   -0.153906
    10  H    0.195164
    11  H    0.009944
    12  H    0.014915
    13  H    0.042321
    14  H    0.088168
 Sum of Mulliken charges =   0.00000

 Dipole moment (field-independent basis, Debye):
    X=             -0.1954    Y=             -0.4697    Z=             -0.2139  Tot=              0.5519
 Quadrupole moment (field-independent basis, Debye-Ang):
   XX=            -32.9151   YY=            -29.3920   ZZ=            -28.7475
   XY=             -0.2869   XZ=              0.2946   YZ=             -0.4079

 Normal termination of Gaussian 09 at Wed Aug 26 10:14:10 2020.
