 Gaussian 09, Revision D.01,
 Gaussian 09:  ES64L-G09RevD.01 24-Apr-2013

 --------------------
 #p B2PLYPD3/Def2QZVP
 --------------------

 ----------
 butane_opt
 ----------
 Symbolic Z-matrix:
 Charge =  0 Multiplicity = 1

                         Standard orientation:
 ---------------------------------------------------------------------
 Center     Atomic      Atomic             Coordinates (Angstroms)
 Number     Number       Type             X           Y           Z
 ---------------------------------------------------------------------
      1          6           0        1.909614   -0.162936   -0.051520
      2          6           0        0.486735    0.576959   -0.003041
      3          1           0        2.721248    0.536799    0.140758
      4          1           0        2.123487   -0.915576   -0.914851
      5          1           0        2.191430   -0.633653    0.764373
      6          6           0       -0.555471   -0.462324    0.043275
      7          1           0        0.328946    1.174912   -0.936724
      8          1           0        0.536467    1.342982    0.930500
      9          6           0       -1.923020    0.082151   -0.028200
     10          1           0       -0.390903   -1.300970    1.124089
     11          1           0       -0.424158   -0.991706   -0.726943
     12          1           0       -2.044508    0.743602    0.820822
     13          1           0       -2.705837   -0.754959   -0.164409
     14          1           0       -1.843320    0.595472   -0.800699
 ---------------------------------------------------------------------

 SCF Done:  E(RB2PLYPD3) =  -158.011304345     A.U. after   11 cycles
 E2(B2PLYPD3) =    -0.2480726444D+00 E(B2PLYPD3) =    -0.15825937698910D+03

 The electronic state is 1-A.
 Alpha  occ. eigenvalues --  -10.62901 -10.60610 -10.59639 -10.58215  -0.93237
 Alpha  occ. eigenvalues --   -0.83854  -0.74441  -0.66623  -0.54672  -0.50408
 Alpha  occ. eigenvalues --   -0.49007  -0.47198  -0.42956  -0.41712  -0.39424
 Alpha  occ. eigenvalues --   -0.36994  -0.35832
 Alpha virt. eigenvalues --    0.05596   0.06844   0.07454   0.08168   0.10675
 Alpha virt. eigenvalues --    0.11951   0.12803   0.14155   0.14761   0.15371
 Alpha virt. eigenvalues --    0.15508   0.16548   0.19368   0.19956   0.20941

 Mulliken charges:
               1
     1  C   -0.128348
     2  C   -0.029996
     3  H    0.024111
     4  H    0.033646
     5  H    0.049558
     6  C   -0.071800
     7  H    0.038259
     8  H    0.015669
     9  C   -0.179212
    10  H   -0.021735
    11  H    0.088204
    12  H    0.053721
    13  H    0.044939
    14  H    0.082984
 Sum of Mulliken charges =   0.00000

 Dipole moment (field-independent basis, Debye):
    X=              0.0782    Y=              0.1581    Z=             -0.2905  Tot=              0.3399
 Quadrupole moment (field-independent basis, Debye-Ang):
   XX=            -29.6693   YY=            -29.1917   ZZ=            -28.3138
   XY=             -0.0343   XZ=              1.2950   YZ=              0.8673

 Normal termination of Gaussian 09 at Wed Aug 26 13:13:27 2020.
