 Gaussian 09, Revision D.01,
 Gaussian 09:  ES64L-G09RevD.01 24-Apr-2013

 --------------------
 #p B2PLYPD3/Def2QZVP
 --------------------

 ----------
 butane_opt
 ----------
 Symbolic Z-matrix:
 Charge =  0 Multiplicity = 1

                         Standard orientation:
 ---------------------------------------------------------------------
 Center     Atomic      Atomic             Coordinates (Angstroms)
 Number     Number       Type             X           Y           Z
 ---------------------------------------------------------------------
      1          6           0        1.923380    0.070595   -0.217293
      2          6           0        0.641738   -0.467880    0.273317
      3          1           0        2.816958   -0.814477   -0.627970
      4          1           0        2.490299    1.150399    0.861352
      5          1           0        1.733651    0.466931   -1.028478
      6          6           0       -0.530353    0.531787    0.113332
      7          1           0        0.918383   -1.003171    1.344526
      8          1           0        0.256930   -1.115112   -0.408758
      9          6           0       -2.049603   -0.155623   -0.054181
     10          1           0       -0.373505    1.272837   -0.981234
     11          1           0       -0.693550    1.247708    0.828049
     12          1           0       -2.095806   -1.104871   -0.993177
     13          1           0       -2.787069    0.531453   -0.390484
     14          1           0       -2.177262   -0.504969    0.705128
 ---------------------------------------------------------------------

 SCF Done:  E(RB2PLYPD3) =  -157.849480002     A.U. after   11 cycles
 E2(B2PLYPD3) =    -0.2531110736D+00 E(B2PLYPD3) =    -0.15810259107583D+03

 The electronic state is 1-A.
 Alpha  occ. eigenvalues --  -10.64668 -10.64171 -10.62316 -10.60803  -0.91796
 Alpha  occ. eigenvalues --   -0.84180  -0.73735  -0.66913  -0.54936  -0.53010
 Alpha  occ. eigenvalues --   -0.47845  -0.43857  -0.43309  -0.38865  -0.38460
 Alpha  occ. eigenvalues --   -0.36857  -0.34539
 Alpha virt. eigenvalues --    0.02919   0.05324   0.07095   0.07832   0.09462
 Alpha virt. eigenvalues --    0.10511   0.11596   0.12761   0.13176   0.14551
 Alpha virt. eigenvalues --    0.15682   0.16395   0.18583   0.18964   0.20499

 Mulliken charges:
               1
     1  C   -0.185535
     2  C   -0.059497
     3  H    0.032156
     4  H   -0.011249
     5  H    0.114360
     6  C   -0.057342
     7  H    0.039682
     8  H    0.081139
     9  C   -0.258593
    10  H   -0.009879
    11  H    0.061798
    12  H    0.001300
    13  H    0.067557
    14  H    0.184104
 Sum of Mulliken charges =   0.00000

 Dipole moment (field-independent basis, Debye):
    X=             -0.7606    Y=             -0.2043    Z=             -0.1298  Tot=              0.7982
 Quadrupole moment (field-independent basis, Debye-Ang):
   XX=            -31.3637   YY=            -30.0577   ZZ=            -28.5462
   XY=             -1.7046   XZ=             -1.0987   YZ=              0.2350

 Normal termination of Gaussian 09 at Wed Aug 26 19:18:14 2020.
