 Gaussian 09, Revision D.01,
 Gaussian 09:  ES64L-G09RevD.01 24-Apr-2013

 --------------------
 #p B2PLYPD3/Def2QZVP
 --------------------

 ----------
 butane_opt
 ----------
 Symbolic Z-matrix:
 Charge =  0 Multiplicity = 1

                         Standard orientation:
 ---------------------------------------------------------------------
 Center     Atomic      Atomic             Coordinates (Angstroms)
 Number     Number       Type             X           Y           Z
 ---------------------------------------------------------------------
      1          6           0       -1.919184   -0.108824    0.165825
      2          6           0       -0.476339    0.540346   -0.121381
      3          1           0       -2.536073    0.336346    0.042676
      4          1           0       -1.996695   -0.965243    1.147202
      5          1           0       -2.189078   -0.591778   -0.755667
      6          6           0        0.559237   -0.473231   -0.257181
      7          1           0       -0.198006    1.166521    0.801899
      8          1           0       -0.869602    1.256756   -0.937233
      9          6           0        1.879302    0.060318    0.147185
     10          1           0        0.518816   -0.991820   -1.144285
     11          1           0        0.243270   -1.079396    0.337751
     12          1           0        2.476412    0.773768   -0.693643
     13          1           0        2.792183   -0.743877    0.534691
     14          1           0        1.500678    0.727066    1.059918
 ---------------------------------------------------------------------

 SCF Done:  E(RB2PLYPD3) =  -157.863428044     A.U. after   11 cycles
 E2(B2PLYPD3) =    -0.2504210067D+00 E(B2PLYPD3) =    -0.15811384905082D+03

 The electronic state is 1-A.
 Alpha  occ. eigenvalues --  -10.64049 -10.62336 -10.58714 -10.57601  -0.94125
 Alpha  occ. eigenvalues --   -0.85831  -0.73627  -0.68384  -0.55556  -0.51433
 Alpha  occ. eigenvalues --   -0.48719  -0.45770  -0.42801  -0.39807  -0.38150
 Alpha  occ. eigenvalues --   -0.38050  -0.36448
 Alpha virt. eigenvalues --    0.05387   0.06394   0.08102   0.08484   0.10543
 Alpha virt. eigenvalues --    0.11174   0.12294   0.14305   0.14389   0.15027
 Alpha virt. eigenvalues --    0.15946   0.17348   0.18970   0.19756   0.21161

 Mulliken charges:
               1
     1  C   -0.375362
     2  C    0.003762
     3  H    0.246816
     4  H    0.028718
     5  H    0.030296
     6  C   -0.077763
     7  H    0.021641
     8  H    0.024281
     9  C   -0.159407
    10  H    0.035855
    11  H    0.105035
    12  H    0.037875
    13  H    0.033066
    14  H    0.045186
 Sum of Mulliken charges =   0.00000

 Dipole moment (field-independent basis, Debye):
    X=             -0.4402    Y=             -0.1017    Z=             -0.2957  Tot=              0.5400
 Quadrupole moment (field-independent basis, Debye-Ang):
   XX=            -29.4267   YY=            -29.3916   ZZ=            -28.6816
   XY=             -0.8983   XZ=              0.6591   YZ=             -0.3486

 Normal termination of Gaussian 09 at Wed Aug 26 09:54:06 2020.
