 Gaussian 09, Revision D.01,
 Gaussian 09:  ES64L-G09RevD.01 24-Apr-2013

 --------------------
 #p B2PLYPD3/Def2QZVP
 --------------------

 ----------
 butane_opt
 ----------
 Symbolic Z-matrix:
 Charge =  0 Multiplicity = 1

                         Standard orientation:
 ---------------------------------------------------------------------
 Center     Atomic      Atomic             Coordinates (Angstroms)
 Number     Number       Type             X           Y           Z
 ---------------------------------------------------------------------
      1          6           0        1.827428    0.020693   -0.172522
      2          6           0        0.583466   -0.318233    0.402524
      3          1           0        2.640790   -0.985364   -0.611738
      4          1           0        2.574199    1.132706    0.505849
      5          1           0        1.501114    0.166087   -0.985228
      6          6           0       -0.553645    0.563863   -0.061311
      7          1           0        0.446677   -0.991189    1.604863
      8          1           0        0.652271   -1.004759   -0.223393
      9          6           0       -1.918451   -0.209165   -0.112760
     10          1           0       -0.185038    0.821456   -0.949196
     11          1           0       -0.425194    1.619790    0.639103
     12          1           0       -1.839042   -1.343088   -0.983932
     13          1           0       -2.655599    0.562642   -0.172354
     14          1           0       -2.342966   -0.321230    0.840437
 ---------------------------------------------------------------------

 SCF Done:  E(RB2PLYPD3) =  -157.784870009     A.U. after   11 cycles
 E2(B2PLYPD3) =    -0.2562092097D+00 E(B2PLYPD3) =    -0.15804107921861D+03

 The electronic state is 1-A.
 Alpha  occ. eigenvalues --  -10.64366 -10.63769 -10.62943 -10.61151  -0.97689
 Alpha  occ. eigenvalues --   -0.85444  -0.73797  -0.66871  -0.54339  -0.49992
 Alpha  occ. eigenvalues --   -0.48912  -0.46621  -0.41577  -0.39857  -0.39160
 Alpha  occ. eigenvalues --   -0.36019  -0.32820
 Alpha virt. eigenvalues --    0.03837   0.04567   0.06732   0.07339   0.08787
 Alpha virt. eigenvalues --    0.09914   0.11993   0.12737   0.13576   0.15041
 Alpha virt. eigenvalues --    0.15407   0.16026   0.18111   0.18863   0.20613

 Mulliken charges:
               1
     1  C   -0.264184
     2  C   -0.095371
     3  H    0.026317
     4  H   -0.008184
     5  H    0.174737
     6  C   -0.068097
     7  H    0.005512
     8  H    0.139007
     9  C   -0.166628
    10  H    0.075593
    11  H    0.016493
    12  H    0.057079
    13  H    0.050344
    14  H    0.057380
 Sum of Mulliken charges =   0.00000

 Dipole moment (field-independent basis, Debye):
    X=             -0.8811    Y=             -0.2670    Z=             -0.6667  Tot=              1.1367
 Quadrupole moment (field-independent basis, Debye-Ang):
   XX=            -31.9319   YY=            -29.8698   ZZ=            -29.3206
   XY=             -1.3119   XZ=             -2.0525   YZ=              1.3668

 Normal termination of Gaussian 09 at Wed Aug 26 11:32:39 2020.
