 Gaussian 09, Revision D.01,
 Gaussian 09:  ES64L-G09RevD.01 24-Apr-2013

 --------------------
 #p B2PLYPD3/Def2QZVP
 --------------------

 ----------
 butane_opt
 ----------
 Symbolic Z-matrix:
 Charge =  0 Multiplicity = 1

                         Standard orientation:
 ---------------------------------------------------------------------
 Center     Atomic      Atomic             Coordinates (Angstroms)
 Number     Number       Type             X           Y           Z
 ---------------------------------------------------------------------
      1          6           0        1.905104   -0.129668    0.119897
      2          6           0        0.528965    0.557079   -0.099864
      3          1           0        2.744522    0.504101   -0.271600
      4          1           0        1.900183   -0.435594   -0.625426
      5          1           0        2.175499   -0.975958    1.163581
      6          6           0       -0.596625   -0.453566   -0.042176
      7          1           0        0.286367    1.446051   -1.180665
      8          1           0        0.521364    0.663021    0.426849
      9          6           0       -1.822896    0.061915    0.097676
     10          1           0       -0.541137   -0.915581    0.784462
     11          1           0       -0.291401   -1.194783   -1.003147
     12          1           0       -2.289539    1.341249    1.306752
     13          1           0       -2.623264   -0.807894   -0.657488
     14          1           0       -1.969883    0.160832   -0.396519
 ---------------------------------------------------------------------

 SCF Done:  E(RB2PLYPD3) =  -156.120548819     A.U. after   13 cycles
 E2(B2PLYPD3) =    -0.2631118645D+00 E(B2PLYPD3) =    -0.15638366068317D+03

 The electronic state is 1-A.
 Alpha  occ. eigenvalues --  -10.65145 -10.61813 -10.59931 -10.59845  -1.00599
 Alpha  occ. eigenvalues --   -0.93670  -0.81009  -0.74232  -0.57750  -0.52220
 Alpha  occ. eigenvalues --   -0.46453  -0.45758  -0.42139  -0.41613  -0.36819
 Alpha  occ. eigenvalues --   -0.36140  -0.31159
 Alpha virt. eigenvalues --   -0.02551   0.02855   0.05053   0.06011   0.09928
 Alpha virt. eigenvalues --    0.10425   0.10819   0.12444   0.13334   0.15155
 Alpha virt. eigenvalues --    0.15867   0.17230   0.17856   0.18192   0.20982

 Mulliken charges:
               1
     1  C   -0.354591
     2  C   -1.044075
     3  H    0.049943
     4  H    0.263217
     5  H    0.072014
     6  C    0.079064
     7  H    0.049333
     8  H    0.880063
     9  C   -0.874851
    10  H    0.068777
    11  H    0.028341
    12  H    0.050989
    13  H   -0.010789
    14  H    0.742565
 Sum of Mulliken charges =   0.00000

 Dipole moment (field-independent basis, Debye):
    X=              0.5622    Y=              0.1649    Z=             -0.5825  Tot=              0.8262
 Quadrupole moment (field-independent basis, Debye-Ang):
   XX=            -31.7088   YY=            -29.6480   ZZ=            -26.6760
   XY=             -1.9628   XZ=              0.4657   YZ=             -0.0893

 Normal termination of Gaussian 09 at Wed Aug 26 10:16:33 2020.
