 Gaussian 09, Revision D.01,
 Gaussian 09:  ES64L-G09RevD.01 24-Apr-2013

 --------------------
 #p B2PLYPD3/Def2QZVP
 --------------------

 ----------
 butane_opt
 ----------
 Symbolic Z-matrix:
 Charge =  0 Multiplicity = 1

                         Standard orientation:
 ---------------------------------------------------------------------
 Center     Atomic      Atomic             Coordinates (Angstroms)
 Number     Number       Type             X           Y           Z
 ---------------------------------------------------------------------
      1          6           0        2.046212    0.050205   -0.134166
      2          6           0        0.559385   -0.450984    0.152044
      3          1           0        2.874509   -0.707026   -0.391121
      4          1           0        2.529809    1.186976    0.973748
      5          1           0        1.654497    0.313097   -0.958904
      6          6           0       -0.568815    0.546094   -0.003453
      7          1           0        0.454092   -1.367032    1.255604
      8          1           0        0.463455   -0.734682   -0.508936
      9          6           0       -1.971845   -0.112112   -0.037455
     10          1           0       -0.721644    1.029913   -0.771940
     11          1           0       -0.391303    1.143997    0.660957
     12          1           0       -2.283801   -1.076306   -0.949804
     13          1           0       -2.785390    0.555114    0.104820
     14          1           0       -2.183846   -0.543266    0.723754
 ---------------------------------------------------------------------

 SCF Done:  E(RB2PLYPD3) =  -157.609038695     A.U. after   11 cycles
 E2(B2PLYPD3) =    -0.2528948023D+00 E(B2PLYPD3) =    -0.15786193349711D+03

 The electronic state is 1-A.
 Alpha  occ. eigenvalues --  -10.64706 -10.61081 -10.60434 -10.57838  -0.96300
 Alpha  occ. eigenvalues --   -0.86634  -0.76402  -0.71230  -0.58144  -0.50911
 Alpha  occ. eigenvalues --   -0.48552  -0.46138  -0.42542  -0.41282  -0.39545
 Alpha  occ. eigenvalues --   -0.36357  -0.33765
 Alpha virt. eigenvalues --    0.02797   0.05505   0.07067   0.08456   0.09089
 Alpha virt. eigenvalues --    0.10629   0.12628   0.12670   0.13774   0.15017
 Alpha virt. eigenvalues --    0.15451   0.16469   0.18213   0.19680   0.20711

 Mulliken charges:
               1
     1  C   -0.207657
     2  C   -0.548613
     3  H    0.070667
     4  H   -0.006222
     5  H    0.120115
     6  C   -0.074342
     7  H    0.014943
     8  H    0.524613
     9  C   -0.165876
    10  H    0.068549
    11  H    0.065033
    12  H    0.017095
    13  H    0.033699
    14  H    0.087995
 Sum of Mulliken charges =   0.00000

 Dipole moment (field-independent basis, Debye):
    X=             -0.5992    Y=             -0.1084    Z=             -0.4771  Tot=              0.7735
 Quadrupole moment (field-independent basis, Debye-Ang):
   XX=            -29.8354   YY=            -29.5703   ZZ=            -28.5905
   XY=             -1.8016   XZ=             -1.6900   YZ=              0.7526

 Normal termination of Gaussian 09 at Wed Aug 26 15:38:17 2020.
