 Gaussian 09, Revision D.01,
 Gaussian 09:  ES64L-G09RevD.01 24-Apr-2013

 --------------------
 #p B2PLYPD3/Def2QZVP
 --------------------

 ----------
 butane_opt
 ----------
 Symbolic Z-matrix:
 Charge =  0 Multiplicity = 1

                         Standard orientation:
 ---------------------------------------------------------------------
 Center     Atomic      Atomic             Coordinates (Angstroms)
 Number     Number       Type             X           Y           Z
 ---------------------------------------------------------------------
      1          6           0       -2.019122   -0.127599   -0.176089
      2          6           0       -0.535010    0.619921    0.268521
      3          1           0       -2.601112    0.397729   -0.774214
      4          1           0       -2.723480   -0.853240    0.893103
      5          1           0       -2.035962   -0.726740   -1.110867
      6          6           0        0.623438   -0.497761    0.108383
      7          1           0       -0.245970    1.580633    1.387005
      8          1           0       -0.340745    1.087466   -0.422491
      9          6           0        2.002417    0.083333   -0.177954
     10          1           0        0.450505   -0.945705   -0.585503
     11          1           0        0.504495   -1.586735    1.243580
     12          1           0        1.958705    0.806200   -1.200566
     13          1           0        2.760003   -0.696826    0.006089
     14          1           0        1.843220    0.469857    0.426701
 ---------------------------------------------------------------------

 SCF Done:  E(RB2PLYPD3) =  -157.549323388     A.U. after   11 cycles
 E2(B2PLYPD3) =    -0.2561433880D+00 E(B2PLYPD3) =    -0.15780546677582D+03

 The electronic state is 1-A.
 Alpha  occ. eigenvalues --  -10.65128 -10.64668 -10.62752 -10.58249  -0.94397
 Alpha  occ. eigenvalues --   -0.85104  -0.76754  -0.70855  -0.54428  -0.50755
 Alpha  occ. eigenvalues --   -0.47478  -0.43374  -0.42954  -0.40015  -0.37843
 Alpha  occ. eigenvalues --   -0.36194  -0.34290
 Alpha virt. eigenvalues --    0.03213   0.04569   0.05291   0.07026   0.09590
 Alpha virt. eigenvalues --    0.10982   0.11568   0.13065   0.14467   0.14807
 Alpha virt. eigenvalues --    0.15275   0.15783   0.18192   0.19060   0.19673

 Mulliken charges:
               1
     1  C   -0.164690
     2  C   -0.273570
     3  H    0.074904
     4  H    0.042158
     5  H    0.044476
     6  C   -0.176611
     7  H    0.025806
     8  H    0.242504
     9  C   -0.575338
    10  H    0.209373
    11  H   -0.032117
    12  H    0.047830
    13  H    0.090077
    14  H    0.445198
 Sum of Mulliken charges =   0.00000

 Dipole moment (field-independent basis, Debye):
    X=             -0.0373    Y=              0.4030    Z=             -1.2598  Tot=              1.3232
 Quadrupole moment (field-independent basis, Debye-Ang):
   XX=            -30.0558   YY=            -30.1425   ZZ=            -28.2736
   XY=              0.1419   XZ=              1.5773   YZ=             -0.1482

 Normal termination of Gaussian 09 at Wed Aug 26 13:44:49 2020.
