 Gaussian 09, Revision D.01,
 Gaussian 09:  ES64L-G09RevD.01 24-Apr-2013

 --------------------
 #p B2PLYPD3/Def2QZVP
 --------------------

 ----------
 butane_opt
 ----------
 Symbolic Z-matrix:
 Charge =  0 Multiplicity = 1

                         Standard orientation:
 ---------------------------------------------------------------------
 Center     Atomic      Atomic             Coordinates (Angstroms)
 Number     Number       Type             X           Y           Z
 ---------------------------------------------------------------------
      1          6           0        1.983448   -0.146208   -0.090054
      2          6           0        0.553060    0.597058    0.120872
      3          1           0        2.663733    0.326250   -0.484494
      4          1           0        1.910887   -0.713156   -0.898370
      5          1           0        2.500551   -0.845163    0.833110
      6          6           0       -0.604553   -0.452980    0.140283
      7          1           0        0.386095    1.149009   -0.691962
      8          1           0        0.628802    1.407075    0.987256
      9          6           0       -1.955529    0.069080   -0.086104
     10          1           0       -0.671779   -1.072805    1.088054
     11          1           0       -0.332069   -1.304213   -0.797937
     12          1           0       -2.134504    0.590953    0.649882
     13          1           0       -2.711528   -0.716593   -0.136435
     14          1           0       -2.098753    0.776940   -1.059084
 ---------------------------------------------------------------------

 SCF Done:  E(RB2PLYPD3) =  -157.993679949     A.U. after   11 cycles
 E2(B2PLYPD3) =    -0.2478013714D+00 E(B2PLYPD3) =    -0.15824148131996D+03

 The electronic state is 1-A.
 Alpha  occ. eigenvalues --  -10.63051 -10.62082 -10.58851 -10.58812  -0.90994
 Alpha  occ. eigenvalues --   -0.84774  -0.75249  -0.66126  -0.52948  -0.50427
 Alpha  occ. eigenvalues --   -0.49514  -0.46539  -0.41854  -0.40895  -0.39362
 Alpha  occ. eigenvalues --   -0.38240  -0.36197
 Alpha virt. eigenvalues --    0.05672   0.06701   0.07682   0.08607   0.10498
 Alpha virt. eigenvalues --    0.12132   0.12689   0.13271   0.14821   0.15309
 Alpha virt. eigenvalues --    0.16142   0.16961   0.19030   0.19706   0.21722

 Mulliken charges:
               1
     1  C   -0.159682
     2  C   -0.058361
     3  H    0.059805
     4  H    0.044901
     5  H    0.028283
     6  C   -0.029553
     7  H    0.065813
     8  H    0.019123
     9  C   -0.158467
    10  H    0.038133
    11  H   -0.001712
    12  H    0.089200
    13  H    0.048234
    14  H    0.014285
 Sum of Mulliken charges =   0.00000

 Dipole moment (field-independent basis, Debye):
    X=             -0.1276    Y=              0.2448    Z=             -0.1376  Tot=              0.3084
 Quadrupole moment (field-independent basis, Debye-Ang):
   XX=            -28.8055   YY=            -29.1707   ZZ=            -28.2196
   XY=              0.3269   XZ=             -1.3100   YZ=             -0.3003

 Normal termination of Gaussian 09 at Wed Aug 26 23:24:01 2020.
