 Gaussian 09, Revision D.01,
 Gaussian 09:  ES64L-G09RevD.01 24-Apr-2013

 --------------------
 #p B2PLYPD3/Def2QZVP
 --------------------

 ----------
 butane_opt
 ----------
 Symbolic Z-matrix:
 Charge =  0 Multiplicity = 1

                         Standard orientation:
 ---------------------------------------------------------------------
 Center     Atomic      Atomic             Coordinates (Angstroms)
 Number     Number       Type             X           Y           Z
 ---------------------------------------------------------------------
      1          6           0        2.068048   -0.124881    0.076731
      2          6           0        0.469847    0.624254   -0.200664
      3          1           0        2.701362    0.361115   -0.181590
      4          1           0        2.009564   -0.312471   -0.392605
      5          1           0        2.300642   -1.277276    1.283889
      6          6           0       -0.623463   -0.541377   -0.168063
      7          1           0        0.582122    1.086632   -0.978592
      8          1           0        0.457013    1.286584    0.715631
      9          6           0       -1.914556    0.067157    0.180660
     10          1           0       -0.224232   -0.973265    0.525582
     11          1           0       -0.928479   -1.285557   -0.910699
     12          1           0       -2.027596    1.163553    1.288695
     13          1           0       -2.729464   -0.721747   -0.090845
     14          1           0       -2.140197    0.521516   -0.591453
 ---------------------------------------------------------------------

 SCF Done:  E(RB2PLYPD3) =  -156.863640008     A.U. after   12 cycles
 E2(B2PLYPD3) =    -0.2554079509D+00 E(B2PLYPD3) =    -0.15711904795922D+03

 The electronic state is 1-A.
 Alpha  occ. eigenvalues --  -10.62205 -10.62130 -10.61830 -10.59594  -0.95276
 Alpha  occ. eigenvalues --   -0.90790  -0.78062  -0.70934  -0.55065  -0.53189
 Alpha  occ. eigenvalues --   -0.48748  -0.46365  -0.45553  -0.39199  -0.37986
 Alpha  occ. eigenvalues --   -0.35980  -0.33862
 Alpha virt. eigenvalues --    0.02490   0.03892   0.06636   0.07345   0.09699
 Alpha virt. eigenvalues --    0.10667   0.11923   0.12808   0.13409   0.15438
 Alpha virt. eigenvalues --    0.15716   0.16712   0.17959   0.18890   0.20014

 Mulliken charges:
               1
     1  C   -0.958939
     2  C   -0.079894
     3  H    0.077915
     4  H    0.772721
     5  H    0.024412
     6  C   -0.081587
     7  H    0.090753
     8  H    0.063255
     9  C   -0.179073
    10  H    0.104203
    11  H    0.034772
    12  H    0.016225
    13  H    0.013744
    14  H    0.101494
 Sum of Mulliken charges =   0.00000

 Dipole moment (field-independent basis, Debye):
    X=             -0.0302    Y=              0.0437    Z=             -1.2433  Tot=              1.2444
 Quadrupole moment (field-independent basis, Debye-Ang):
   XX=            -30.4222   YY=            -28.1349   ZZ=            -28.1212
   XY=              1.1430   XZ=              0.6059   YZ=              0.0137

 Normal termination of Gaussian 09 at Wed Aug 26 15:06:03 2020.
