 Gaussian 09, Revision D.01,
 Gaussian 09:  ES64L-G09RevD.01 24-Apr-2013

 --------------------
 #p B2PLYPD3/Def2QZVP
 --------------------

 ----------
 butane_opt
 ----------
 Symbolic Z-matrix:
 Charge =  0 Multiplicity = 1

                         Standard orientation:
 ---------------------------------------------------------------------
 Center     Atomic      Atomic             Coordinates (Angstroms)
 Number     Number       Type             X           Y           Z
 ---------------------------------------------------------------------
      1          6           0        1.831639   -0.092662   -0.180875
      2          6           0        0.608774    0.477371    0.187558
      3          1           0        2.623005    0.740805   -0.370953
      4          1           0        1.691025   -0.712291   -0.912512
      5          1           0        2.374658   -0.639301    0.700370
      6          6           0       -0.462186   -0.587195    0.183005
      7          1           0        0.411806    1.121623   -0.644769
      8          1           0        0.323929    1.505744    1.346379
      9          6           0       -1.945053    0.157542   -0.122391
     10          1           0       -0.335696   -1.196021    0.820223
     11          1           0       -0.200768   -1.350768   -0.770367
     12          1           0       -2.110380    0.325376    0.467167
     13          1           0       -2.802179   -0.574220    0.142025
     14          1           0       -2.174439    1.048716   -1.181344
 ---------------------------------------------------------------------

 SCF Done:  E(RB2PLYPD3) =  -157.515936244     A.U. after   12 cycles
 E2(B2PLYPD3) =    -0.2536064389D+00 E(B2PLYPD3) =    -0.15776954268312D+03

 The electronic state is 1-A.
 Alpha  occ. eigenvalues --  -10.63479 -10.61707 -10.60967 -10.59953  -0.94153
 Alpha  occ. eigenvalues --   -0.88679  -0.77811  -0.67189  -0.54585  -0.50944
 Alpha  occ. eigenvalues --   -0.49253  -0.47352  -0.42485  -0.40143  -0.38100
 Alpha  occ. eigenvalues --   -0.36714  -0.33503
 Alpha virt. eigenvalues --    0.03998   0.04927   0.06226   0.07838   0.10312
 Alpha virt. eigenvalues --    0.10634   0.12086   0.13292   0.14764   0.15352
 Alpha virt. eigenvalues --    0.15511   0.16896   0.18048   0.18993   0.20914

 Mulliken charges:
               1
     1  C   -0.135210
     2  C   -0.031066
     3  H    0.035097
     4  H    0.085531
     5  H    0.023396
     6  C   -0.080350
     7  H    0.061049
     8  H   -0.029184
     9  C   -0.737454
    10  H    0.118160
    11  H   -0.012937
    12  H    0.579789
    13  H    0.044441
    14  H    0.078739
 Sum of Mulliken charges =   0.00000

 Dipole moment (field-independent basis, Debye):
    X=             -0.0947    Y=             -0.2323    Z=             -0.1385  Tot=              0.2866
 Quadrupole moment (field-independent basis, Debye-Ang):
   XX=            -29.3774   YY=            -29.2817   ZZ=            -28.8499
   XY=             -0.8396   XZ=             -1.3095   YZ=             -1.5204

 Normal termination of Gaussian 09 at Wed Aug 26 20:52:23 2020.
