 Gaussian 09, Revision D.01,
 Gaussian 09:  ES64L-G09RevD.01 24-Apr-2013

 --------------------
 #p B2PLYPD3/Def2QZVP
 --------------------

 ----------
 butane_opt
 ----------
 Symbolic Z-matrix:
 Charge =  0 Multiplicity = 1

                         Standard orientation:
 ---------------------------------------------------------------------
 Center     Atomic      Atomic             Coordinates (Angstroms)
 Number     Number       Type             X           Y           Z
 ---------------------------------------------------------------------
      1          6           0       -2.038597   -0.238185   -0.078739
      2          6           0       -0.560366    0.608166    0.075756
      3          1           0       -2.997895    0.651307   -0.194364
      4          1           0       -2.165437   -0.725186    0.757871
      5          1           0       -2.341795   -0.843748   -0.770780
      6          6           0        0.685363   -0.453519    0.172451
      7          1           0       -0.319820    1.391825    0.787368
      8          1           0       -0.397956    1.093454   -0.819893
      9          6           0        1.938087    0.031798   -0.144079
     10          1           0        0.432347   -0.804495   -0.420435
     11          1           0        0.710571   -1.160859    1.205095
     12          1           0        1.752885    0.417976   -0.999546
     13          1           0        2.787814   -0.862187   -0.528335
     14          1           0        2.392363    1.152348    0.830687
 ---------------------------------------------------------------------

 SCF Done:  E(RB2PLYPD3) =  -157.736716476     A.U. after   11 cycles
 E2(B2PLYPD3) =    -0.2517106914D+00 E(B2PLYPD3) =    -0.15798842716773D+03

 The electronic state is 1-A.
 Alpha  occ. eigenvalues --  -10.63647 -10.62790 -10.61562 -10.58307  -0.95337
 Alpha  occ. eigenvalues --   -0.83635  -0.75093  -0.69814  -0.56382  -0.51169
 Alpha  occ. eigenvalues --   -0.48097  -0.45158  -0.44188  -0.42343  -0.37985
 Alpha  occ. eigenvalues --   -0.37282  -0.33512
 Alpha virt. eigenvalues --    0.03499   0.05851   0.08061   0.08531   0.09653
 Alpha virt. eigenvalues --    0.10822   0.11992   0.12490   0.14370   0.14724
 Alpha virt. eigenvalues --    0.15426   0.16189   0.18195   0.19454   0.19900

 Mulliken charges:
               1
     1  C   -0.169790
     2  C   -0.071389
     3  H    0.010585
     4  H    0.077015
     5  H    0.059848
     6  C   -0.498820
     7  H    0.063396
     8  H    0.052356
     9  C   -0.146773
    10  H    0.463928
    11  H    0.034321
    12  H    0.087950
    13  H    0.041896
    14  H   -0.004522
 Sum of Mulliken charges =   0.00000

 Dipole moment (field-independent basis, Debye):
    X=             -0.4721    Y=             -0.4246    Z=             -0.7842  Tot=              1.0091
 Quadrupole moment (field-independent basis, Debye-Ang):
   XX=            -31.5277   YY=            -28.8666   ZZ=            -28.5091
   XY=              0.1149   XZ=             -0.4451   YZ=              0.4723

 Normal termination of Gaussian 09 at Wed Aug 26 22:46:12 2020.
