 Gaussian 09, Revision D.01,
 Gaussian 09:  ES64L-G09RevD.01 24-Apr-2013

 --------------------
 #p B2PLYPD3/Def2QZVP
 --------------------

 ----------
 butane_opt
 ----------
 Symbolic Z-matrix:
 Charge =  0 Multiplicity = 1

                         Standard orientation:
 ---------------------------------------------------------------------
 Center     Atomic      Atomic             Coordinates (Angstroms)
 Number     Number       Type             X           Y           Z
 ---------------------------------------------------------------------
      1          6           0       -1.950304   -0.136816    0.055013
      2          6           0       -0.604705    0.519236    0.000754
      3          1           0       -2.746239    0.631353   -0.415286
      4          1           0       -2.475566   -0.994877    1.004285
      5          1           0       -1.932496   -0.568087   -0.730927
      6          6           0        0.586827   -0.509646   -0.050007
      7          1           0       -0.368456    1.191935    0.816565
      8          1           0       -0.569380    1.198431   -0.857365
      9          6           0        1.982528    0.092757    0.054562
     10          1           0        0.419927   -1.107344   -0.927796
     11          1           0        0.555274   -0.987822    0.696309
     12          1           0        2.140254    0.702017   -0.744353
     13          1           0        2.816743   -0.690778   -0.183897
     14          1           0        2.073868    0.831988    0.980528
 ---------------------------------------------------------------------

 SCF Done:  E(RB2PLYPD3) =  -157.970229533     A.U. after   11 cycles
 E2(B2PLYPD3) =    -0.2483722759D+00 E(B2PLYPD3) =    -0.15821860180883D+03

 The electronic state is 1-A.
 Alpha  occ. eigenvalues --  -10.61318 -10.60872 -10.60699 -10.57994  -0.92098
 Alpha  occ. eigenvalues --   -0.84786  -0.73291  -0.68511  -0.55047  -0.48655
 Alpha  occ. eigenvalues --   -0.48534  -0.46494  -0.42310  -0.40806  -0.40087
 Alpha  occ. eigenvalues --   -0.38351  -0.35767
 Alpha virt. eigenvalues --    0.05402   0.06033   0.08072   0.08534   0.10759
 Alpha virt. eigenvalues --    0.11682   0.12682   0.12872   0.14513   0.15260
 Alpha virt. eigenvalues --    0.16023   0.16540   0.19238   0.19520   0.20863

 Mulliken charges:
               1
     1  C   -0.245098
     2  C   -0.004296
     3  H    0.024070
     4  H    0.043681
     5  H    0.128166
     6  C   -0.114373
     7  H    0.019154
     8  H    0.030562
     9  C   -0.150867
    10  H    0.023194
    11  H    0.123091
    12  H    0.044055
    13  H    0.040316
    14  H    0.038345
 Sum of Mulliken charges =   0.00000

 Dipole moment (field-independent basis, Debye):
    X=              0.1079    Y=             -0.0621    Z=             -0.5187  Tot=              0.5334
 Quadrupole moment (field-independent basis, Debye-Ang):
   XX=            -30.4143   YY=            -28.7692   ZZ=            -28.1151
   XY=              0.3423   XZ=              0.3850   YZ=             -0.2473

 Normal termination of Gaussian 09 at Wed Aug 26 11:05:17 2020.
