 Gaussian 09, Revision D.01,
 Gaussian 09:  ES64L-G09RevD.01 24-Apr-2013

 --------------------
 #p B2PLYPD3/Def2QZVP
 --------------------

 ----------
 butane_opt
 ----------
 Symbolic Z-matrix:
 Charge =  0 Multiplicity = 1

                         Standard orientation:
 ---------------------------------------------------------------------
 Center     Atomic      Atomic             Coordinates (Angstroms)
 Number     Number       Type             X           Y           Z
 ---------------------------------------------------------------------
      1          6           0        2.054058   -0.162898   -0.150333
      2          6           0        0.510426    0.615333    0.180729
      3          1           0        2.683918    0.396236   -0.860535
      4          1           0        1.624821   -0.587754   -0.799318
      5          1           0        2.959197   -0.975683    0.893579
      6          6           0       -0.637219   -0.452176    0.202213
      7          1           0        0.360234    1.100649   -0.680383
      8          1           0        0.572110    1.596289    1.140894
      9          6           0       -1.910043    0.068296   -0.135793
     10          1           0       -0.577904   -1.160501    1.021661
     11          1           0       -0.591899   -1.307010   -0.680368
     12          1           0       -2.289896    0.589353    0.492514
     13          1           0       -2.745262   -0.648410   -0.094144
     14          1           0       -2.098652    0.585496   -1.014791
 ---------------------------------------------------------------------

 SCF Done:  E(RB2PLYPD3) =  -157.852207654     A.U. after   11 cycles
 E2(B2PLYPD3) =    -0.2532288226D+00 E(B2PLYPD3) =    -0.15810543647631D+03

 The electronic state is 1-A.
 Alpha  occ. eigenvalues --  -10.65162 -10.63118 -10.62386 -10.56788  -0.92378
 Alpha  occ. eigenvalues --   -0.84540  -0.75147  -0.68014  -0.53859  -0.49808
 Alpha  occ. eigenvalues --   -0.49151  -0.46681  -0.43082  -0.39490  -0.38211
 Alpha  occ. eigenvalues --   -0.36098  -0.34735
 Alpha virt. eigenvalues --    0.03286   0.05530   0.06503   0.08502   0.08950
 Alpha virt. eigenvalues --    0.10954   0.12359   0.13092   0.14611   0.15623
 Alpha virt. eigenvalues --    0.16108   0.16594   0.17670   0.19463   0.20055

 Mulliken charges:
               1
     1  C   -0.290825
     2  C   -0.118520
     3  H    0.047293
     4  H    0.177877
     5  H    0.037557
     6  C   -0.001015
     7  H    0.097537
     8  H    0.021084
     9  C   -0.112476
    10  H    0.045806
    11  H   -0.009061
    12  H    0.060411
    13  H    0.016095
    14  H    0.028236
 Sum of Mulliken charges =   0.00000

 Dipole moment (field-independent basis, Debye):
    X=             -0.8044    Y=              0.0998    Z=             -0.5575  Tot=              0.9838
 Quadrupole moment (field-independent basis, Debye-Ang):
   XX=            -29.5426   YY=            -29.4992   ZZ=            -28.4658
   XY=             -0.0183   XZ=             -0.7529   YZ=             -0.8423

 Normal termination of Gaussian 09 at Wed Aug 26 22:07:10 2020.
