 Gaussian 09, Revision D.01,
 Gaussian 09:  ES64L-G09RevD.01 24-Apr-2013

 --------------------
 #p B2PLYPD3/Def2QZVP
 --------------------

 ----------
 butane_opt
 ----------
 Symbolic Z-matrix:
 Charge =  0 Multiplicity = 1

                         Standard orientation:
 ---------------------------------------------------------------------
 Center     Atomic      Atomic             Coordinates (Angstroms)
 Number     Number       Type             X           Y           Z
 ---------------------------------------------------------------------
      1          6           0       -1.945897   -0.153170    0.180733
      2          6           0       -0.467181    0.632412   -0.123586
      3          1           0       -2.599350    0.297426    0.462984
      4          1           0       -1.737546   -0.772761    0.925443
      5          1           0       -2.589210   -0.706551   -0.699740
      6          6           0        0.587688   -0.488692   -0.221487
      7          1           0       -0.275293    0.765300    0.424441
      8          1           0       -0.500599    1.708009   -1.220634
      9          6           0        1.927431    0.055167    0.135696
     10          1           0        0.178925   -1.000280   -1.157924
     11          1           0        0.421563   -1.083398    0.564570
     12          1           0        1.914702    0.358806   -0.484900
     13          1           0        2.722420   -0.700672   -0.156263
     14          1           0        1.852140    0.859817    1.513885
 ---------------------------------------------------------------------

 SCF Done:  E(RB2PLYPD3) =  -157.092624563     A.U. after   12 cycles
 E2(B2PLYPD3) =    -0.2543481268D+00 E(B2PLYPD3) =    -0.15734697268963D+03

 The electronic state is 1-A.
 Alpha  occ. eigenvalues --  -10.62316 -10.60622 -10.60256 -10.58545  -0.97388
 Alpha  occ. eigenvalues --   -0.88384  -0.80401  -0.70796  -0.56123  -0.51358
 Alpha  occ. eigenvalues --   -0.49326  -0.45360  -0.41759  -0.41225  -0.39956
 Alpha  occ. eigenvalues --   -0.35855  -0.35090
 Alpha virt. eigenvalues --    0.02480   0.04907   0.06434   0.07617   0.10175
 Alpha virt. eigenvalues --    0.11530   0.12305   0.13354   0.14476   0.15398
 Alpha virt. eigenvalues --    0.15693   0.16114   0.17362   0.19825   0.21636

 Mulliken charges:
               1
     1  C   -0.202618
     2  C   -0.892128
     3  H    0.143630
     4  H    0.052508
     5  H    0.018550
     6  C   -0.030831
     7  H    0.780289
     8  H    0.021346
     9  C   -0.690249
    10  H    0.060291
    11  H    0.073048
    12  H    0.545173
    13  H    0.076513
    14  H    0.044478
 Sum of Mulliken charges =   0.00000

 Dipole moment (field-independent basis, Debye):
    X=             -0.2143    Y=             -0.2712    Z=              0.2319  Tot=              0.4162
 Quadrupole moment (field-independent basis, Debye-Ang):
   XX=            -28.8099   YY=            -29.8492   ZZ=            -27.3572
   XY=             -0.3019   XZ=             -0.9429   YZ=              0.2397

 Normal termination of Gaussian 09 at Wed Aug 26 22:43:42 2020.
