 Gaussian 09, Revision D.01,
 Gaussian 09:  ES64L-G09RevD.01 24-Apr-2013

 --------------------
 #p B2PLYPD3/Def2QZVP
 --------------------

 ----------
 butane_opt
 ----------
 Symbolic Z-matrix:
 Charge =  0 Multiplicity = 1

                         Standard orientation:
 ---------------------------------------------------------------------
 Center     Atomic      Atomic             Coordinates (Angstroms)
 Number     Number       Type             X           Y           Z
 ---------------------------------------------------------------------
      1          6           0       -1.932445    0.098446   -0.090192
      2          6           0       -0.682476   -0.462770    0.199028
      3          1           0       -2.804556   -0.664185   -0.570995
      4          1           0       -1.835746    0.303325   -0.748465
      5          1           0       -2.196793    1.042917    0.847123
      6          6           0        0.528593    0.578433   -0.002341
      7          1           0       -0.437629   -1.207371   -0.495214
      8          1           0       -0.631202   -1.070763    1.176003
      9          6           0        2.018806   -0.181430   -0.053188
     10          1           0        0.688938    1.035735    0.684217
     11          1           0        0.087290    1.193255   -0.962975
     12          1           0        2.318231   -0.435439    0.747218
     13          1           0        2.964009    0.658856   -0.059300
     14          1           0        2.252593   -1.052407   -0.937454
 ---------------------------------------------------------------------

 SCF Done:  E(RB2PLYPD3) =  -157.651374938     A.U. after   11 cycles
 E2(B2PLYPD3) =    -0.2506320967D+00 E(B2PLYPD3) =    -0.15790200703496D+03

 The electronic state is 1-A.
 Alpha  occ. eigenvalues --  -10.62390 -10.61525 -10.60372 -10.59490  -0.94644
 Alpha  occ. eigenvalues --   -0.85916  -0.75751  -0.70005  -0.55787  -0.51714
 Alpha  occ. eigenvalues --   -0.48043  -0.45418  -0.42586  -0.40291  -0.39783
 Alpha  occ. eigenvalues --   -0.37388  -0.34936
 Alpha virt. eigenvalues --    0.04826   0.05801   0.08061   0.08307   0.10426
 Alpha virt. eigenvalues --    0.10890   0.11947   0.12924   0.14089   0.15108
 Alpha virt. eigenvalues --    0.15858   0.16982   0.18707   0.18901   0.20275

 Mulliken charges:
               1
     1  C   -0.636496
     2  C    0.013210
     3  H    0.043568
     4  H    0.478289
     5  H    0.050699
     6  C   -0.191912
     7  H    0.040723
     8  H    0.016517
     9  C   -0.209060
    10  H    0.182644
    11  H    0.040267
    12  H    0.121616
    13  H    0.007423
    14  H    0.042512
 Sum of Mulliken charges =   0.00000

 Dipole moment (field-independent basis, Debye):
    X=              0.1922    Y=             -0.0132    Z=              0.0251  Tot=              0.1943
 Quadrupole moment (field-independent basis, Debye-Ang):
   XX=            -30.6823   YY=            -29.2707   ZZ=            -27.9269
   XY=             -0.2710   XZ=              2.3148   YZ=              1.0972

 Normal termination of Gaussian 09 at Wed Aug 26 15:25:11 2020.
