 Gaussian 09, Revision D.01,
 Gaussian 09:  ES64L-G09RevD.01 24-Apr-2013

 --------------------
 #p B2PLYPD3/Def2QZVP
 --------------------

 ----------
 butane_opt
 ----------
 Symbolic Z-matrix:
 Charge =  0 Multiplicity = 1

                         Standard orientation:
 ---------------------------------------------------------------------
 Center     Atomic      Atomic             Coordinates (Angstroms)
 Number     Number       Type             X           Y           Z
 ---------------------------------------------------------------------
      1          6           0        1.941168    0.037391   -0.164583
      2          6           0        0.646674   -0.427154    0.256776
      3          1           0        2.893836   -1.048635   -0.562607
      4          1           0        2.470926    1.128304    0.768508
      5          1           0        1.819151    0.282203   -0.907366
      6          6           0       -0.510233    0.584655    0.136871
      7          1           0        0.538543   -1.146448    1.275205
      8          1           0        0.273831   -0.920419   -0.447148
      9          6           0       -2.052561   -0.143898   -0.155197
     10          1           0       -0.158825    1.412080   -0.982860
     11          1           0       -0.629853    1.276409    0.843023
     12          1           0       -2.119169   -1.033666   -0.995510
     13          1           0       -2.611189    0.482579   -0.302493
     14          1           0       -2.627541   -0.738374    0.868049
 ---------------------------------------------------------------------

 SCF Done:  E(RB2PLYPD3) =  -157.705280023     A.U. after   11 cycles
 E2(B2PLYPD3) =    -0.2547135712D+00 E(B2PLYPD3) =    -0.15795999359376D+03

 The electronic state is 1-A.
 Alpha  occ. eigenvalues --  -10.65801 -10.64208 -10.63146 -10.61227  -0.93902
 Alpha  occ. eigenvalues --   -0.83895  -0.76127  -0.68145  -0.55816  -0.49296
 Alpha  occ. eigenvalues --   -0.47914  -0.44867  -0.43236  -0.40526  -0.37794
 Alpha  occ. eigenvalues --   -0.35825  -0.34922
 Alpha virt. eigenvalues --    0.02831   0.05357   0.05756   0.07228   0.09293
 Alpha virt. eigenvalues --    0.09788   0.11649   0.12505   0.13514   0.14395
 Alpha virt. eigenvalues --    0.15527   0.16357   0.18220   0.19035   0.19737

 Mulliken charges:
               1
     1  C   -0.380231
     2  C   -0.063223
     3  H    0.010824
     4  H    0.019903
     5  H    0.296007
     6  C   -0.061724
     7  H    0.031505
     8  H    0.112842
     9  C   -0.252008
    10  H   -0.025196
    11  H    0.078050
    12  H    0.040229
    13  H    0.174374
    14  H    0.018649
 Sum of Mulliken charges =   0.00000

 Dipole moment (field-independent basis, Debye):
    X=             -0.9186    Y=              0.0387    Z=             -0.2710  Tot=              0.9585
 Quadrupole moment (field-independent basis, Debye-Ang):
   XX=            -31.6706   YY=            -29.6031   ZZ=            -29.1703
   XY=             -0.1249   XZ=             -0.6859   YZ=              0.9469

 Normal termination of Gaussian 09 at Wed Aug 26 10:11:35 2020.
