 Gaussian 09, Revision D.01,
 Gaussian 09:  ES64L-G09RevD.01 24-Apr-2013

 --------------------
 #p B2PLYPD3/Def2QZVP
 --------------------

 ----------
 butane_opt
 ----------
 Symbolic Z-matrix:
 Charge =  0 Multiplicity = 1

                         Standard orientation:
 ---------------------------------------------------------------------
 Center     Atomic      Atomic             Coordinates (Angstroms)
 Number     Number       Type             X           Y           Z
 ---------------------------------------------------------------------
      1          6           0       -1.875208    0.069659   -0.022894
      2          6           0       -0.596866   -0.446435    0.048588
      3          1           0       -2.673923   -0.782396   -0.480868
      4          1           0       -1.845287    0.881895   -1.024727
      5          1           0       -2.503336    0.663045    0.887551
      6          6           0        0.547666    0.568524    0.098730
      7          1           0       -0.674986   -1.248311   -0.764657
      8          1           0       -0.867500   -1.077115    0.929202
      9          6           0        2.021823   -0.183111   -0.037123
     10          1           0        0.400488    1.327462    1.079586
     11          1           0        0.477727    1.284292   -0.826846
     12          1           0        2.344730   -0.926814    1.035152
     13          1           0        2.741322    0.461721   -0.480816
     14          1           0        2.016275   -0.635597   -0.877379
 ---------------------------------------------------------------------

 SCF Done:  E(RB2PLYPD3) =  -157.953751492     A.U. after   11 cycles
 E2(B2PLYPD3) =    -0.2534442889D+00 E(B2PLYPD3) =    -0.15820719578057D+03

 The electronic state is 1-A.
 Alpha  occ. eigenvalues --  -10.65137 -10.64232 -10.61789 -10.61221  -0.92519
 Alpha  occ. eigenvalues --   -0.83798  -0.72293  -0.63721  -0.52850  -0.49772
 Alpha  occ. eigenvalues --   -0.48892  -0.46204  -0.41036  -0.40530  -0.38154
 Alpha  occ. eigenvalues --   -0.35917  -0.33958
 Alpha virt. eigenvalues --    0.05088   0.05823   0.07209   0.07764   0.09991
 Alpha virt. eigenvalues --    0.10946   0.11472   0.12615   0.13492   0.15093
 Alpha virt. eigenvalues --    0.16071   0.16895   0.18034   0.19007   0.20623

 Mulliken charges:
               1
     1  C   -0.173271
     2  C    0.019225
     3  H    0.032285
     4  H   -0.005537
     5  H    0.047968
     6  C   -0.060056
     7  H    0.038750
     8  H    0.032991
     9  C   -0.178508
    10  H    0.040549
    11  H    0.031356
    12  H    0.052617
    13  H    0.041539
    14  H    0.080091
 Sum of Mulliken charges =   0.00000

 Dipole moment (field-independent basis, Debye):
    X=              0.2248    Y=             -0.2952    Z=             -0.2497  Tot=              0.4473
 Quadrupole moment (field-independent basis, Debye-Ang):
   XX=            -30.9129   YY=            -29.8781   ZZ=            -28.6105
   XY=              1.0147   XZ=             -1.7816   YZ=              0.1646

 Normal termination of Gaussian 09 at Wed Aug 26 15:29:26 2020.
