 Gaussian 09, Revision D.01,
 Gaussian 09:  ES64L-G09RevD.01 24-Apr-2013

 --------------------
 #p B2PLYPD3/Def2QZVP
 --------------------

 ----------
 butane_opt
 ----------
 Symbolic Z-matrix:
 Charge =  0 Multiplicity = 1

                         Standard orientation:
 ---------------------------------------------------------------------
 Center     Atomic      Atomic             Coordinates (Angstroms)
 Number     Number       Type             X           Y           Z
 ---------------------------------------------------------------------
      1          6           0       -1.941725    0.025524   -0.056748
      2          6           0       -0.637021   -0.454803    0.032686
      3          1           0       -2.654749   -0.615252   -0.110305
      4          1           0       -1.835113    0.934820   -1.035342
      5          1           0       -2.162497    0.673507    0.897457
      6          6           0        0.510207    0.632216    0.201459
      7          1           0       -0.590607   -1.227703   -0.983679
      8          1           0       -0.744484   -1.187963    0.735128
      9          6           0        2.048205   -0.191276   -0.108517
     10          1           0        0.327944    1.112349    1.039654
     11          1           0        0.678188    1.299070   -0.641106
     12          1           0        2.768887   -1.152298    1.011130
     13          1           0        2.693102    0.660543   -0.602948
     14          1           0        1.641333   -0.567042   -0.723265
 ---------------------------------------------------------------------

 SCF Done:  E(RB2PLYPD3) =  -157.826665491     A.U. after   11 cycles
 E2(B2PLYPD3) =    -0.2537174502D+00 E(B2PLYPD3) =    -0.15808038294101D+03

 The electronic state is 1-A.
 Alpha  occ. eigenvalues --  -10.63911 -10.62771 -10.61746 -10.61277  -0.92627
 Alpha  occ. eigenvalues --   -0.84937  -0.74318  -0.67124  -0.54251  -0.52612
 Alpha  occ. eigenvalues --   -0.50117  -0.46664  -0.43664  -0.38569  -0.38185
 Alpha  occ. eigenvalues --   -0.34824  -0.34273
 Alpha virt. eigenvalues --    0.02820   0.05246   0.07377   0.07731   0.09526
 Alpha virt. eigenvalues --    0.10628   0.11850   0.12060   0.13988   0.14690
 Alpha virt. eigenvalues --    0.15855   0.16470   0.17978   0.19156   0.19957

 Mulliken charges:
               1
     1  C   -0.145497
     2  C   -0.007649
     3  H    0.077554
     4  H    0.006811
     5  H    0.018935
     6  C   -0.080510
     7  H   -0.022465
     8  H    0.048180
     9  C   -0.360673
    10  H    0.078009
    11  H    0.051131
    12  H    0.023489
    13  H    0.054554
    14  H    0.258132
 Sum of Mulliken charges =   0.00000

 Dipole moment (field-independent basis, Debye):
    X=             -0.4959    Y=              0.0604    Z=              0.0385  Tot=              0.5011
 Quadrupole moment (field-independent basis, Debye-Ang):
   XX=            -31.5229   YY=            -29.0707   ZZ=            -29.0692
   XY=              2.4322   XZ=             -1.6099   YZ=             -0.5574

 Normal termination of Gaussian 09 at Wed Aug 26 22:37:43 2020.
