 Gaussian 09, Revision D.01,
 Gaussian 09:  ES64L-G09RevD.01 24-Apr-2013

 --------------------
 #p B2PLYPD3/Def2QZVP
 --------------------

 ----------
 butane_opt
 ----------
 Symbolic Z-matrix:
 Charge =  0 Multiplicity = 1

                         Standard orientation:
 ---------------------------------------------------------------------
 Center     Atomic      Atomic             Coordinates (Angstroms)
 Number     Number       Type             X           Y           Z
 ---------------------------------------------------------------------
      1          6           0       -1.967132   -0.128180    0.038275
      2          6           0       -0.572387    0.576615   -0.122336
      3          1           0       -2.674332    0.498020    0.125674
      4          1           0       -2.109567   -0.717013    0.944414
      5          1           0       -2.273549   -0.747386   -0.792350
      6          6           0        0.561696   -0.496942    0.021993
      7          1           0       -0.379496    1.265635    0.696229
      8          1           0       -0.336222    1.160634   -1.021661
      9          6           0        1.971633    0.098260    0.039375
     10          1           0        0.566723   -1.250008   -0.809991
     11          1           0        0.355956   -1.210607    0.966331
     12          1           0        1.938635    0.415078   -0.699752
     13          1           0        2.734509   -0.636146   -0.383707
     14          1           0        2.214487    0.923271    1.110974
 ---------------------------------------------------------------------

 SCF Done:  E(RB2PLYPD3) =  -157.945241194     A.U. after   11 cycles
 E2(B2PLYPD3) =    -0.2484268624D+00 E(B2PLYPD3) =    -0.15819366805674D+03

 The electronic state is 1-A.
 Alpha  occ. eigenvalues --  -10.61940 -10.61533 -10.59673 -10.58531  -0.91321
 Alpha  occ. eigenvalues --   -0.85128  -0.75143  -0.66579  -0.52821  -0.49533
 Alpha  occ. eigenvalues --   -0.48220  -0.47380  -0.43033  -0.41217  -0.38594
 Alpha  occ. eigenvalues --   -0.37203  -0.36852
 Alpha virt. eigenvalues --    0.05316   0.06655   0.07905   0.08381   0.10600
 Alpha virt. eigenvalues --    0.11779   0.12620   0.14074   0.14805   0.15269
 Alpha virt. eigenvalues --    0.16000   0.16576   0.19172   0.19394   0.21177

 Mulliken charges:
               1
     1  C   -0.125491
     2  C   -0.062630
     3  H    0.052588
     4  H    0.038866
     5  H    0.036177
     6  C    0.001282
     7  H    0.035337
     8  H    0.034273
     9  C   -0.392661
    10  H    0.018179
    11  H    0.012385
    12  H    0.263795
    13  H    0.041260
    14  H    0.046640
 Sum of Mulliken charges =   0.00000

 Dipole moment (field-independent basis, Debye):
    X=             -0.3244    Y=              0.1805    Z=             -0.4157  Tot=              0.5573
 Quadrupole moment (field-independent basis, Debye-Ang):
   XX=            -29.3604   YY=            -29.1491   ZZ=            -27.8970
   XY=              0.0645   XZ=             -1.3429   YZ=              0.6455

 Normal termination of Gaussian 09 at Wed Aug 26 09:44:38 2020.
