 Gaussian 09, Revision D.01,
 Gaussian 09:  ES64L-G09RevD.01 24-Apr-2013

 --------------------
 #p B2PLYPD3/Def2QZVP
 --------------------

 ----------
 butane_opt
 ----------
 Symbolic Z-matrix:
 Charge =  0 Multiplicity = 1

                         Standard orientation:
 ---------------------------------------------------------------------
 Center     Atomic      Atomic             Coordinates (Angstroms)
 Number     Number       Type             X           Y           Z
 ---------------------------------------------------------------------
      1          6           0       -1.948873    0.057858   -0.193517
      2          6           0       -0.564816   -0.494518    0.246615
      3          1           0       -2.742844   -0.786888    0.010197
      4          1           0       -2.054121    0.723972   -1.339604
      5          1           0       -2.293376    0.572818    0.560141
      6          6           0        0.548086    0.657267    0.182457
      7          1           0       -0.664827   -0.930544   -0.460101
      8          1           0       -0.496889   -1.110904    1.112330
      9          6           0        2.018440   -0.170316   -0.196178
     10          1           0        0.450810    1.755022    1.282063
     11          1           0        0.363772    0.705807   -0.477443
     12          1           0        2.878277   -0.972929    0.874617
     13          1           0        2.702718    0.450027   -0.856716
     14          1           0        1.539468   -0.708125   -0.941742
 ---------------------------------------------------------------------

 SCF Done:  E(RB2PLYPD3) =  -157.523229604     A.U. after   12 cycles
 E2(B2PLYPD3) =    -0.2570034764D+00 E(B2PLYPD3) =    -0.15778023308056D+03

 The electronic state is 1-A.
 Alpha  occ. eigenvalues --  -10.65535 -10.63094 -10.62493 -10.58568  -0.95246
 Alpha  occ. eigenvalues --   -0.84788  -0.73490  -0.70737  -0.56539  -0.47306
 Alpha  occ. eigenvalues --   -0.46618  -0.45663  -0.42356  -0.39304  -0.38228
 Alpha  occ. eigenvalues --   -0.35858  -0.34564
 Alpha virt. eigenvalues --    0.03304   0.04371   0.05562   0.08339   0.09087
 Alpha virt. eigenvalues --    0.10910   0.11924   0.12302   0.13481   0.14976
 Alpha virt. eigenvalues --    0.15945   0.16417   0.17446   0.18425   0.20500

 Mulliken charges:
               1
     1  C   -0.178341
     2  C   -0.249494
     3  H    0.032963
     4  H    0.050013
     5  H    0.066936
     6  C   -0.737378
     7  H    0.249443
     8  H    0.058821
     9  C   -0.185238
    10  H    0.043997
    11  H    0.678995
    12  H    0.030803
    13  H    0.052431
    14  H    0.086048
 Sum of Mulliken charges =   0.00000

 Dipole moment (field-independent basis, Debye):
    X=             -0.6756    Y=             -0.1237    Z=             -0.4685  Tot=              0.8314
 Quadrupole moment (field-independent basis, Debye-Ang):
   XX=            -30.6745   YY=            -30.0259   ZZ=            -27.6733
   XY=              0.3284   XZ=             -0.9652   YZ=             -0.4850

 Normal termination of Gaussian 09 at Wed Aug 26 13:09:04 2020.
