 Gaussian 09, Revision D.01,
 Gaussian 09:  ES64L-G09RevD.01 24-Apr-2013

 --------------------
 #p B2PLYPD3/Def2QZVP
 --------------------

 ----------
 butane_opt
 ----------
 Symbolic Z-matrix:
 Charge =  0 Multiplicity = 1

                         Standard orientation:
 ---------------------------------------------------------------------
 Center     Atomic      Atomic             Coordinates (Angstroms)
 Number     Number       Type             X           Y           Z
 ---------------------------------------------------------------------
      1          6           0       -1.900131   -0.126377   -0.024367
      2          6           0       -0.525126    0.546023    0.049476
      3          1           0       -2.659862    0.581298   -0.127701
      4          1           0       -2.248309   -0.703459    0.849068
      5          1           0       -2.042794   -0.833879   -0.935222
      6          6           0        0.526721   -0.467461    0.112668
      7          1           0       -0.377550    1.000903    0.743325
      8          1           0       -0.525195    1.191912   -0.868573
      9          6           0        1.919822    0.077148   -0.071481
     10          1           0        0.426666   -1.033133   -0.776817
     11          1           0        0.521971   -1.162736    1.066497
     12          1           0        1.648271    0.489254   -0.880430
     13          1           0        2.791343   -0.688589   -0.417097
     14          1           0        2.337734    0.982426    0.949173
 ---------------------------------------------------------------------

 SCF Done:  E(RB2PLYPD3) =  -157.961495753     A.U. after   11 cycles
 E2(B2PLYPD3) =    -0.2485818037D+00 E(B2PLYPD3) =    -0.15821007755682D+03

 The electronic state is 1-A.
 Alpha  occ. eigenvalues --  -10.62128 -10.60701 -10.60198 -10.58200  -0.94365
 Alpha  occ. eigenvalues --   -0.84198  -0.74113  -0.66941  -0.56783  -0.49965
 Alpha  occ. eigenvalues --   -0.49004  -0.46754  -0.42659  -0.40887  -0.39594
 Alpha  occ. eigenvalues --   -0.37222  -0.36229
 Alpha virt. eigenvalues --    0.05281   0.06305   0.07943   0.08539   0.10565
 Alpha virt. eigenvalues --    0.11268   0.12717   0.13199   0.14565   0.15030
 Alpha virt. eigenvalues --    0.15881   0.16785   0.19247   0.19990   0.21725

 Mulliken charges:
               1
     1  C   -0.108905
     2  C   -0.158282
     3  H    0.041528
     4  H    0.035892
     5  H    0.026284
     6  C   -0.046960
     7  H    0.152364
     8  H    0.026393
     9  C   -0.198331
    10  H    0.053677
    11  H    0.025223
    12  H    0.101087
    13  H    0.045167
    14  H    0.004863
 Sum of Mulliken charges =   0.00000

 Dipole moment (field-independent basis, Debye):
    X=             -0.4436    Y=              0.0324    Z=             -0.3117  Tot=              0.5432
 Quadrupole moment (field-independent basis, Debye-Ang):
   XX=            -30.4031   YY=            -29.4361   ZZ=            -27.9976
   XY=             -1.0211   XZ=             -0.4712   YZ=              0.3668

 Normal termination of Gaussian 09 at Wed Aug 26 09:41:07 2020.
