 Gaussian 09, Revision D.01,
 Gaussian 09:  ES64L-G09RevD.01 24-Apr-2013

 --------------------
 #p B2PLYPD3/Def2QZVP
 --------------------

 ----------
 butane_opt
 ----------
 Symbolic Z-matrix:
 Charge =  0 Multiplicity = 1

                         Standard orientation:
 ---------------------------------------------------------------------
 Center     Atomic      Atomic             Coordinates (Angstroms)
 Number     Number       Type             X           Y           Z
 ---------------------------------------------------------------------
      1          6           0        1.947683    0.068536   -0.123310
      2          6           0        0.597355   -0.503746    0.139732
      3          1           0        2.670975   -0.577302   -0.235191
      4          1           0        2.137733    0.683909    0.766343
      5          1           0        2.044156    0.667787   -0.977780
      6          6           0       -0.536096    0.588462    0.149870
      7          1           0        0.633806   -1.047403    1.067705
      8          1           0        0.471708   -1.073632   -0.653868
      9          6           0       -1.976123   -0.185351   -0.107463
     10          1           0       -0.369125    1.221891   -0.778105
     11          1           0       -0.580255    1.283989    1.023849
     12          1           0       -1.929120   -0.737312   -0.911912
     13          1           0       -2.830752    0.525911   -0.422406
     14          1           0       -2.446045   -0.755243    0.768394
 ---------------------------------------------------------------------

 SCF Done:  E(RB2PLYPD3) =  -158.074491997     A.U. after   11 cycles
 E2(B2PLYPD3) =    -0.2461344022D+00 E(B2PLYPD3) =    -0.15832062639931D+03

 The electronic state is 1-A.
 Alpha  occ. eigenvalues --  -10.62561 -10.60257 -10.59075 -10.57359  -0.90892
 Alpha  occ. eigenvalues --   -0.82644  -0.73654  -0.67515  -0.54945  -0.50710
 Alpha  occ. eigenvalues --   -0.47881  -0.46972  -0.42450  -0.41768  -0.39697
 Alpha  occ. eigenvalues --   -0.37718  -0.36823
 Alpha virt. eigenvalues --    0.05891   0.06925   0.08493   0.08902   0.10888
 Alpha virt. eigenvalues --    0.12395   0.12717   0.13345   0.15043   0.15627
 Alpha virt. eigenvalues --    0.15998   0.17098   0.19234   0.19917   0.22149

 Mulliken charges:
               1
     1  C   -0.121035
     2  C   -0.064639
     3  H    0.040623
     4  H    0.032500
     5  H    0.028261
     6  C   -0.070740
     7  H    0.038894
     8  H    0.059525
     9  C   -0.150017
    10  H    0.032425
    11  H    0.044644
    12  H    0.068073
    13  H    0.020449
    14  H    0.041038
 Sum of Mulliken charges =   0.00000

 Dipole moment (field-independent basis, Debye):
    X=              0.1901    Y=             -0.1809    Z=             -0.2035  Tot=              0.3321
 Quadrupole moment (field-independent basis, Debye-Ang):
   XX=            -29.4507   YY=            -29.0248   ZZ=            -27.5468
   XY=             -0.3783   XZ=             -0.2406   YZ=              0.1768

 Normal termination of Gaussian 09 at Wed Aug 26 20:24:26 2020.
