 Gaussian 09, Revision D.01,
 Gaussian 09:  ES64L-G09RevD.01 24-Apr-2013

 --------------------
 #p B2PLYPD3/Def2QZVP
 --------------------

 ----------
 butane_opt
 ----------
 Symbolic Z-matrix:
 Charge =  0 Multiplicity = 1

                         Standard orientation:
 ---------------------------------------------------------------------
 Center     Atomic      Atomic             Coordinates (Angstroms)
 Number     Number       Type             X           Y           Z
 ---------------------------------------------------------------------
      1          6           0        1.906116   -0.066935    0.034753
      2          6           0        0.646393    0.395406   -0.127287
      3          1           0        2.929760    1.038068   -0.052805
      4          1           0        1.913288   -0.564329   -0.682590
      5          1           0        2.145150   -0.842156    1.168768
      6          6           0       -0.542812   -0.600802    0.107565
      7          1           0        0.353316    1.204380   -1.359564
      8          1           0        0.448806    1.021121    0.709521
      9          6           0       -1.978388    0.185463   -0.008629
     10          1           0       -0.581665   -0.948540    0.971598
     11          1           0       -0.225518   -1.509631   -0.753483
     12          1           0       -2.598418    1.450187    1.209688
     13          1           0       -2.901994   -0.622192   -0.739446
     14          1           0       -1.670583    0.294302   -0.510097
 ---------------------------------------------------------------------

 SCF Done:  E(RB2PLYPD3) =  -157.150298789     A.U. after   13 cycles
 E2(B2PLYPD3) =    -0.2647054225D+00 E(B2PLYPD3) =    -0.15741500421108D+03

 The electronic state is 1-A.
 Alpha  occ. eigenvalues --  -10.65478 -10.64115 -10.64082 -10.63867  -0.96495
 Alpha  occ. eigenvalues --   -0.91061  -0.75973  -0.66829  -0.55435  -0.48225
 Alpha  occ. eigenvalues --   -0.47592  -0.44714  -0.42939  -0.38014  -0.36214
 Alpha  occ. eigenvalues --   -0.34896  -0.33479
 Alpha virt. eigenvalues --   -0.03147   0.02949   0.03755   0.05257   0.08636
 Alpha virt. eigenvalues --    0.09475   0.10092   0.11780   0.13494   0.14686
 Alpha virt. eigenvalues --    0.15296   0.16017   0.17636   0.18257   0.19598

 Mulliken charges:
               1
     1  C   -0.239307
     2  C   -0.057011
     3  H    0.029695
     4  H    0.157875
     5  H    0.040597
     6  C   -0.069445
     7  H    0.000632
     8  H    0.061652
     9  C   -0.885500
    10  H    0.105401
    11  H    0.018949
    12  H    0.059156
    13  H    0.054100
    14  H    0.723207
 Sum of Mulliken charges =   0.00000

 Dipole moment (field-independent basis, Debye):
    X=              0.3564    Y=             -0.2314    Z=              0.0951  Tot=              0.4354
 Quadrupole moment (field-independent basis, Debye-Ang):
   XX=            -32.9847   YY=            -30.0701   ZZ=            -28.5793
   XY=             -0.8132   XZ=             -0.0319   YZ=              1.0581

 Normal termination of Gaussian 09 at Wed Aug 26 13:33:06 2020.
