 Gaussian 09, Revision D.01,
 Gaussian 09:  ES64L-G09RevD.01 24-Apr-2013

 --------------------
 #p B2PLYPD3/Def2QZVP
 --------------------

 ----------
 butane_opt
 ----------
 Symbolic Z-matrix:
 Charge =  0 Multiplicity = 1

                         Standard orientation:
 ---------------------------------------------------------------------
 Center     Atomic      Atomic             Coordinates (Angstroms)
 Number     Number       Type             X           Y           Z
 ---------------------------------------------------------------------
      1          6           0       -1.946015    0.074935   -0.181098
      2          6           0       -0.608699   -0.392527    0.300188
      3          1           0       -2.743603   -0.951527   -0.727950
      4          1           0       -1.730563    0.075036   -0.740488
      5          1           0       -2.197548    1.213871    0.803034
      6          6           0        0.487589    0.583830    0.051255
      7          1           0       -0.569966   -1.159200   -0.373016
      8          1           0       -0.731051   -1.072613    1.396651
      9          6           0        2.089954   -0.144016   -0.095779
     10          1           0        0.499947    1.262884    0.779767
     11          1           0        0.139839    1.255653   -1.102267
     12          1           0        2.372491   -0.746289    0.824570
     13          1           0        2.829693    0.554252   -0.307861
     14          1           0        1.993790   -1.165400   -0.999831
 ---------------------------------------------------------------------

 SCF Done:  E(RB2PLYPD3) =  -157.385430649     A.U. after   12 cycles
 E2(B2PLYPD3) =    -0.2575742340D+00 E(B2PLYPD3) =    -0.15764300488260D+03

 The electronic state is 1-A.
 Alpha  occ. eigenvalues --  -10.65130 -10.65036 -10.63387 -10.62151  -0.96502
 Alpha  occ. eigenvalues --   -0.83812  -0.74988  -0.67187  -0.53864  -0.49125
 Alpha  occ. eigenvalues --   -0.48801  -0.44825  -0.42872  -0.39052  -0.37182
 Alpha  occ. eigenvalues --   -0.36353  -0.34254
 Alpha virt. eigenvalues --    0.02151   0.05041   0.05989   0.06430   0.09820
 Alpha virt. eigenvalues --    0.10087   0.11363   0.12293   0.12624   0.14167
 Alpha virt. eigenvalues --    0.15795   0.16521   0.17954   0.18747   0.19556

 Mulliken charges:
               1
     1  C   -0.899499
     2  C    0.017022
     3  H    0.026931
     4  H    0.740521
     5  H    0.047749
     6  C   -0.083176
     7  H    0.050633
     8  H    0.017350
     9  C   -0.172324
    10  H    0.076839
    11  H    0.008466
    12  H    0.061130
    13  H    0.088970
    14  H    0.019389
 Sum of Mulliken charges =   0.00000

 Dipole moment (field-independent basis, Debye):
    X=              0.7807    Y=              0.0662    Z=              0.0176  Tot=              0.7837
 Quadrupole moment (field-independent basis, Debye-Ang):
   XX=            -31.9754   YY=            -29.3226   ZZ=            -28.9969
   XY=              0.9648   XZ=              1.1779   YZ=              1.2231

 Normal termination of Gaussian 09 at Wed Aug 26 12:22:53 2020.
