 Gaussian 09, Revision D.01,
 Gaussian 09:  ES64L-G09RevD.01 24-Apr-2013

 --------------------
 #p B2PLYPD3/Def2QZVP
 --------------------

 ----------
 butane_opt
 ----------
 Symbolic Z-matrix:
 Charge =  0 Multiplicity = 1

                         Standard orientation:
 ---------------------------------------------------------------------
 Center     Atomic      Atomic             Coordinates (Angstroms)
 Number     Number       Type             X           Y           Z
 ---------------------------------------------------------------------
      1          6           0        1.958371   -0.144779   -0.118725
      2          6           0        0.552630    0.491160    0.187769
      3          1           0        2.736024    0.654449   -0.559819
      4          1           0        1.573847   -0.542878   -0.958795
      5          1           0        2.560680   -0.815694    0.894571
      6          6           0       -0.545800   -0.429413    0.123746
      7          1           0        0.113096    1.187922   -0.647505
      8          1           0        0.358997    1.245427    1.069485
      9          6           0       -1.917807    0.053273   -0.144597
     10          1           0       -0.752548   -1.215585    1.083137
     11          1           0       -0.180475   -1.136309   -0.896149
     12          1           0       -2.062881    0.691116    0.839921
     13          1           0       -2.630150   -0.598537   -0.174904
     14          1           0       -2.000960    0.708637   -0.939096
 ---------------------------------------------------------------------

 SCF Done:  E(RB2PLYPD3) =  -157.981339272     A.U. after   11 cycles
 E2(B2PLYPD3) =    -0.2526546662D+00 E(B2PLYPD3) =    -0.15823399393784D+03

 The electronic state is 1-A.
 Alpha  occ. eigenvalues --  -10.63841 -10.63656 -10.62894 -10.59094  -0.93178
 Alpha  occ. eigenvalues --   -0.84120  -0.73784  -0.63439  -0.54468  -0.51992
 Alpha  occ. eigenvalues --   -0.48133  -0.47246  -0.42126  -0.40736  -0.39638
 Alpha  occ. eigenvalues --   -0.35707  -0.34041
 Alpha virt. eigenvalues --    0.05354   0.06244   0.07432   0.07496   0.10088
 Alpha virt. eigenvalues --    0.10542   0.12820   0.13110   0.14147   0.15618
 Alpha virt. eigenvalues --    0.16181   0.16431   0.18576   0.19641   0.20656

 Mulliken charges:
               1
     1  C   -0.172421
     2  C   -0.045500
     3  H    0.038038
     4  H    0.095286
     5  H    0.057710
     6  C   -0.014989
     7  H    0.025003
     8  H    0.021223
     9  C   -0.127436
    10  H    0.011808
    11  H   -0.019496
    12  H    0.024841
    13  H    0.066197
    14  H    0.039737
 Sum of Mulliken charges =   0.00000

 Dipole moment (field-independent basis, Debye):
    X=             -0.2627    Y=              0.2427    Z=             -0.2079  Tot=              0.4136
 Quadrupole moment (field-independent basis, Debye-Ang):
   XX=            -29.0331   YY=            -30.6881   ZZ=            -28.8459
   XY=              0.3384   XZ=              0.3789   YZ=             -0.5992

 Normal termination of Gaussian 09 at Wed Aug 26 15:57:45 2020.
