 Gaussian 09, Revision D.01,
 Gaussian 09:  ES64L-G09RevD.01 24-Apr-2013

 --------------------
 #p B2PLYPD3/Def2QZVP
 --------------------

 ----------
 butane_opt
 ----------
 Symbolic Z-matrix:
 Charge =  0 Multiplicity = 1

                         Standard orientation:
 ---------------------------------------------------------------------
 Center     Atomic      Atomic             Coordinates (Angstroms)
 Number     Number       Type             X           Y           Z
 ---------------------------------------------------------------------
      1          6           0        1.972756   -0.076323    0.123029
      2          6           0        0.628329    0.454434   -0.132625
      3          1           0        2.909221    0.728469   -0.278514
      4          1           0        1.983742   -0.623411   -0.501691
      5          1           0        1.969850   -0.600231    1.121741
      6          6           0       -0.574888   -0.565984    0.096629
      7          1           0        0.640729    1.227625   -1.272494
      8          1           0        0.650672    0.765347    0.429742
      9          6           0       -2.042756    0.084443   -0.023858
     10          1           0       -0.714643   -1.035239    0.792373
     11          1           0       -0.258177   -1.316729   -0.642388
     12          1           0       -2.655241    1.811694    1.218554
     13          1           0       -2.551330   -0.572446   -0.761415
     14          1           0       -1.875467    0.235500   -0.484955
 ---------------------------------------------------------------------

 SCF Done:  E(RB2PLYPD3) =  -156.453171731     A.U. after   14 cycles
 E2(B2PLYPD3) =    -0.2626100191D+00 E(B2PLYPD3) =    -0.15671578174964D+03

 The electronic state is 1-A.
 Alpha  occ. eigenvalues --  -10.65794 -10.60528 -10.59424 -10.59371  -0.98069
 Alpha  occ. eigenvalues --   -0.93859  -0.79431  -0.74813  -0.57323  -0.51213
 Alpha  occ. eigenvalues --   -0.48470  -0.45591  -0.42065  -0.41203  -0.37924
 Alpha  occ. eigenvalues --   -0.36461  -0.32966
 Alpha virt. eigenvalues --   -0.07630   0.04670   0.06697   0.07175   0.10448
 Alpha virt. eigenvalues --    0.10738   0.11697   0.12370   0.14251   0.15370
 Alpha virt. eigenvalues --    0.15711   0.16541   0.18094   0.18939   0.19974

 Mulliken charges:
               1
     1  C   -0.282771
     2  C   -0.767471
     3  H    0.041891
     4  H    0.215667
     5  H    0.060677
     6  C   -0.092284
     7  H    0.036159
     8  H    0.682295
     9  C   -1.021032
    10  H    0.157158
    11  H    0.029047
    12  H    0.017354
    13  H    0.069427
    14  H    0.853883
 Sum of Mulliken charges =   0.00000

 Dipole moment (field-independent basis, Debye):
    X=              0.7641    Y=             -0.4150    Z=             -0.6537  Tot=              1.0879
 Quadrupole moment (field-independent basis, Debye-Ang):
   XX=            -32.2919   YY=            -28.3805   ZZ=            -27.3015
   XY=              0.1148   XZ=              0.9362   YZ=              0.4672

 Normal termination of Gaussian 09 at Wed Aug 26 23:22:03 2020.
