 Gaussian 09, Revision D.01,
 Gaussian 09:  ES64L-G09RevD.01 24-Apr-2013

 --------------------
 #p B2PLYPD3/Def2QZVP
 --------------------

 ----------
 butane_opt
 ----------
 Symbolic Z-matrix:
 Charge =  0 Multiplicity = 1

                         Standard orientation:
 ---------------------------------------------------------------------
 Center     Atomic      Atomic             Coordinates (Angstroms)
 Number     Number       Type             X           Y           Z
 ---------------------------------------------------------------------
      1          6           0       -1.963129    0.088598   -0.186470
      2          6           0       -0.707071   -0.449964    0.226017
      3          1           0       -2.639473   -0.620950   -0.173897
      4          1           0       -1.932020    0.987790   -1.187943
      5          1           0       -2.196153    0.346545    0.364233
      6          6           0        0.573259    0.547832    0.183984
      7          1           0       -0.524164   -1.189483   -0.540167
      8          1           0       -0.593081   -1.148317    1.198432
      9          6           0        2.065117   -0.179770   -0.181516
     10          1           0        0.358017    1.762781    1.322785
     11          1           0        0.444511    0.749730   -0.501346
     12          1           0        2.564327   -0.810085    0.859413
     13          1           0        2.796771    0.613583   -0.627481
     14          1           0        1.912218   -0.731765   -0.966124
 ---------------------------------------------------------------------

 SCF Done:  E(RB2PLYPD3) =  -157.394190089     A.U. after   12 cycles
 E2(B2PLYPD3) =    -0.2533292339D+00 E(B2PLYPD3) =    -0.15764751932237D+03

 The electronic state is 1-A.
 Alpha  occ. eigenvalues --  -10.63745 -10.63080 -10.61940 -10.57061  -0.95416
 Alpha  occ. eigenvalues --   -0.87954  -0.76168  -0.69839  -0.54320  -0.51199
 Alpha  occ. eigenvalues --   -0.48203  -0.46500  -0.42410  -0.41483  -0.38667
 Alpha  occ. eigenvalues --   -0.36886  -0.33790
 Alpha virt. eigenvalues --    0.03088   0.05638   0.06138   0.07724   0.10494
 Alpha virt. eigenvalues --    0.11084   0.11604   0.12813   0.13727   0.15310
 Alpha virt. eigenvalues --    0.15826   0.16109   0.17589   0.18727   0.20937

 Mulliken charges:
               1
     1  C   -0.597235
     2  C    0.026234
     3  H    0.050742
     4  H    0.051765
     5  H    0.465218
     6  C   -0.584208
     7  H    0.027244
     8  H    0.016012
     9  C   -0.161090
    10  H   -0.012247
    11  H    0.533429
    12  H    0.045926
    13  H    0.047011
    14  H    0.091199
 Sum of Mulliken charges =   0.00000

 Dipole moment (field-independent basis, Debye):
    X=             -0.4298    Y=             -0.5246    Z=             -0.6531  Tot=              0.9416
 Quadrupole moment (field-independent basis, Debye-Ang):
   XX=            -28.4516   YY=            -29.7955   ZZ=            -28.3659
   XY=             -0.0437   XZ=             -1.6393   YZ=             -0.8706

 Normal termination of Gaussian 09 at Wed Aug 26 15:25:43 2020.
