 Gaussian 09, Revision D.01,
 Gaussian 09:  ES64L-G09RevD.01 24-Apr-2013

 --------------------
 #p B2PLYPD3/Def2QZVP
 --------------------

 ----------
 butane_opt
 ----------
 Symbolic Z-matrix:
 Charge =  0 Multiplicity = 1

                         Standard orientation:
 ---------------------------------------------------------------------
 Center     Atomic      Atomic             Coordinates (Angstroms)
 Number     Number       Type             X           Y           Z
 ---------------------------------------------------------------------
      1          6           0        1.935186    0.007382    0.088636
      2          6           0        0.602639   -0.495768   -0.022084
      3          1           0        2.801183   -0.678925   -0.324503
      4          1           0        2.424753    0.886799    1.036186
      5          1           0        1.813454    0.623856   -0.846058
      6          6           0       -0.520498    0.643823   -0.000378
      7          1           0        0.576905   -0.859139    0.550268
      8          1           0        0.523961   -1.357439   -1.044491
      9          6           0       -2.023492   -0.167355    0.067800
     10          1           0       -0.282502    1.162377   -0.858472
     11          1           0       -0.325758    1.267211    0.733610
     12          1           0       -2.147936   -0.357159   -0.577836
     13          1           0       -2.775491    0.478002   -0.710922
     14          1           0       -2.571581   -1.094070    1.238374
 ---------------------------------------------------------------------

 SCF Done:  E(RB2PLYPD3) =  -157.310025161     A.U. after   12 cycles
 E2(B2PLYPD3) =    -0.2567785564D+00 E(B2PLYPD3) =    -0.15756680371733D+03

 The electronic state is 1-A.
 Alpha  occ. eigenvalues --  -10.63259 -10.62992 -10.61795 -10.58897  -0.94627
 Alpha  occ. eigenvalues --   -0.89189  -0.77454  -0.71515  -0.54360  -0.49337
 Alpha  occ. eigenvalues --   -0.47811  -0.45691  -0.41943  -0.39104  -0.37200
 Alpha  occ. eigenvalues --   -0.36686  -0.33397
 Alpha virt. eigenvalues --    0.01751   0.05058   0.05730   0.07099   0.09695
 Alpha virt. eigenvalues --    0.11077   0.11833   0.12355   0.13894   0.15375
 Alpha virt. eigenvalues --    0.16503   0.17388   0.17845   0.18351   0.19852

 Mulliken charges:
               1
     1  C   -0.169734
     2  C   -0.549737
     3  H    0.056207
     4  H    0.037955
     5  H    0.032334
     6  C   -0.028386
     7  H    0.504168
     8  H    0.026479
     9  C   -0.708076
    10  H    0.058215
    11  H    0.077472
    12  H    0.571082
    13  H    0.014303
    14  H    0.077718
 Sum of Mulliken charges =   0.00000

 Dipole moment (field-independent basis, Debye):
    X=              0.0887    Y=             -0.2670    Z=             -0.4549  Tot=              0.5349
 Quadrupole moment (field-independent basis, Debye-Ang):
   XX=            -31.1758   YY=            -29.3541   ZZ=            -27.5854
   XY=              1.3793   XZ=              0.9747   YZ=             -0.4319

 Normal termination of Gaussian 09 at Wed Aug 26 12:26:47 2020.
