 Gaussian 09, Revision D.01,
 Gaussian 09:  ES64L-G09RevD.01 24-Apr-2013

 --------------------
 #p B2PLYPD3/Def2QZVP
 --------------------

 ----------
 butane_opt
 ----------
 Symbolic Z-matrix:
 Charge =  0 Multiplicity = 1

                         Standard orientation:
 ---------------------------------------------------------------------
 Center     Atomic      Atomic             Coordinates (Angstroms)
 Number     Number       Type             X           Y           Z
 ---------------------------------------------------------------------
      1          6           0       -1.878948    0.029709    0.093756
      2          6           0       -0.579261   -0.440732   -0.198374
      3          1           0       -2.762545   -0.781897    0.362858
      4          1           0       -2.244056    0.844128   -0.693604
      5          1           0       -1.666931    0.515629    0.997350
      6          6           0        0.471637    0.630347   -0.028475
      7          1           0       -0.593336   -1.102240   -1.126153
      8          1           0       -0.081343   -1.240350    0.673238
      9          6           0        1.925973   -0.149830    0.014986
     10          1           0        0.257215    1.200218    0.966040
     11          1           0        0.489888    1.383024   -0.760076
     12          1           0        2.232497   -1.156742    1.066798
     13          1           0        2.690403    0.534366    0.154656
     14          1           0        2.041803   -0.613099   -0.932465
 ---------------------------------------------------------------------

 SCF Done:  E(RB2PLYPD3) =  -158.002457913     A.U. after   11 cycles
 E2(B2PLYPD3) =    -0.2518999479D+00 E(B2PLYPD3) =    -0.15825435786107D+03

 The electronic state is 1-A.
 Alpha  occ. eigenvalues --  -10.63431 -10.62713 -10.62054 -10.61063  -0.92326
 Alpha  occ. eigenvalues --   -0.82432  -0.71820  -0.65435  -0.54236  -0.50129
 Alpha  occ. eigenvalues --   -0.48771  -0.46149  -0.42343  -0.39338  -0.38126
 Alpha  occ. eigenvalues --   -0.37208  -0.34609
 Alpha virt. eigenvalues --    0.04623   0.05926   0.07583   0.08186   0.09770
 Alpha virt. eigenvalues --    0.11002   0.12267   0.13411   0.14095   0.14791
 Alpha virt. eigenvalues --    0.15714   0.16256   0.19003   0.20144   0.20977

 Mulliken charges:
               1
     1  C   -0.162364
     2  C   -0.027515
     3  H    0.040174
     4  H    0.039079
     5  H    0.054778
     6  C   -0.025143
     7  H    0.032072
     8  H    0.014385
     9  C   -0.181928
    10  H    0.026661
    11  H    0.044016
    12  H    0.005754
    13  H    0.062957
    14  H    0.077075
 Sum of Mulliken charges =   0.00000

 Dipole moment (field-independent basis, Debye):
    X=              0.1039    Y=              0.5246    Z=             -0.3380  Tot=              0.6327
 Quadrupole moment (field-independent basis, Debye-Ang):
   XX=            -30.4277   YY=            -29.4638   ZZ=            -28.9514
   XY=              0.6450   XZ=             -0.3149   YZ=             -0.0275

 Normal termination of Gaussian 09 at Wed Aug 26 14:18:26 2020.
