 Gaussian 09, Revision D.01,
 Gaussian 09:  ES64L-G09RevD.01 24-Apr-2013

 --------------------
 #p B2PLYPD3/Def2QZVP
 --------------------

 ----------
 butane_opt
 ----------
 Symbolic Z-matrix:
 Charge =  0 Multiplicity = 1

                         Standard orientation:
 ---------------------------------------------------------------------
 Center     Atomic      Atomic             Coordinates (Angstroms)
 Number     Number       Type             X           Y           Z
 ---------------------------------------------------------------------
      1          6           0       -1.977759   -0.130429   -0.063688
      2          6           0       -0.558421    0.536637    0.090413
      3          1           0       -2.712622    0.572810   -0.293098
      4          1           0       -2.349878   -0.848970    0.819377
      5          1           0       -1.965475   -0.710221   -0.913287
      6          6           0        0.569812   -0.481648    0.046348
      7          1           0       -0.492115    1.284107    1.019983
      8          1           0       -0.402812    1.031566   -0.709791
      9          6           0        1.985014    0.103528   -0.043427
     10          1           0        0.499501   -1.014648   -0.779568
     11          1           0        0.501496   -1.188901    0.969922
     12          1           0        2.016679    0.749384   -0.958199
     13          1           0        2.741268   -0.644693   -0.109751
     14          1           0        2.052079    0.601039    0.776537
 ---------------------------------------------------------------------

 SCF Done:  E(RB2PLYPD3) =  -158.066431361     A.U. after   10 cycles
 E2(B2PLYPD3) =    -0.2456383231D+00 E(B2PLYPD3) =    -0.15831206968391D+03

 The electronic state is 1-A.
 Alpha  occ. eigenvalues --  -10.60319 -10.59935 -10.59487 -10.58177  -0.91654
 Alpha  occ. eigenvalues --   -0.83672  -0.74029  -0.67274  -0.55127  -0.50082
 Alpha  occ. eigenvalues --   -0.48614  -0.47754  -0.42893  -0.41856  -0.39408
 Alpha  occ. eigenvalues --   -0.37946  -0.37357
 Alpha virt. eigenvalues --    0.05929   0.06949   0.08463   0.08855   0.10899
 Alpha virt. eigenvalues --    0.12271   0.12956   0.13799   0.14973   0.15288
 Alpha virt. eigenvalues --    0.15806   0.16665   0.19528   0.19999   0.22325

 Mulliken charges:
               1
     1  C   -0.137065
     2  C   -0.083781
     3  H    0.046173
     4  H    0.033078
     5  H    0.046269
     6  C   -0.065548
     7  H    0.014158
     8  H    0.078594
     9  C   -0.146773
    10  H    0.059204
    11  H    0.011040
    12  H    0.029332
    13  H    0.045979
    14  H    0.069339
 Sum of Mulliken charges =   0.00000

 Dipole moment (field-independent basis, Debye):
    X=              0.0240    Y=              0.0216    Z=             -0.3805  Tot=              0.3819
 Quadrupole moment (field-independent basis, Debye-Ang):
   XX=            -29.3262   YY=            -29.0210   ZZ=            -27.7902
   XY=             -0.5561   XZ=              0.3770   YZ=             -0.0523

 Normal termination of Gaussian 09 at Wed Aug 26 15:24:02 2020.
