 Gaussian 09, Revision D.01,
 Gaussian 09:  ES64L-G09RevD.01 24-Apr-2013

 --------------------
 #p B2PLYPD3/Def2QZVP
 --------------------

 ----------
 butane_opt
 ----------
 Symbolic Z-matrix:
 Charge =  0 Multiplicity = 1

                         Standard orientation:
 ---------------------------------------------------------------------
 Center     Atomic      Atomic             Coordinates (Angstroms)
 Number     Number       Type             X           Y           Z
 ---------------------------------------------------------------------
      1          6           0       -1.924591    0.082812    0.109580
      2          6           0       -0.630060   -0.440716   -0.084876
      3          1           0       -2.873225   -0.926852    0.032950
      4          1           0       -1.896738    0.612384   -0.701363
      5          1           0       -1.959189    0.793823    0.998742
      6          6           0        0.557043    0.582355   -0.239021
      7          1           0       -0.680306   -0.875155   -0.646680
      8          1           0       -0.056876   -1.106185    0.743910
      9          6           0        1.979654   -0.183935    0.081786
     10          1           0        0.388985    1.160209    0.647480
     11          1           0        0.549544    1.296029   -1.074865
     12          1           0        1.620063   -0.618349    0.881482
     13          1           0        2.625160    0.622709    0.906435
     14          1           0        2.390307   -1.201705   -0.992908
 ---------------------------------------------------------------------

 SCF Done:  E(RB2PLYPD3) =  -157.701475200     A.U. after   11 cycles
 E2(B2PLYPD3) =    -0.2543702486D+00 E(B2PLYPD3) =    -0.15795584544899D+03

 The electronic state is 1-A.
 Alpha  occ. eigenvalues --  -10.65563 -10.62045 -10.61586 -10.57386  -0.95251
 Alpha  occ. eigenvalues --   -0.84050  -0.73010  -0.69874  -0.56386  -0.49089
 Alpha  occ. eigenvalues --   -0.47857  -0.45275  -0.42527  -0.40714  -0.37649
 Alpha  occ. eigenvalues --   -0.36713  -0.35567
 Alpha virt. eigenvalues --    0.02314   0.05024   0.07649   0.08270   0.10068
 Alpha virt. eigenvalues --    0.10711   0.11610   0.12262   0.14074   0.14982
 Alpha virt. eigenvalues --    0.16234   0.16266   0.18648   0.19034   0.19308

 Mulliken charges:
               1
     1  C   -0.165406
     2  C   -0.444267
     3  H    0.028390
     4  H    0.097035
     5  H    0.046068
     6  C   -0.023193
     7  H    0.391705
     8  H    0.021524
     9  C   -0.235860
    10  H    0.049110
    11  H    0.036179
    12  H    0.120421
    13  H    0.031384
    14  H    0.046910
 Sum of Mulliken charges =   0.00000

 Dipole moment (field-independent basis, Debye):
    X=             -0.3694    Y=              0.0906    Z=             -0.0007  Tot=              0.3803
 Quadrupole moment (field-independent basis, Debye-Ang):
   XX=            -33.1961   YY=            -29.0282   ZZ=            -27.9462
   XY=             -0.1149   XZ=              1.2245   YZ=              1.1821

 Normal termination of Gaussian 09 at Wed Aug 26 19:45:59 2020.
