 Gaussian 09, Revision D.01,
 Gaussian 09:  ES64L-G09RevD.01 24-Apr-2013

 --------------------
 #p B2PLYPD3/Def2QZVP
 --------------------

 ----------
 butane_opt
 ----------
 Symbolic Z-matrix:
 Charge =  0 Multiplicity = 1

                         Standard orientation:
 ---------------------------------------------------------------------
 Center     Atomic      Atomic             Coordinates (Angstroms)
 Number     Number       Type             X           Y           Z
 ---------------------------------------------------------------------
      1          6           0       -2.063557   -0.201342   -0.133863
      2          6           0       -0.527782    0.640099    0.188211
      3          1           0       -2.733587    0.218919   -0.958721
      4          1           0       -2.639130   -0.767111    0.745039
      5          1           0       -1.548997   -0.856395   -0.935516
      6          6           0        0.604883   -0.375851    0.201627
      7          1           0       -0.674151    1.712925    1.125552
      8          1           0       -0.350858    0.863260   -0.461724
      9          6           0        2.014833    0.060174   -0.224418
     10          1           0        0.342566   -0.970104   -0.361793
     11          1           0        0.584663   -1.328424    1.462756
     12          1           0        1.788187    0.585604   -1.198167
     13          1           0        2.863268   -0.945299   -0.060022
     14          1           0        2.197784    0.748142    0.453250
 ---------------------------------------------------------------------

 SCF Done:  E(RB2PLYPD3) =  -157.644610935     A.U. after   11 cycles
 E2(B2PLYPD3) =    -0.2549299000D+00 E(B2PLYPD3) =    -0.15789954083500D+03

 The electronic state is 1-A.
 Alpha  occ. eigenvalues --  -10.64400 -10.62918 -10.62872 -10.62833  -0.95092
 Alpha  occ. eigenvalues --   -0.83143  -0.74632  -0.70562  -0.53513  -0.48587
 Alpha  occ. eigenvalues --   -0.47620  -0.46880  -0.44367  -0.41013  -0.39240
 Alpha  occ. eigenvalues --   -0.35169  -0.33331
 Alpha virt. eigenvalues --    0.03738   0.05811   0.06340   0.06986   0.10390
 Alpha virt. eigenvalues --    0.11256   0.11480   0.12312   0.13678   0.14117
 Alpha virt. eigenvalues --    0.15531   0.15939   0.17497   0.18467   0.20540

 Mulliken charges:
               1
     1  C   -0.173438
     2  C   -0.610329
     3  H    0.056700
     4  H    0.077448
     5  H    0.030791
     6  C   -0.127185
     7  H    0.038281
     8  H    0.556540
     9  C   -0.173454
    10  H    0.180240
    11  H   -0.062030
    12  H    0.047087
    13  H    0.064111
    14  H    0.095238
 Sum of Mulliken charges =   0.00000

 Dipole moment (field-independent basis, Debye):
    X=              0.0503    Y=              0.2910    Z=             -1.0983  Tot=              1.1373
 Quadrupole moment (field-independent basis, Debye-Ang):
   XX=            -29.3567   YY=            -30.2450   ZZ=            -29.3687
   XY=              0.3372   XZ=              0.1480   YZ=              0.3771

 Normal termination of Gaussian 09 at Wed Aug 26 22:08:37 2020.
