 Gaussian 09, Revision D.01,
 Gaussian 09:  ES64L-G09RevD.01 24-Apr-2013

 --------------------
 #p B2PLYPD3/Def2QZVP
 --------------------

 ----------
 butane_opt
 ----------
 Symbolic Z-matrix:
 Charge =  0 Multiplicity = 1

                         Standard orientation:
 ---------------------------------------------------------------------
 Center     Atomic      Atomic             Coordinates (Angstroms)
 Number     Number       Type             X           Y           Z
 ---------------------------------------------------------------------
      1          6           0        1.968391    0.061320    0.106232
      2          6           0        0.663100   -0.455724   -0.173417
      3          1           0        2.920755   -0.766693    0.362283
      4          1           0        1.844303    0.959814    1.159037
      5          1           0        2.294807    0.416494   -0.504093
      6          6           0       -0.539434    0.615776   -0.271204
      7          1           0        0.222120   -1.111934    0.923867
      8          1           0        0.801649   -0.936297   -0.979305
      9          6           0       -2.028973   -0.200856    0.174283
     10          1           0       -0.626398    1.351166   -1.170533
     11          1           0       -0.303452    0.973944    0.447549
     12          1           0       -2.765839   -1.241804   -0.946151
     13          1           0       -2.906230    0.681683    0.809475
     14          1           0       -1.860219   -0.449465    0.882507
 ---------------------------------------------------------------------

 SCF Done:  E(RB2PLYPD3) =  -157.530128189     A.U. after   12 cycles
 E2(B2PLYPD3) =    -0.2561515263D+00 E(B2PLYPD3) =    -0.15778627971568D+03

 The electronic state is 1-A.
 Alpha  occ. eigenvalues --  -10.65637 -10.62604 -10.61994 -10.61593  -0.93676
 Alpha  occ. eigenvalues --   -0.85962  -0.77507  -0.70136  -0.56696  -0.49851
 Alpha  occ. eigenvalues --   -0.47375  -0.46403  -0.42908  -0.38911  -0.36913
 Alpha  occ. eigenvalues --   -0.36261  -0.34760
 Alpha virt. eigenvalues --    0.01292   0.04094   0.06905   0.07851   0.08795
 Alpha virt. eigenvalues --    0.09530   0.10432   0.12538   0.13695   0.14642
 Alpha virt. eigenvalues --    0.15889   0.16861   0.17841   0.18341   0.19672

 Mulliken charges:
               1
     1  C   -0.369105
     2  C   -0.008772
     3  H    0.044313
     4  H    0.000810
     5  H    0.263938
     6  C   -0.267938
     7  H    0.007427
     8  H    0.076151
     9  C   -0.466675
    10  H    0.052139
    11  H    0.253887
    12  H    0.037603
    13  H    0.007714
    14  H    0.368506
 Sum of Mulliken charges =   0.00000

 Dipole moment (field-independent basis, Debye):
    X=              0.8510    Y=              0.1261    Z=             -0.2482  Tot=              0.8954
 Quadrupole moment (field-independent basis, Debye-Ang):
   XX=            -31.7496   YY=            -30.2129   ZZ=            -28.1112
   XY=             -0.1820   XZ=             -2.0563   YZ=              0.2737

 Normal termination of Gaussian 09 at Wed Aug 26 14:25:53 2020.
