 Gaussian 09, Revision D.01,
 Gaussian 09:  ES64L-G09RevD.01 24-Apr-2013

 --------------------
 #p B2PLYPD3/Def2QZVP
 --------------------

 ----------
 butane_opt
 ----------
 Symbolic Z-matrix:
 Charge =  0 Multiplicity = 1

                         Standard orientation:
 ---------------------------------------------------------------------
 Center     Atomic      Atomic             Coordinates (Angstroms)
 Number     Number       Type             X           Y           Z
 ---------------------------------------------------------------------
      1          6           0       -1.964405    0.126968   -0.012868
      2          6           0       -0.605268   -0.521298    0.030904
      3          1           0       -2.812059   -0.602138   -0.223797
      4          1           0       -2.016067    0.580160   -0.769629
      5          1           0       -2.024537    0.848896    0.909186
      6          6           0        0.579316    0.521412   -0.022822
      7          1           0       -0.598283   -0.960714   -0.740035
      8          1           0       -0.594242   -1.273127    1.050223
      9          6           0        2.028507   -0.140337   -0.030255
     10          1           0        0.523280    1.269828    0.886598
     11          1           0        0.310167    1.200584   -0.966905
     12          1           0        2.006170   -0.632519    0.883600
     13          1           0        2.815444    0.541619    0.126125
     14          1           0        2.161219   -0.893060   -0.945114
 ---------------------------------------------------------------------

 SCF Done:  E(RB2PLYPD3) =  -157.994657797     A.U. after   11 cycles
 E2(B2PLYPD3) =    -0.2478154769D+00 E(B2PLYPD3) =    -0.15824247327343D+03

 The electronic state is 1-A.
 Alpha  occ. eigenvalues --  -10.63484 -10.60723 -10.60027 -10.58469  -0.91408
 Alpha  occ. eigenvalues --   -0.83754  -0.73658  -0.66624  -0.54648  -0.49163
 Alpha  occ. eigenvalues --   -0.48726  -0.47622  -0.41501  -0.41422  -0.39005
 Alpha  occ. eigenvalues --   -0.38097  -0.36464
 Alpha virt. eigenvalues --    0.05599   0.06760   0.07945   0.08525   0.10674
 Alpha virt. eigenvalues --    0.12202   0.12595   0.13885   0.14120   0.15117
 Alpha virt. eigenvalues --    0.15582   0.16694   0.19219   0.19668   0.20870

 Mulliken charges:
               1
     1  C   -0.195921
     2  C   -0.098923
     3  H    0.033737
     4  H    0.101876
     5  H    0.041447
     6  C   -0.046306
     7  H    0.118055
     8  H    0.006637
     9  C   -0.154309
    10  H    0.019396
    11  H    0.017245
    12  H    0.063724
    13  H    0.053666
    14  H    0.039677
 Sum of Mulliken charges =   0.00000

 Dipole moment (field-independent basis, Debye):
    X=              0.0665    Y=              0.0236    Z=             -0.2868  Tot=              0.2954
 Quadrupole moment (field-independent basis, Debye-Ang):
   XX=            -29.4600   YY=            -29.5371   ZZ=            -27.9470
   XY=              0.5477   XZ=              1.4571   YZ=              0.7030

 Normal termination of Gaussian 09 at Wed Aug 26 23:21:10 2020.
