 Gaussian 09, Revision D.01,
 Gaussian 09:  ES64L-G09RevD.01 24-Apr-2013

 --------------------
 #p B2PLYPD3/Def2QZVP
 --------------------

 ----------
 butane_opt
 ----------
 Symbolic Z-matrix:
 Charge =  0 Multiplicity = 1

                         Standard orientation:
 ---------------------------------------------------------------------
 Center     Atomic      Atomic             Coordinates (Angstroms)
 Number     Number       Type             X           Y           Z
 ---------------------------------------------------------------------
      1          6           0        1.905681    0.143961    0.078064
      2          6           0        0.493121   -0.591415   -0.201223
      3          1           0        2.691294   -0.499100    0.120062
      4          1           0        2.105162    1.220171    1.203552
      5          1           0        2.162756    0.349379   -0.447337
      6          6           0       -0.639651    0.451020   -0.222824
      7          1           0        0.381559   -1.104280    0.659474
      8          1           0        0.361445   -1.076575   -0.894380
      9          6           0       -1.849555   -0.062611    0.157386
     10          1           0       -0.693674    1.365317   -1.272538
     11          1           0       -0.217064    0.938624    0.524739
     12          1           0       -2.291507   -0.622449   -0.480260
     13          1           0       -2.466841    0.644788    0.544420
     14          1           0       -1.490711   -0.861607    1.173843
 ---------------------------------------------------------------------

 SCF Done:  E(RB2PLYPD3) =  -157.453936225     A.U. after   11 cycles
 E2(B2PLYPD3) =    -0.2504522855D+00 E(B2PLYPD3) =    -0.15770438851011D+03

 The electronic state is 1-A.
 Alpha  occ. eigenvalues --  -10.60307 -10.59947 -10.58978 -10.58316  -0.95087
 Alpha  occ. eigenvalues --   -0.89450  -0.79909  -0.68550  -0.57449  -0.52338
 Alpha  occ. eigenvalues --   -0.51056  -0.48378  -0.43032  -0.40448  -0.38665
 Alpha  occ. eigenvalues --   -0.36356  -0.34831
 Alpha virt. eigenvalues --    0.03972   0.05952   0.06622   0.08111   0.10746
 Alpha virt. eigenvalues --    0.10882   0.12153   0.13564   0.14980   0.15112
 Alpha virt. eigenvalues --    0.16093   0.16876   0.19206   0.19806   0.22238

 Mulliken charges:
               1
     1  C   -0.656040
     2  C   -0.113927
     3  H    0.054852
     4  H    0.022134
     5  H    0.502626
     6  C   -0.076927
     7  H    0.074303
     8  H    0.128976
     9  C   -0.125768
    10  H   -0.014194
    11  H    0.088646
    12  H    0.067675
    13  H    0.060383
    14  H   -0.012739
 Sum of Mulliken charges =   0.00000

 Dipole moment (field-independent basis, Debye):
    X=              0.0971    Y=             -0.3912    Z=             -0.3566  Tot=              0.5381
 Quadrupole moment (field-independent basis, Debye-Ang):
   XX=            -28.0047   YY=            -29.0338   ZZ=            -28.6659
   XY=             -0.6647   XZ=             -0.2763   YZ=              0.9665

 Normal termination of Gaussian 09 at Wed Aug 26 12:28:57 2020.
