 Gaussian 09, Revision D.01,
 Gaussian 09:  ES64L-G09RevD.01 24-Apr-2013

 --------------------
 #p B2PLYPD3/Def2QZVP
 --------------------

 ----------
 butane_opt
 ----------
 Symbolic Z-matrix:
 Charge =  0 Multiplicity = 1

                         Standard orientation:
 ---------------------------------------------------------------------
 Center     Atomic      Atomic             Coordinates (Angstroms)
 Number     Number       Type             X           Y           Z
 ---------------------------------------------------------------------
      1          6           0       -1.888229   -0.109893    0.079580
      2          6           0       -0.552454    0.502043   -0.126809
      3          1           0       -2.667399    0.736439   -0.141922
      4          1           0       -2.018608   -0.953979    1.196979
      5          1           0       -2.047443   -0.515819   -0.632527
      6          6           0        0.492489   -0.565725   -0.015980
      7          1           0       -0.590520    1.115792    0.653781
      8          1           0       -0.346571    1.204631   -1.117505
      9          6           0        1.926448    0.135995    0.049491
     10          1           0        0.391275   -1.231259   -0.905220
     11          1           0        0.400159   -0.914695    0.756121
     12          1           0        1.894225    0.324320   -0.562609
     13          1           0        2.759221   -0.676455   -0.378924
     14          1           0        2.356138    1.136505    1.214131
 ---------------------------------------------------------------------

 SCF Done:  E(RB2PLYPD3) =  -157.452637198     A.U. after   12 cycles
 E2(B2PLYPD3) =    -0.2524916379D+00 E(B2PLYPD3) =    -0.15770512883631D+03

 The electronic state is 1-A.
 Alpha  occ. eigenvalues --  -10.61411 -10.60413 -10.60151 -10.58813  -0.94801
 Alpha  occ. eigenvalues --   -0.87964  -0.77840  -0.69285  -0.56682  -0.49341
 Alpha  occ. eigenvalues --   -0.48377  -0.45359  -0.42668  -0.39914  -0.38813
 Alpha  occ. eigenvalues --   -0.36955  -0.35986
 Alpha virt. eigenvalues --    0.03260   0.05163   0.06302   0.07742   0.10343
 Alpha virt. eigenvalues --    0.10582   0.11718   0.12746   0.14072   0.15498
 Alpha virt. eigenvalues --    0.16118   0.16282   0.18770   0.19055   0.21764

 Mulliken charges:
               1
     1  C   -0.280647
     2  C   -0.027836
     3  H    0.033818
     4  H    0.038743
     5  H    0.168755
     6  C   -0.117688
     7  H    0.067108
     8  H    0.008428
     9  C   -0.820893
    10  H    0.042952
    11  H    0.154471
    12  H    0.632467
    13  H    0.045846
    14  H    0.054475
 Sum of Mulliken charges =   0.00000

 Dipole moment (field-independent basis, Debye):
    X=             -0.3531    Y=             -0.0529    Z=             -0.5057  Tot=              0.6190
 Quadrupole moment (field-independent basis, Debye-Ang):
   XX=            -31.6175   YY=            -28.9363   ZZ=            -27.3581
   XY=              0.2335   XZ=             -0.0923   YZ=              0.4729

 Normal termination of Gaussian 09 at Wed Aug 26 09:49:09 2020.
