 Gaussian 09, Revision D.01,
 Gaussian 09:  ES64L-G09RevD.01 24-Apr-2013

 --------------------
 #p B2PLYPD3/Def2QZVP
 --------------------

 ----------
 butane_opt
 ----------
 Symbolic Z-matrix:
 Charge =  0 Multiplicity = 1

                         Standard orientation:
 ---------------------------------------------------------------------
 Center     Atomic      Atomic             Coordinates (Angstroms)
 Number     Number       Type             X           Y           Z
 ---------------------------------------------------------------------
      1          6           0        1.939274    0.094560    0.034489
      2          6           0        0.571113   -0.488225   -0.047189
      3          1           0        2.745987   -0.723461   -0.270172
      4          1           0        2.129623    1.015366    1.085810
      5          1           0        1.920269    0.453032   -0.675618
      6          6           0       -0.555415    0.559047   -0.065512
      7          1           0        0.421513   -1.120933    0.940718
      8          1           0        0.483582   -1.071763   -0.881999
      9          6           0       -1.972143   -0.150658    0.068082
     10          1           0       -0.522271    1.256492   -0.974061
     11          1           0       -0.147234    0.970241    0.636873
     12          1           0       -2.152228   -0.740138   -0.828812
     13          1           0       -2.746608    0.633008    0.010663
     14          1           0       -2.029605   -0.760191    1.017382
 ---------------------------------------------------------------------

 SCF Done:  E(RB2PLYPD3) =  -157.908733030     A.U. after   11 cycles
 E2(B2PLYPD3) =    -0.2488369518D+00 E(B2PLYPD3) =    -0.15815756998166D+03

 The electronic state is 1-A.
 Alpha  occ. eigenvalues --  -10.61086 -10.60379 -10.60175 -10.59207  -0.93396
 Alpha  occ. eigenvalues --   -0.84383  -0.74611  -0.67394  -0.55551  -0.49425
 Alpha  occ. eigenvalues --   -0.47996  -0.46811  -0.42541  -0.42139  -0.39748
 Alpha  occ. eigenvalues --   -0.37152  -0.35582
 Alpha virt. eigenvalues --    0.05053   0.06476   0.08141   0.08293   0.10675
 Alpha virt. eigenvalues --    0.11656   0.12627   0.13640   0.14645   0.15173
 Alpha virt. eigenvalues --    0.15580   0.16285   0.18814   0.19604   0.21754

 Mulliken charges:
               1
     1  C   -0.399819
     2  C   -0.027435
     3  H    0.047095
     4  H    0.030503
     5  H    0.283190
     6  C   -0.129025
     7  H    0.015298
     8  H    0.046437
     9  C   -0.140630
    10  H    0.014765
    11  H    0.113180
    12  H    0.048241
    13  H    0.043297
    14  H    0.054902
 Sum of Mulliken charges =   0.00000

 Dipole moment (field-independent basis, Debye):
    X=             -0.0970    Y=              0.0176    Z=             -0.4867  Tot=              0.4965
 Quadrupole moment (field-independent basis, Debye-Ang):
   XX=            -30.2429   YY=            -29.3516   ZZ=            -27.7887
   XY=             -0.1816   XZ=             -0.5207   YZ=              0.3348

 Normal termination of Gaussian 09 at Wed Aug 26 15:58:13 2020.
