 Gaussian 09, Revision D.01,
 Gaussian 09:  ES64L-G09RevD.01 24-Apr-2013

 --------------------
 #p B2PLYPD3/Def2QZVP
 --------------------

 ----------
 butane_opt
 ----------
 Symbolic Z-matrix:
 Charge =  0 Multiplicity = 1

                         Standard orientation:
 ---------------------------------------------------------------------
 Center     Atomic      Atomic             Coordinates (Angstroms)
 Number     Number       Type             X           Y           Z
 ---------------------------------------------------------------------
      1          6           0       -1.986581   -0.000110   -0.177066
      2          6           0       -0.652472   -0.368241    0.324234
      3          1           0       -2.770478   -0.699446   -0.607720
      4          1           0       -1.784399    0.221964   -1.079178
      5          1           0       -2.250040    0.938372    0.669002
      6          6           0        0.551837    0.619409    0.060906
      7          1           0       -0.307565   -1.168684   -0.315440
      8          1           0       -0.740445   -0.838560    1.369335
      9          6           0        2.081987   -0.203534   -0.115910
     10          1           0        0.419514    1.238897    0.677183
     11          1           0        0.238178    1.109181   -0.842029
     12          1           0        2.400574   -0.471904    0.793175
     13          1           0        2.723443    0.450936   -0.338569
     14          1           0        2.102590   -1.065896   -0.878748
 ---------------------------------------------------------------------

 SCF Done:  E(RB2PLYPD3) =  -157.951205168     A.U. after   11 cycles
 E2(B2PLYPD3) =    -0.2485308218D+00 E(B2PLYPD3) =    -0.15819973599024D+03

 The electronic state is 1-A.
 Alpha  occ. eigenvalues --  -10.60263 -10.60204 -10.59820 -10.59785  -0.91162
 Alpha  occ. eigenvalues --   -0.83638  -0.76886  -0.67515  -0.54903  -0.50661
 Alpha  occ. eigenvalues --   -0.48013  -0.47157  -0.43914  -0.41918  -0.38674
 Alpha  occ. eigenvalues --   -0.37281  -0.34189
 Alpha virt. eigenvalues --    0.05506   0.06598   0.08665   0.08858   0.10901
 Alpha virt. eigenvalues --    0.11628   0.12151   0.13716   0.14529   0.15184
 Alpha virt. eigenvalues --    0.16770   0.16977   0.19000   0.19073   0.21014

 Mulliken charges:
               1
     1  C   -0.187503
     2  C   -0.024722
     3  H    0.051403
     4  H    0.063641
     5  H    0.025690
     6  C   -0.132729
     7  H    0.018883
     8  H    0.022952
     9  C   -0.149857
    10  H    0.116302
    11  H    0.029414
    12  H    0.052492
    13  H    0.065686
    14  H    0.048348
 Sum of Mulliken charges =   0.00000

 Dipole moment (field-independent basis, Debye):
    X=              0.5222    Y=              0.0370    Z=             -0.3487  Tot=              0.6290
 Quadrupole moment (field-independent basis, Debye-Ang):
   XX=            -28.9831   YY=            -29.2197   ZZ=            -27.6763
   XY=              0.4683   XZ=              1.0162   YZ=              1.1506

 Normal termination of Gaussian 09 at Wed Aug 26 13:12:57 2020.
