 Gaussian 09, Revision D.01,
 Gaussian 09:  ES64L-G09RevD.01 24-Apr-2013

 --------------------
 #p B2PLYPD3/Def2QZVP
 --------------------

 ----------
 butane_opt
 ----------
 Symbolic Z-matrix:
 Charge =  0 Multiplicity = 1

                         Standard orientation:
 ---------------------------------------------------------------------
 Center     Atomic      Atomic             Coordinates (Angstroms)
 Number     Number       Type             X           Y           Z
 ---------------------------------------------------------------------
      1          6           0       -1.922709   -0.029101   -0.125950
      2          6           0       -0.614818    0.493603    0.093099
      3          1           0       -2.606335    0.612138   -0.068019
      4          1           0       -2.013506   -0.596097    0.693506
      5          1           0       -1.988987   -0.820744   -1.145264
      6          6           0        0.515289   -0.656067    0.022310
      7          1           0       -0.665529    1.483381    1.271828
      8          1           0       -0.406921    0.813975   -0.498153
      9          6           0        2.037624    0.135785   -0.007546
     10          1           0        0.311171   -0.986078   -0.628875
     11          1           0        0.141677   -1.203249    1.013561
     12          1           0        2.455555    1.349263   -1.173041
     13          1           0        2.564942   -0.508904    0.157770
     14          1           0        2.115613    0.191001    0.485210
 ---------------------------------------------------------------------

 SCF Done:  E(RB2PLYPD3) =  -156.518772861     A.U. after   12 cycles
 E2(B2PLYPD3) =    -0.2547167084D+00 E(B2PLYPD3) =    -0.15677348956912D+03

 The electronic state is 1-A.
 Alpha  occ. eigenvalues --  -10.63820 -10.60739 -10.59558 -10.58573  -0.98123
 Alpha  occ. eigenvalues --   -0.93925  -0.81419  -0.73015  -0.56424  -0.51673
 Alpha  occ. eigenvalues --   -0.48671  -0.47003  -0.45564  -0.41692  -0.37616
 Alpha  occ. eigenvalues --   -0.35775  -0.35019
 Alpha virt. eigenvalues --    0.00461   0.04757   0.06222   0.07543   0.09950
 Alpha virt. eigenvalues --    0.11030   0.12303   0.12711   0.14491   0.15580
 Alpha virt. eigenvalues --    0.16496   0.17020   0.17815   0.19237   0.20966

 Mulliken charges:
               1
     1  C   -0.095539
     2  C   -0.548717
     3  H    0.067515
     4  H    0.053644
     5  H    0.013172
     6  C   -0.358779
     7  H   -0.019968
     8  H    0.505487
     9  C   -0.948224
    10  H    0.360083
    11  H    0.065901
    12  H    0.057442
    13  H    0.060469
    14  H    0.787515
 Sum of Mulliken charges =   0.00000

 Dipole moment (field-independent basis, Debye):
    X=             -0.0111    Y=             -0.2861    Z=             -0.0633  Tot=              0.2933
 Quadrupole moment (field-independent basis, Debye-Ang):
   XX=            -28.1012   YY=            -29.0526   ZZ=            -27.5646
   XY=             -0.2537   XZ=              0.2840   YZ=             -1.0840

 Normal termination of Gaussian 09 at Wed Aug 26 15:56:16 2020.
