 Gaussian 09, Revision D.01,
 Gaussian 09:  ES64L-G09RevD.01 24-Apr-2013

 --------------------
 #p B2PLYPD3/Def2QZVP
 --------------------

 ----------
 butane_opt
 ----------
 Symbolic Z-matrix:
 Charge =  0 Multiplicity = 1

                         Standard orientation:
 ---------------------------------------------------------------------
 Center     Atomic      Atomic             Coordinates (Angstroms)
 Number     Number       Type             X           Y           Z
 ---------------------------------------------------------------------
      1          6           0       -1.963193    0.059245   -0.201819
      2          6           0       -0.558426   -0.483591    0.248773
      3          1           0       -2.737546   -0.616401    0.003950
      4          1           0       -2.007187    0.809350   -1.374605
      5          1           0       -2.463277    0.613522    0.434469
      6          6           0        0.545758    0.573178    0.165078
      7          1           0       -0.357095   -1.249659   -0.480300
      8          1           0       -0.558992   -1.059855    1.280915
      9          6           0        1.986316   -0.144902   -0.217612
     10          1           0        0.618027    1.809049    1.368365
     11          1           0        0.573560    0.710682   -0.470470
     12          1           0        2.609186   -0.754463    0.899682
     13          1           0        2.668775    0.218285   -0.887056
     14          1           0        1.591816   -0.504092   -0.741471
 ---------------------------------------------------------------------

 SCF Done:  E(RB2PLYPD3) =  -157.370980350     A.U. after   12 cycles
 E2(B2PLYPD3) =    -0.2555792336D+00 E(B2PLYPD3) =    -0.15762655958409D+03

 The electronic state is 1-A.
 Alpha  occ. eigenvalues --  -10.63612 -10.63266 -10.61924 -10.60076  -0.97317
 Alpha  occ. eigenvalues --   -0.86290  -0.78438  -0.71168  -0.53316  -0.51221
 Alpha  occ. eigenvalues --   -0.49246  -0.46410  -0.42331  -0.40547  -0.39227
 Alpha  occ. eigenvalues --   -0.36238  -0.32729
 Alpha virt. eigenvalues --    0.02113   0.05211   0.05910   0.07763   0.09739
 Alpha virt. eigenvalues --    0.10661   0.11599   0.12219   0.13315   0.15340
 Alpha virt. eigenvalues --    0.16422   0.16589   0.17207   0.19381   0.21428

 Mulliken charges:
               1
     1  C   -0.139232
     2  C    0.013556
     3  H    0.042011
     4  H    0.024878
     5  H    0.050710
     6  C   -0.827825
     7  H    0.055456
     8  H    0.031441
     9  C   -0.507450
    10  H   -0.002991
    11  H    0.760884
    12  H    0.039878
    13  H    0.062296
    14  H    0.396388
 Sum of Mulliken charges =   0.00000

 Dipole moment (field-independent basis, Debye):
    X=             -0.4598    Y=             -0.5602    Z=             -0.5558  Tot=              0.9133
 Quadrupole moment (field-independent basis, Debye-Ang):
   XX=            -28.7697   YY=            -30.7842   ZZ=            -27.9764
   XY=              0.0279   XZ=             -2.2650   YZ=             -0.8867

 Normal termination of Gaussian 09 at Wed Aug 26 11:54:22 2020.
