 Gaussian 09, Revision D.01,
 Gaussian 09:  ES64L-G09RevD.01 24-Apr-2013

 --------------------
 #p B2PLYPD3/Def2QZVP
 --------------------

 ----------
 butane_opt
 ----------
 Symbolic Z-matrix:
 Charge =  0 Multiplicity = 1

                         Standard orientation:
 ---------------------------------------------------------------------
 Center     Atomic      Atomic             Coordinates (Angstroms)
 Number     Number       Type             X           Y           Z
 ---------------------------------------------------------------------
      1          6           0        1.914120    0.090125   -0.021078
      2          6           0        0.668065   -0.406665    0.134212
      3          1           0        2.897501   -0.936451   -0.455225
      4          1           0        2.273283    1.156733    1.026926
      5          1           0        1.965694    0.215073   -0.659229
      6          6           0       -0.561898    0.624299   -0.175681
      7          1           0        0.414404   -1.165100    1.081408
      8          1           0        0.652178   -1.050048   -0.638782
      9          6           0       -2.071540   -0.227597   -0.010089
     10          1           0       -0.241831    1.007538   -0.950651
     11          1           0       -0.541820    1.241221    0.588216
     12          1           0       -2.374993   -1.015767   -0.807383
     13          1           0       -2.838741    0.714188    0.233648
     14          1           0       -1.898160   -0.648359    1.016884
 ---------------------------------------------------------------------

 SCF Done:  E(RB2PLYPD3) =  -157.554168386     A.U. after   12 cycles
 E2(B2PLYPD3) =    -0.2542761423D+00 E(B2PLYPD3) =    -0.15780844452848D+03

 The electronic state is 1-A.
 Alpha  occ. eigenvalues --  -10.64840 -10.62822 -10.60736 -10.60418  -0.96658
 Alpha  occ. eigenvalues --   -0.84706  -0.74085  -0.70100  -0.56244  -0.52569
 Alpha  occ. eigenvalues --   -0.47138  -0.45390  -0.44302  -0.41183  -0.38915
 Alpha  occ. eigenvalues --   -0.36196  -0.32366
 Alpha virt. eigenvalues --    0.02319   0.05520   0.06075   0.08402   0.10040
 Alpha virt. eigenvalues --    0.10298   0.11737   0.12823   0.13826   0.14305
 Alpha virt. eigenvalues --    0.15531   0.16125   0.17603   0.18946   0.19875

 Mulliken charges:
               1
     1  C   -0.710929
     2  C    0.032802
     3  H   -0.009908
     4  H    0.021660
     5  H    0.575483
     6  C   -0.113001
     7  H    0.013122
     8  H    0.052279
     9  C   -0.203491
    10  H    0.086047
    11  H    0.068034
    12  H    0.072359
    13  H    0.044208
    14  H    0.071335
 Sum of Mulliken charges =   0.00000

 Dipole moment (field-independent basis, Debye):
    X=             -0.7576    Y=              0.1193    Z=             -0.5535  Tot=              0.9458
 Quadrupole moment (field-independent basis, Debye-Ang):
   XX=            -33.1955   YY=            -29.1174   ZZ=            -28.1349
   XY=              0.4251   XZ=             -1.5451   YZ=              1.0238

 Normal termination of Gaussian 09 at Wed Aug 26 21:33:10 2020.
