 Gaussian 09, Revision D.01,
 Gaussian 09:  ES64L-G09RevD.01 24-Apr-2013

 --------------------
 #p B2PLYPD3/Def2QZVP
 --------------------

 ----------
 butane_opt
 ----------
 Symbolic Z-matrix:
 Charge =  0 Multiplicity = 1

                         Standard orientation:
 ---------------------------------------------------------------------
 Center     Atomic      Atomic             Coordinates (Angstroms)
 Number     Number       Type             X           Y           Z
 ---------------------------------------------------------------------
      1          6           0        1.971681   -0.115908   -0.071083
      2          6           0        0.435886    0.584343    0.016101
      3          1           0        2.726163    0.383840    0.016059
      4          1           0        2.055561   -1.050280   -0.950406
      5          1           0        2.167153   -0.475474    0.753586
      6          6           0       -0.610961   -0.394808    0.237360
      7          1           0        0.129816    1.150399   -0.935796
      8          1           0        0.422170    1.123693    0.737724
      9          6           0       -1.819297    0.025094   -0.150528
     10          1           0       -0.358069   -1.026531    1.118854
     11          1           0       -0.453929   -1.189776   -0.557012
     12          1           0       -2.380646    0.884400    0.761722
     13          1           0       -2.590141   -0.759309   -0.274632
     14          1           0       -1.581932    0.366714   -0.861200
 ---------------------------------------------------------------------

 SCF Done:  E(RB2PLYPD3) =  -157.839449139     A.U. after   11 cycles
 E2(B2PLYPD3) =    -0.2482564704D+00 E(B2PLYPD3) =    -0.15808770560897D+03

 The electronic state is 1-A.
 Alpha  occ. eigenvalues --  -10.59906 -10.59315 -10.58760 -10.58751  -0.97265
 Alpha  occ. eigenvalues --   -0.86301  -0.78012  -0.67783  -0.57405  -0.52473
 Alpha  occ. eigenvalues --   -0.49685  -0.47329  -0.44190  -0.42441  -0.39176
 Alpha  occ. eigenvalues --   -0.38694  -0.33383
 Alpha virt. eigenvalues --    0.05585   0.06702   0.08019   0.08174   0.10704
 Alpha virt. eigenvalues --    0.11340   0.12822   0.14026   0.14467   0.15550
 Alpha virt. eigenvalues --    0.16557   0.16815   0.19236   0.19672   0.21993

 Mulliken charges:
               1
     1  C   -0.185659
     2  C   -0.102789
     3  H    0.063224
     4  H    0.026226
     5  H    0.065868
     6  C    0.001171
     7  H    0.025615
     8  H    0.105897
     9  C   -0.280907
    10  H    0.027972
    11  H    0.010341
    12  H   -0.020016
    13  H    0.057704
    14  H    0.205355
 Sum of Mulliken charges =   0.00000

 Dipole moment (field-independent basis, Debye):
    X=              0.3874    Y=             -0.2583    Z=              0.1566  Tot=              0.4912
 Quadrupole moment (field-independent basis, Debye-Ang):
   XX=            -29.3885   YY=            -29.2249   ZZ=            -28.0406
   XY=              1.1053   XZ=              1.8517   YZ=              0.4081

 Normal termination of Gaussian 09 at Wed Aug 26 13:18:03 2020.
