 Gaussian 09, Revision D.01,
 Gaussian 09:  ES64L-G09RevD.01 24-Apr-2013

 --------------------
 #p B2PLYPD3/Def2QZVP
 --------------------

 ----------
 butane_opt
 ----------
 Symbolic Z-matrix:
 Charge =  0 Multiplicity = 1

                         Standard orientation:
 ---------------------------------------------------------------------
 Center     Atomic      Atomic             Coordinates (Angstroms)
 Number     Number       Type             X           Y           Z
 ---------------------------------------------------------------------
      1          6           0        1.908306    0.023882   -0.190706
      2          6           0        0.600245   -0.448125    0.247729
      3          1           0        2.756627   -0.819714   -0.612210
      4          1           0        2.624697    0.722422    0.570195
      5          1           0        1.795903    0.685200   -1.070495
      6          6           0       -0.472959    0.700648    0.188856
      7          1           0        0.724394   -1.278766    1.479129
      8          1           0        0.336301   -1.083713   -0.420527
      9          6           0       -2.050896   -0.195638   -0.101680
     10          1           0       -0.217446    1.293208   -0.799253
     11          1           0       -0.590276    1.258263    1.001418
     12          1           0       -2.024654   -1.249972   -1.148359
     13          1           0       -2.836718    0.529142   -0.517216
     14          1           0       -2.477002   -0.540673    0.652126
 ---------------------------------------------------------------------

 SCF Done:  E(RB2PLYPD3) =  -157.905063628     A.U. after   11 cycles
 E2(B2PLYPD3) =    -0.2538380046D+00 E(B2PLYPD3) =    -0.15815890163283D+03

 The electronic state is 1-A.
 Alpha  occ. eigenvalues --  -10.64649 -10.64051 -10.63460 -10.63386  -0.90841
 Alpha  occ. eigenvalues --   -0.80709  -0.73633  -0.67267  -0.52964  -0.49413
 Alpha  occ. eigenvalues --   -0.47667  -0.45897  -0.42853  -0.38593  -0.37724
 Alpha  occ. eigenvalues --   -0.36154  -0.35066
 Alpha virt. eigenvalues --    0.04452   0.05036   0.05847   0.08280   0.10091
 Alpha virt. eigenvalues --    0.10602   0.11135   0.12951   0.13776   0.14749
 Alpha virt. eigenvalues --    0.15643   0.16482   0.18034   0.18770   0.20326

 Mulliken charges:
               1
     1  C   -0.143268
     2  C   -0.068767
     3  H    0.028365
     4  H    0.027542
     5  H    0.045421
     6  C   -0.072515
     7  H   -0.011414
     8  H    0.118043
     9  C   -0.205312
    10  H    0.046798
    11  H    0.080960
    12  H    0.002091
    13  H    0.043689
    14  H    0.108367
 Sum of Mulliken charges =   0.00000

 Dipole moment (field-independent basis, Debye):
    X=             -0.1788    Y=              0.5961    Z=             -0.1263  Tot=              0.6350
 Quadrupole moment (field-independent basis, Debye-Ang):
   XX=            -30.2480   YY=            -29.6978   ZZ=            -29.4156
   XY=             -0.2866   XZ=             -1.3510   YZ=              0.4414

 Normal termination of Gaussian 09 at Wed Aug 26 15:04:12 2020.
