 Gaussian 09, Revision D.01,
 Gaussian 09:  ES64L-G09RevD.01 24-Apr-2013

 --------------------
 #p B2PLYPD3/Def2QZVP
 --------------------

 ----------
 butane_opt
 ----------
 Symbolic Z-matrix:
 Charge =  0 Multiplicity = 1

                         Standard orientation:
 ---------------------------------------------------------------------
 Center     Atomic      Atomic             Coordinates (Angstroms)
 Number     Number       Type             X           Y           Z
 ---------------------------------------------------------------------
      1          6           0       -1.878876    0.060978   -0.110726
      2          6           0       -0.631571   -0.429772    0.091113
      3          1           0       -2.705577   -0.737311    0.163582
      4          1           0       -2.142949    0.990453   -1.094393
      5          1           0       -1.895330    0.391701    0.606186
      6          6           0        0.486184    0.555788    0.138713
      7          1           0       -0.392972   -0.970754   -0.890688
      8          1           0       -0.727126   -0.939997    0.884572
      9          6           0        2.018065   -0.142625   -0.096447
     10          1           0        0.571275    1.349122    1.150116
     11          1           0        0.299982    0.833545   -0.476603
     12          1           0        2.226455   -0.969310    0.954511
     13          1           0        2.873618    0.550165   -0.501953
     14          1           0        1.929817   -0.763828   -0.931255
 ---------------------------------------------------------------------

 SCF Done:  E(RB2PLYPD3) =  -157.607474487     A.U. after   11 cycles
 E2(B2PLYPD3) =    -0.2509843895D+00 E(B2PLYPD3) =    -0.15785845887689D+03

 The electronic state is 1-A.
 Alpha  occ. eigenvalues --  -10.63788 -10.59636 -10.58960 -10.58793  -0.98534
 Alpha  occ. eigenvalues --   -0.86758  -0.74491  -0.69010  -0.57949  -0.50052
 Alpha  occ. eigenvalues --   -0.49162  -0.47555  -0.41999  -0.40585  -0.39459
 Alpha  occ. eigenvalues --   -0.37556  -0.34283
 Alpha virt. eigenvalues --    0.05051   0.05881   0.07713   0.08169   0.10385
 Alpha virt. eigenvalues --    0.11111   0.12273   0.13017   0.13815   0.14492
 Alpha virt. eigenvalues --    0.15293   0.16909   0.18848   0.18976   0.21300

 Mulliken charges:
               1
     1  C   -0.405134
     2  C    0.004077
     3  H    0.048853
     4  H    0.027013
     5  H    0.293711
     6  C   -0.587766
     7  H    0.011584
     8  H    0.061602
     9  C   -0.163660
    10  H    0.029916
    11  H    0.529384
    12  H    0.028071
    13  H    0.054702
    14  H    0.067648
 Sum of Mulliken charges =   0.00000

 Dipole moment (field-independent basis, Debye):
    X=             -0.2929    Y=             -0.0410    Z=              0.0718  Tot=              0.3044
 Quadrupole moment (field-independent basis, Debye-Ang):
   XX=            -30.4268   YY=            -29.6346   ZZ=            -27.6153
   XY=              0.7048   XZ=             -2.0449   YZ=             -0.9063

 Normal termination of Gaussian 09 at Wed Aug 26 12:35:38 2020.
