 Gaussian 09, Revision D.01,
 Gaussian 09:  ES64L-G09RevD.01 24-Apr-2013

 --------------------
 #p B2PLYPD3/Def2QZVP
 --------------------

 ----------
 butane_opt
 ----------
 Symbolic Z-matrix:
 Charge =  0 Multiplicity = 1

                         Standard orientation:
 ---------------------------------------------------------------------
 Center     Atomic      Atomic             Coordinates (Angstroms)
 Number     Number       Type             X           Y           Z
 ---------------------------------------------------------------------
      1          6           0       -1.870995    0.037124   -0.074565
      2          6           0       -0.574988   -0.433635    0.089187
      3          1           0       -2.742434   -0.794734   -0.145230
      4          1           0       -2.052557    0.739367   -1.091543
      5          1           0       -2.276495    0.701736    0.846960
      6          6           0        0.490837    0.604664    0.120504
      7          1           0       -0.553612   -0.960833   -0.706343
      8          1           0       -0.640174   -1.098059    0.899166
      9          6           0        2.019868   -0.177344   -0.184433
     10          1           0        0.713181    1.345812    1.161898
     11          1           0        0.148731    0.899530   -0.578965
     12          1           0        2.433867   -1.082965    1.058966
     13          1           0        2.692025    0.509177   -0.403920
     14          1           0        1.889139   -0.443883   -0.745146
 ---------------------------------------------------------------------

 SCF Done:  E(RB2PLYPD3) =  -157.490975030     A.U. after   12 cycles
 E2(B2PLYPD3) =    -0.2517775442D+00 E(B2PLYPD3) =    -0.15774275257409D+03

 The electronic state is 1-A.
 Alpha  occ. eigenvalues --  -10.63073 -10.61143 -10.60621 -10.57969  -0.96170
 Alpha  occ. eigenvalues --   -0.87980  -0.77946  -0.67116  -0.57074  -0.53327
 Alpha  occ. eigenvalues --   -0.49972  -0.46260  -0.44246  -0.39184  -0.37882
 Alpha  occ. eigenvalues --   -0.36597  -0.35044
 Alpha virt. eigenvalues --    0.03731   0.05698   0.08056   0.08327   0.09459
 Alpha virt. eigenvalues --    0.10819   0.11536   0.13033   0.13457   0.15389
 Alpha virt. eigenvalues --    0.15819   0.17116   0.18603   0.19745   0.21222

 Mulliken charges:
               1
     1  C   -0.153612
     2  C   -0.031017
     3  H    0.039492
     4  H    0.014086
     5  H    0.030024
     6  C   -0.260349
     7  H    0.073537
     8  H    0.039214
     9  C   -0.673546
    10  H    0.047420
    11  H    0.241637
    12  H    0.017283
    13  H    0.082017
    14  H    0.533813
 Sum of Mulliken charges =   0.00000

 Dipole moment (field-independent basis, Debye):
    X=             -0.0936    Y=             -0.1073    Z=             -0.5102  Tot=              0.5297
 Quadrupole moment (field-independent basis, Debye-Ang):
   XX=            -30.2692   YY=            -29.5493   ZZ=            -27.6834
   XY=              1.5256   XZ=             -0.5466   YZ=             -0.0676

 Normal termination of Gaussian 09 at Wed Aug 26 13:32:37 2020.
