 Gaussian 09, Revision D.01,
 Gaussian 09:  ES64L-G09RevD.01 24-Apr-2013

 --------------------
 #p B2PLYPD3/Def2QZVP
 --------------------

 ----------
 butane_opt
 ----------
 Symbolic Z-matrix:
 Charge =  0 Multiplicity = 1

                         Standard orientation:
 ---------------------------------------------------------------------
 Center     Atomic      Atomic             Coordinates (Angstroms)
 Number     Number       Type             X           Y           Z
 ---------------------------------------------------------------------
      1          6           0       -1.891160   -0.071665   -0.132715
      2          6           0       -0.648437    0.433103    0.032607
      3          1           0       -2.655062    0.882010    0.043671
      4          1           0       -1.985483   -0.453408    0.537867
      5          1           0       -1.878845   -1.099457   -1.245907
      6          6           0        0.503301   -0.598964    0.287430
      7          1           0       -0.669547    1.395384    1.024777
      8          1           0       -0.276291    0.766725   -0.728410
      9          6           0        1.921224    0.147492   -0.139927
     10          1           0        0.412757   -0.852728   -0.245548
     11          1           0        0.443988   -1.158238    1.357530
     12          1           0        1.867630    0.689115   -1.071885
     13          1           0        2.664175   -0.539530   -0.718028
     14          1           0        2.767108    0.910333    0.761556
 ---------------------------------------------------------------------

 SCF Done:  E(RB2PLYPD3) =  -157.275444983     A.U. after   12 cycles
 E2(B2PLYPD3) =    -0.2543447557D+00 E(B2PLYPD3) =    -0.15752978973871D+03

 The electronic state is 1-A.
 Alpha  occ. eigenvalues --  -10.64802 -10.60984 -10.60938 -10.60605  -0.98121
 Alpha  occ. eigenvalues --   -0.88355  -0.74521  -0.71055  -0.56538  -0.50704
 Alpha  occ. eigenvalues --   -0.49465  -0.47004  -0.41880  -0.40474  -0.38507
 Alpha  occ. eigenvalues --   -0.36521  -0.34003
 Alpha virt. eigenvalues --    0.03706   0.04769   0.05382   0.08134   0.10055
 Alpha virt. eigenvalues --    0.10737   0.11622   0.12684   0.13882   0.14600
 Alpha virt. eigenvalues --    0.15190   0.16192   0.18478   0.19116   0.21017

 Mulliken charges:
               1
     1  C   -0.361577
     2  C   -0.022757
     3  H    0.060804
     4  H    0.300090
     5  H   -0.000817
     6  C   -0.946299
     7  H   -0.010173
     8  H    0.108218
     9  C   -0.134850
    10  H    0.820381
    11  H    0.075490
    12  H    0.051536
    13  H    0.029317
    14  H    0.030638
 Sum of Mulliken charges =   0.00000

 Dipole moment (field-independent basis, Debye):
    X=             -0.1619    Y=             -0.2062    Z=             -0.1251  Tot=              0.2905
 Quadrupole moment (field-independent basis, Debye-Ang):
   XX=            -31.1263   YY=            -29.9093   ZZ=            -27.8510
   XY=             -0.4169   XZ=             -2.3942   YZ=              0.0096

 Normal termination of Gaussian 09 at Wed Aug 26 11:29:21 2020.
