 Gaussian 09, Revision D.01,
 Gaussian 09:  ES64L-G09RevD.01 24-Apr-2013

 --------------------
 #p B2PLYPD3/Def2QZVP
 --------------------

 ----------
 butane_opt
 ----------
 Symbolic Z-matrix:
 Charge =  0 Multiplicity = 1

                         Standard orientation:
 ---------------------------------------------------------------------
 Center     Atomic      Atomic             Coordinates (Angstroms)
 Number     Number       Type             X           Y           Z
 ---------------------------------------------------------------------
      1          6           0       -1.961343    0.144196    0.033803
      2          6           0       -0.568953   -0.563869   -0.033961
      3          1           0       -2.755042   -0.493262   -0.497721
      4          1           0       -1.745645    0.268070   -0.574728
      5          1           0       -2.649788    1.489883    1.183568
      6          6           0        0.620537    0.369277   -0.202422
      7          1           0       -0.309191   -1.135967   -0.676119
      8          1           0       -0.423012   -1.219644    1.075977
      9          6           0        1.904621   -0.061485    0.160630
     10          1           0        0.332518    0.982359    0.408003
     11          1           0        0.630306    1.032301   -1.124872
     12          1           0        1.920948   -0.587706    1.069641
     13          1           0        2.896632    0.950832    0.041705
     14          1           0        2.133102   -0.615586   -0.653748
 ---------------------------------------------------------------------

 SCF Done:  E(RB2PLYPD3) =  -157.444595659     A.U. after   12 cycles
 E2(B2PLYPD3) =    -0.2575378858D+00 E(B2PLYPD3) =    -0.15770213354526D+03

 The electronic state is 1-A.
 Alpha  occ. eigenvalues --  -10.62792 -10.62609 -10.61135 -10.57988  -0.97549
 Alpha  occ. eigenvalues --   -0.90391  -0.76811  -0.69601  -0.56968  -0.49988
 Alpha  occ. eigenvalues --   -0.49647  -0.46460  -0.43797  -0.39995  -0.36817
 Alpha  occ. eigenvalues --   -0.35245  -0.34056
 Alpha virt. eigenvalues --   -0.03000   0.05004   0.06798   0.07295   0.10273
 Alpha virt. eigenvalues --    0.10292   0.11807   0.12771   0.14828   0.15163
 Alpha virt. eigenvalues --    0.15724   0.16426   0.17902   0.19070   0.19896

 Mulliken charges:
               1
     1  C   -0.797398
     2  C   -0.100277
     3  H    0.078390
     4  H    0.644653
     5  H    0.048080
     6  C   -0.108573
     7  H    0.136325
     8  H   -0.004341
     9  C   -0.149092
    10  H    0.111420
    11  H    0.007706
    12  H    0.073818
    13  H    0.005996
    14  H    0.053293
 Sum of Mulliken charges =   0.00000

 Dipole moment (field-independent basis, Debye):
    X=             -0.0921    Y=             -0.0804    Z=             -0.7891  Tot=              0.7985
 Quadrupole moment (field-independent basis, Debye-Ang):
   XX=            -31.1349   YY=            -29.5024   ZZ=            -28.1106
   XY=             -0.7179   XZ=              0.5375   YZ=              0.9976

 Normal termination of Gaussian 09 at Wed Aug 26 21:57:46 2020.
