 Gaussian 09, Revision D.01,
 Gaussian 09:  ES64L-G09RevD.01 24-Apr-2013

 --------------------
 #p B2PLYPD3/Def2QZVP
 --------------------

 ----------
 butane_opt
 ----------
 Symbolic Z-matrix:
 Charge =  0 Multiplicity = 1

                         Standard orientation:
 ---------------------------------------------------------------------
 Center     Atomic      Atomic             Coordinates (Angstroms)
 Number     Number       Type             X           Y           Z
 ---------------------------------------------------------------------
      1          6           0        2.006477    0.056001   -0.087039
      2          6           0        0.557723   -0.393020    0.101791
      3          1           0        2.728944   -0.860134   -0.335553
      4          1           0        2.084731    0.590587    0.714505
      5          1           0        1.808415    0.930682   -1.126531
      6          6           0       -0.541132    0.562807    0.205789
      7          1           0        0.458443   -1.304740    1.119050
      8          1           0        0.709557   -1.047769   -0.682192
      9          6           0       -1.975536   -0.154566   -0.175248
     10          1           0       -0.378017    0.897310   -0.445026
     11          1           0       -0.506575    1.503210    1.198634
     12          1           0       -1.805944   -0.563185   -0.910288
     13          1           0       -2.723656    0.498736   -0.770596
     14          1           0       -2.661094   -1.072031    0.966236
 ---------------------------------------------------------------------

 SCF Done:  E(RB2PLYPD3) =  -157.660124041     A.U. after   11 cycles
 E2(B2PLYPD3) =    -0.2552545376D+00 E(B2PLYPD3) =    -0.15791537857842D+03

 The electronic state is 1-A.
 Alpha  occ. eigenvalues --  -10.63750 -10.63452 -10.62490 -10.61643  -0.95202
 Alpha  occ. eigenvalues --   -0.85152  -0.77151  -0.66839  -0.55882  -0.51276
 Alpha  occ. eigenvalues --   -0.47449  -0.44574  -0.43699  -0.40787  -0.37452
 Alpha  occ. eigenvalues --   -0.35465  -0.33689
 Alpha virt. eigenvalues --    0.03153   0.04921   0.06782   0.07239   0.08752
 Alpha virt. eigenvalues --    0.10559   0.11488   0.12423   0.13925   0.14282
 Alpha virt. eigenvalues --    0.15620   0.16578   0.17823   0.19003   0.19579

 Mulliken charges:
               1
     1  C   -0.180640
     2  C   -0.028966
     3  H    0.083894
     4  H    0.091566
     5  H   -0.001564
     6  C   -0.471244
     7  H   -0.027142
     8  H    0.043828
     9  C   -0.261790
    10  H    0.456130
    11  H    0.039372
    12  H    0.193302
    13  H    0.038310
    14  H    0.024944
 Sum of Mulliken charges =   0.00000

 Dipole moment (field-independent basis, Debye):
    X=              0.4227    Y=              0.1727    Z=             -0.9310  Tot=              1.0370
 Quadrupole moment (field-independent basis, Debye-Ang):
   XX=            -31.1221   YY=            -29.9543   ZZ=            -28.7577
   XY=             -1.4326   XZ=              1.2050   YZ=              0.6866

 Normal termination of Gaussian 09 at Wed Aug 26 22:54:28 2020.
