 Gaussian 09, Revision D.01,
 Gaussian 09:  ES64L-G09RevD.01 24-Apr-2013

 --------------------
 #p B2PLYPD3/Def2QZVP
 --------------------

 ----------
 butane_opt
 ----------
 Symbolic Z-matrix:
 Charge =  0 Multiplicity = 1

                         Standard orientation:
 ---------------------------------------------------------------------
 Center     Atomic      Atomic             Coordinates (Angstroms)
 Number     Number       Type             X           Y           Z
 ---------------------------------------------------------------------
      1          6           0        1.939010    0.087856   -0.137163
      2          6           0        0.546918   -0.363348    0.280358
      3          1           0        2.913217   -0.897693   -0.477218
      4          1           0        2.286289    0.784946    0.733045
      5          1           0        1.544694    0.420996   -1.017117
      6          6           0       -0.508022    0.577084    0.006087
      7          1           0        0.693625   -1.125480    1.386428
      8          1           0        0.187272   -1.151987   -0.580408
      9          6           0       -1.934561   -0.208284   -0.094934
     10          1           0       -0.320349    1.133605   -0.935645
     11          1           0       -0.592866    1.326705    0.714717
     12          1           0       -2.126645   -1.094753   -0.965376
     13          1           0       -2.793637    0.552987    0.311421
     14          1           0       -2.051666   -0.509172    0.504066
 ---------------------------------------------------------------------

 SCF Done:  E(RB2PLYPD3) =  -157.689636112     A.U. after   11 cycles
 E2(B2PLYPD3) =    -0.2539131792D+00 E(B2PLYPD3) =    -0.15794354929125D+03

 The electronic state is 1-A.
 Alpha  occ. eigenvalues --  -10.64114 -10.63353 -10.61824 -10.59747  -0.93678
 Alpha  occ. eigenvalues --   -0.86304  -0.76219  -0.64503  -0.55437  -0.50412
 Alpha  occ. eigenvalues --   -0.47577  -0.46460  -0.43242  -0.41444  -0.37492
 Alpha  occ. eigenvalues --   -0.35603  -0.34719
 Alpha virt. eigenvalues --    0.04495   0.05671   0.06871   0.07855   0.09439
 Alpha virt. eigenvalues --    0.11034   0.11972   0.13202   0.14336   0.14984
 Alpha virt. eigenvalues --    0.15308   0.16232   0.17938   0.19483   0.20668

 Mulliken charges:
               1
     1  C   -0.173653
     2  C   -0.070171
     3  H    0.021866
     4  H    0.062694
     5  H    0.072754
     6  C    0.029653
     7  H    0.016627
     8  H    0.023156
     9  C   -0.640407
    10  H    0.037768
    11  H    0.033270
    12  H    0.071733
    13  H    0.029028
    14  H    0.485680
 Sum of Mulliken charges =   0.00000

 Dipole moment (field-independent basis, Debye):
    X=             -0.2738    Y=              0.1796    Z=              0.2518  Tot=              0.4131
 Quadrupole moment (field-independent basis, Debye-Ang):
   XX=            -31.5273   YY=            -29.4227   ZZ=            -28.6512
   XY=              0.4317   XZ=             -0.5775   YZ=              0.9798

 Normal termination of Gaussian 09 at Wed Aug 26 16:16:10 2020.
