 Gaussian 09, Revision D.01,
 Gaussian 09:  ES64L-G09RevD.01 24-Apr-2013

 --------------------
 #p B2PLYPD3/Def2QZVP
 --------------------

 ----------
 butane_opt
 ----------
 Symbolic Z-matrix:
 Charge =  0 Multiplicity = 1

                         Standard orientation:
 ---------------------------------------------------------------------
 Center     Atomic      Atomic             Coordinates (Angstroms)
 Number     Number       Type             X           Y           Z
 ---------------------------------------------------------------------
      1          6           0       -1.971233   -0.141452   -0.111391
      2          6           0       -0.515401    0.552325    0.185112
      3          1           0       -2.735850    0.611288   -0.285329
      4          1           0       -2.273144   -0.802962    0.767813
      5          1           0       -1.869632   -0.705450   -0.944012
      6          6           0        0.552035   -0.502424    0.063374
      7          1           0       -0.510430    1.206626    1.040371
      8          1           0       -0.313212    1.160859   -0.667866
      9          6           0        1.913927    0.120706   -0.106875
     10          1           0        0.396888   -1.107578   -0.822580
     11          1           0        0.564903   -1.154434    0.959881
     12          1           0        2.096230    0.820247   -1.005886
     13          1           0        2.677495   -0.650186    0.108681
     14          1           0        2.090784    0.446660    0.667601
 ---------------------------------------------------------------------

 SCF Done:  E(RB2PLYPD3) =  -158.040042279     A.U. after   11 cycles
 E2(B2PLYPD3) =    -0.2465082777D+00 E(B2PLYPD3) =    -0.15828655055643D+03

 The electronic state is 1-A.
 Alpha  occ. eigenvalues --  -10.60261 -10.60074 -10.59725 -10.57374  -0.91839
 Alpha  occ. eigenvalues --   -0.83578  -0.74274  -0.67236  -0.55168  -0.49630
 Alpha  occ. eigenvalues --   -0.48076  -0.47431  -0.43359  -0.42612  -0.38998
 Alpha  occ. eigenvalues --   -0.37676  -0.36246
 Alpha virt. eigenvalues --    0.05879   0.06990   0.08350   0.08776   0.10896
 Alpha virt. eigenvalues --    0.12243   0.12876   0.14169   0.14889   0.15656
 Alpha virt. eigenvalues --    0.15811   0.16627   0.19405   0.19845   0.21848

 Mulliken charges:
               1
     1  C   -0.162075
     2  C   -0.070581
     3  H    0.043334
     4  H    0.037062
     5  H    0.066596
     6  C   -0.018227
     7  H    0.042190
     8  H    0.033299
     9  C   -0.237629
    10  H    0.043595
    11  H    0.021392
    12  H    0.051717
    13  H    0.024284
    14  H    0.125043
 Sum of Mulliken charges =   0.00000

 Dipole moment (field-independent basis, Debye):
    X=              0.1506    Y=              0.1279    Z=              0.1305  Tot=              0.2368
 Quadrupole moment (field-independent basis, Debye-Ang):
   XX=            -29.8078   YY=            -28.8440   ZZ=            -27.5554
   XY=             -0.1235   XZ=              0.7389   YZ=             -0.3210

 Normal termination of Gaussian 09 at Wed Aug 26 15:27:41 2020.
