 Gaussian 09, Revision D.01,
 Gaussian 09:  ES64L-G09RevD.01 24-Apr-2013

 --------------------
 #p B2PLYPD3/Def2QZVP
 --------------------

 ----------
 butane_opt
 ----------
 Symbolic Z-matrix:
 Charge =  0 Multiplicity = 1

                         Standard orientation:
 ---------------------------------------------------------------------
 Center     Atomic      Atomic             Coordinates (Angstroms)
 Number     Number       Type             X           Y           Z
 ---------------------------------------------------------------------
      1          6           0        2.034884    0.046239    0.025921
      2          6           0        0.592554   -0.537484   -0.124371
      3          1           0        2.750181   -0.631831    0.125454
      4          1           0        2.014545    0.666477    0.932912
      5          1           0        2.109269    0.906532   -0.933459
      6          6           0       -0.561002    0.615409    0.058790
      7          1           0        0.508769   -1.301305    0.770936
      8          1           0        0.273998   -0.884817   -1.001580
      9          6           0       -1.979852   -0.155774    0.000653
     10          1           0       -0.628473    1.130106   -0.622045
     11          1           0       -0.410681    1.306287    1.042137
     12          1           0       -1.992213   -0.447528   -0.583531
     13          1           0       -2.658949    0.392766   -0.482888
     14          1           0       -2.485952   -0.947027    0.986099
 ---------------------------------------------------------------------

 SCF Done:  E(RB2PLYPD3) =  -157.624793049     A.U. after   11 cycles
 E2(B2PLYPD3) =    -0.2489735499D+00 E(B2PLYPD3) =    -0.15787376659934D+03

 The electronic state is 1-A.
 Alpha  occ. eigenvalues --  -10.61485 -10.61307 -10.60616 -10.57797  -0.93455
 Alpha  occ. eigenvalues --   -0.86318  -0.77389  -0.68994  -0.53643  -0.50801
 Alpha  occ. eigenvalues --   -0.48015  -0.46651  -0.42717  -0.41235  -0.39916
 Alpha  occ. eigenvalues --   -0.36979  -0.35660
 Alpha virt. eigenvalues --    0.05263   0.06392   0.08335   0.08761   0.10502
 Alpha virt. eigenvalues --    0.11248   0.12503   0.13663   0.14611   0.14914
 Alpha virt. eigenvalues --    0.16199   0.17200   0.18962   0.19609   0.20824

 Mulliken charges:
               1
     1  C   -0.152748
     2  C   -0.085200
     3  H    0.071751
     4  H    0.057813
     5  H    0.012796
     6  C   -0.106362
     7  H    0.028500
     8  H    0.067223
     9  C   -0.667861
    10  H    0.158314
    11  H    0.018687
    12  H    0.515647
    13  H    0.022836
    14  H    0.058603
 Sum of Mulliken charges =   0.00000

 Dipole moment (field-independent basis, Debye):
    X=             -0.0360    Y=             -0.1104    Z=             -0.5342  Tot=              0.5467
 Quadrupole moment (field-independent basis, Debye-Ang):
   XX=            -29.7082   YY=            -29.0158   ZZ=            -27.4644
   XY=             -0.4033   XZ=              2.2619   YZ=             -0.6659

 Normal termination of Gaussian 09 at Wed Aug 26 19:55:07 2020.
