 Gaussian 09, Revision D.01,
 Gaussian 09:  ES64L-G09RevD.01 24-Apr-2013

 --------------------
 #p B2PLYPD3/Def2QZVP
 --------------------

 ----------
 butane_opt
 ----------
 Symbolic Z-matrix:
 Charge =  0 Multiplicity = 1

                         Standard orientation:
 ---------------------------------------------------------------------
 Center     Atomic      Atomic             Coordinates (Angstroms)
 Number     Number       Type             X           Y           Z
 ---------------------------------------------------------------------
      1          6           0       -1.961196    0.024489   -0.232042
      2          6           0       -0.599502   -0.456757    0.302314
      3          1           0       -2.808935   -0.843986   -0.544647
      4          1           0       -1.535104    0.375394   -1.133629
      5          1           0       -2.356080    1.222391    0.781637
      6          6           0        0.510350    0.649090    0.077062
      7          1           0       -0.376947   -0.883902   -0.211812
      8          1           0       -0.726933   -1.293931    1.638082
      9          6           0        1.952657   -0.222838   -0.127536
     10          1           0        0.883858    1.702836    0.868030
     11          1           0        0.235625    1.074510   -0.793387
     12          1           0        2.541599   -0.551749    0.610094
     13          1           0        2.763448    0.286921   -0.266751
     14          1           0        1.965621   -1.052386   -1.066398
 ---------------------------------------------------------------------

 SCF Done:  E(RB2PLYPD3) =  -157.609691673     A.U. after   11 cycles
 E2(B2PLYPD3) =    -0.2570962968D+00 E(B2PLYPD3) =    -0.15786678797022D+03

 The electronic state is 1-A.
 Alpha  occ. eigenvalues --  -10.66598 -10.66015 -10.62720 -10.60492  -0.94541
 Alpha  occ. eigenvalues --   -0.83978  -0.74687  -0.70300  -0.52098  -0.49797
 Alpha  occ. eigenvalues --   -0.47505  -0.46157  -0.41835  -0.39156  -0.37226
 Alpha  occ. eigenvalues --   -0.35945  -0.35116
 Alpha virt. eigenvalues --    0.02100   0.05092   0.05726   0.07123   0.08561
 Alpha virt. eigenvalues --    0.10300   0.11764   0.13096   0.13846   0.14684
 Alpha virt. eigenvalues --    0.15837   0.16654   0.17877   0.18400   0.19761

 Mulliken charges:
               1
     1  C   -0.152432
     2  C   -0.578810
     3  H    0.063719
     4  H    0.072094
     5  H    0.021414
     6  C   -0.066570
     7  H    0.562692
     8  H   -0.003351
     9  C   -0.142516
    10  H    0.021642
    11  H    0.092858
    12  H    0.048890
    13  H    0.049843
    14  H    0.010525
 Sum of Mulliken charges =   0.00000

 Dipole moment (field-independent basis, Debye):
    X=              0.7040    Y=             -0.0258    Z=             -0.9282  Tot=              1.1653
 Quadrupole moment (field-independent basis, Debye-Ang):
   XX=            -29.2179   YY=            -30.0811   ZZ=            -29.8020
   XY=              1.7465   XZ=              1.5715   YZ=              1.1208

 Normal termination of Gaussian 09 at Wed Aug 26 12:32:11 2020.
