 Gaussian 09, Revision D.01,
 Gaussian 09:  ES64L-G09RevD.01 24-Apr-2013

 --------------------
 #p B2PLYPD3/Def2QZVP
 --------------------

 ----------
 butane_opt
 ----------
 Symbolic Z-matrix:
 Charge =  0 Multiplicity = 1

                         Standard orientation:
 ---------------------------------------------------------------------
 Center     Atomic      Atomic             Coordinates (Angstroms)
 Number     Number       Type             X           Y           Z
 ---------------------------------------------------------------------
      1          6           0       -1.997919   -0.171369   -0.108880
      2          6           0       -0.527976    0.580379    0.143379
      3          1           0       -2.605061    0.266937   -0.811065
      4          1           0       -2.764803   -0.733807    0.789268
      5          1           0       -1.777596   -0.687243   -0.890195
      6          6           0        0.634980   -0.437296    0.149502
      7          1           0       -0.624748    1.643391    1.276924
      8          1           0       -0.251584    0.837743   -0.650408
      9          6           0        1.920793    0.041892   -0.176945
     10          1           0        0.473708   -1.018674   -0.521940
     11          1           0        0.754041   -1.279045    1.379779
     12          1           0        1.819874    0.706354   -1.250110
     13          1           0        2.827926   -0.638361   -0.034395
     14          1           0        1.968974    0.821070    0.669805
 ---------------------------------------------------------------------

 SCF Done:  E(RB2PLYPD3) =  -157.795938066     A.U. after   11 cycles
 E2(B2PLYPD3) =    -0.2548794257D+00 E(B2PLYPD3) =    -0.15805081749201D+03

 The electronic state is 1-A.
 Alpha  occ. eigenvalues --  -10.64825 -10.62792 -10.62258 -10.61477  -0.95008
 Alpha  occ. eigenvalues --   -0.85172  -0.75931  -0.67056  -0.53716  -0.51563
 Alpha  occ. eigenvalues --   -0.47390  -0.46372  -0.42077  -0.40667  -0.38542
 Alpha  occ. eigenvalues --   -0.35205  -0.33957
 Alpha virt. eigenvalues --    0.03736   0.05826   0.06238   0.06531   0.10143
 Alpha virt. eigenvalues --    0.11214   0.11591   0.12242   0.13852   0.15067
 Alpha virt. eigenvalues --    0.15978   0.16544   0.17578   0.18643   0.20457

 Mulliken charges:
               1
     1  C   -0.170216
     2  C   -0.225004
     3  H    0.045850
     4  H    0.058368
     5  H    0.067394
     6  C   -0.101566
     7  H    0.013001
     8  H    0.225282
     9  C   -0.160816
    10  H    0.137386
    11  H   -0.044140
    12  H    0.020921
    13  H    0.079904
    14  H    0.053636
 Sum of Mulliken charges =   0.00000

 Dipole moment (field-independent basis, Debye):
    X=             -0.0697    Y=             -0.2312    Z=             -1.1347  Tot=              1.1601
 Quadrupole moment (field-independent basis, Debye-Ang):
   XX=            -28.9330   YY=            -31.3090   ZZ=            -28.5771
   XY=             -0.1603   XZ=              0.6581   YZ=              0.3979

 Normal termination of Gaussian 09 at Wed Aug 26 22:57:46 2020.
