 Gaussian 09, Revision D.01,
 Gaussian 09:  ES64L-G09RevD.01 24-Apr-2013

 --------------------
 #p B2PLYPD3/Def2QZVP
 --------------------

 ----------
 butane_opt
 ----------
 Symbolic Z-matrix:
 Charge =  0 Multiplicity = 1

                         Standard orientation:
 ---------------------------------------------------------------------
 Center     Atomic      Atomic             Coordinates (Angstroms)
 Number     Number       Type             X           Y           Z
 ---------------------------------------------------------------------
      1          6           0       -1.887645    0.095689    0.077438
      2          6           0       -0.559887   -0.466522   -0.046455
      3          1           0       -2.685832   -0.740509   -0.435782
      4          1           0       -1.742804    0.350597   -0.525428
      5          1           0       -2.267919    0.972487    1.090779
      6          6           0        0.508689    0.559822   -0.110918
      7          1           0       -0.661015   -1.087671   -0.929646
      8          1           0       -0.355972   -1.207470    0.857551
      9          6           0        1.959693   -0.122946    0.084836
     10          1           0        0.330511    1.095972    0.712587
     11          1           0        0.312229    1.180730   -1.004735
     12          1           0        2.053628   -0.897719    1.016667
     13          1           0        2.620035    0.538781   -0.073913
     14          1           0        2.272034   -0.601456   -0.737486
 ---------------------------------------------------------------------

 SCF Done:  E(RB2PLYPD3) =  -157.686524072     A.U. after   11 cycles
 E2(B2PLYPD3) =    -0.2499581182D+00 E(B2PLYPD3) =    -0.15793648218973D+03

 The electronic state is 1-A.
 Alpha  occ. eigenvalues --  -10.60782 -10.60304 -10.59311 -10.59215  -0.96870
 Alpha  occ. eigenvalues --   -0.86562  -0.76596  -0.66678  -0.55175  -0.50142
 Alpha  occ. eigenvalues --   -0.48814  -0.47274  -0.43163  -0.41083  -0.39019
 Alpha  occ. eigenvalues --   -0.36812  -0.36139
 Alpha virt. eigenvalues --    0.05214   0.06405   0.07590   0.08004   0.10553
 Alpha virt. eigenvalues --    0.11959   0.12497   0.13405   0.14313   0.15465
 Alpha virt. eigenvalues --    0.16223   0.16520   0.18363   0.20107   0.21679

 Mulliken charges:
               1
     1  C   -0.789941
     2  C    0.025820
     3  H    0.050289
     4  H    0.604106
     5  H    0.054129
     6  C   -0.074470
     7  H    0.037632
     8  H    0.002020
     9  C   -0.140886
    10  H    0.070321
    11  H    0.027607
    12  H    0.053885
    13  H    0.049634
    14  H    0.029854
 Sum of Mulliken charges =   0.00000

 Dipole moment (field-independent basis, Debye):
    X=              0.4913    Y=              0.2530    Z=             -0.5747  Tot=              0.7973
 Quadrupole moment (field-independent basis, Debye-Ang):
   XX=            -30.1322   YY=            -29.0266   ZZ=            -27.6577
   XY=             -0.2048   XZ=              0.0610   YZ=              0.3355

 Normal termination of Gaussian 09 at Wed Aug 26 21:54:24 2020.
