 Gaussian 09, Revision D.01,
 Gaussian 09:  ES64L-G09RevD.01 24-Apr-2013

 --------------------
 #p B2PLYPD3/Def2QZVP
 --------------------

 ----------
 butane_opt
 ----------
 Symbolic Z-matrix:
 Charge =  0 Multiplicity = 1

                         Standard orientation:
 ---------------------------------------------------------------------
 Center     Atomic      Atomic             Coordinates (Angstroms)
 Number     Number       Type             X           Y           Z
 ---------------------------------------------------------------------
      1          6           0       -1.938910    0.082496   -0.071877
      2          6           0       -0.621021   -0.454156    0.049086
      3          1           0       -2.695590   -0.737279   -0.032158
      4          1           0       -1.970679    0.794745   -0.976422
      5          1           0       -2.117113    0.726314    0.776111
      6          6           0        0.563340    0.539454    0.093694
      7          1           0       -0.459992   -1.022506   -0.699732
      8          1           0       -0.485175   -1.255775    1.010097
      9          6           0        1.997200   -0.166551   -0.034507
     10          1           0        0.506864    1.354216    1.017794
     11          1           0        0.384265    1.092673   -0.757041
     12          1           0        2.296260   -0.698606    0.735127
     13          1           0        2.719304    0.498990   -0.354757
     14          1           0        1.818194   -0.760222   -0.937398
 ---------------------------------------------------------------------

 SCF Done:  E(RB2PLYPD3) =  -158.060265880     A.U. after   11 cycles
 E2(B2PLYPD3) =    -0.2468392058D+00 E(B2PLYPD3) =    -0.15830710508589D+03

 The electronic state is 1-A.
 Alpha  occ. eigenvalues --  -10.61731 -10.60128 -10.59836 -10.58735  -0.92008
 Alpha  occ. eigenvalues --   -0.84103  -0.73561  -0.66721  -0.53952  -0.50229
 Alpha  occ. eigenvalues --   -0.49232  -0.48683  -0.43842  -0.41634  -0.38724
 Alpha  occ. eigenvalues --   -0.37547  -0.35910
 Alpha virt. eigenvalues --    0.05810   0.06972   0.07908   0.08619   0.10900
 Alpha virt. eigenvalues --    0.12102   0.12864   0.13816   0.14758   0.15565
 Alpha virt. eigenvalues --    0.15791   0.16288   0.19164   0.19973   0.22124

 Mulliken charges:
               1
     1  C   -0.144345
     2  C   -0.046042
     3  H    0.055874
     4  H    0.032110
     5  H    0.049492
     6  C   -0.068593
     7  H    0.072645
     8  H   -0.015233
     9  C   -0.145153
    10  H    0.006418
    11  H    0.052700
    12  H    0.068133
    13  H    0.046883
    14  H    0.035111
 Sum of Mulliken charges =   0.00000

 Dipole moment (field-independent basis, Debye):
    X=              0.0998    Y=             -0.0404    Z=             -0.3551  Tot=              0.3711
 Quadrupole moment (field-independent basis, Debye-Ang):
   XX=            -29.0739   YY=            -29.1032   ZZ=            -28.4214
   XY=              0.3432   XZ=              0.0025   YZ=             -0.1686

 Normal termination of Gaussian 09 at Wed Aug 26 12:26:36 2020.
