 Gaussian 09, Revision D.01,
 Gaussian 09:  ES64L-G09RevD.01 24-Apr-2013

 --------------------
 #p B2PLYPD3/Def2QZVP
 --------------------

 ----------
 butane_opt
 ----------
 Symbolic Z-matrix:
 Charge =  0 Multiplicity = 1

                         Standard orientation:
 ---------------------------------------------------------------------
 Center     Atomic      Atomic             Coordinates (Angstroms)
 Number     Number       Type             X           Y           Z
 ---------------------------------------------------------------------
      1          6           0       -1.954599    0.117503   -0.093456
      2          6           0       -0.591041   -0.507538    0.157857
      3          1           0       -2.860071   -0.743168   -0.570755
      4          1           0       -1.799867    0.561965   -0.814328
      5          1           0       -2.493797    0.871048    0.633343
      6          6           0        0.526996    0.530930    0.140141
      7          1           0       -0.466725   -1.077124   -0.592670
      8          1           0       -0.702415   -1.130494    0.916835
      9          6           0        2.075197   -0.153952   -0.096254
     10          1           0        0.703080    1.237630    1.081120
     11          1           0        0.038620    1.178200   -0.672817
     12          1           0        2.257109   -0.895552    0.837258
     13          1           0        2.900681    0.643246   -0.608886
     14          1           0        2.084074   -0.567403   -0.858829
 ---------------------------------------------------------------------

 SCF Done:  E(RB2PLYPD3) =  -157.894288249     A.U. after   11 cycles
 E2(B2PLYPD3) =    -0.2496782485D+00 E(B2PLYPD3) =    -0.15814396649737D+03

 The electronic state is 1-A.
 Alpha  occ. eigenvalues --  -10.63692 -10.61787 -10.60259 -10.58273  -0.92341
 Alpha  occ. eigenvalues --   -0.83014  -0.75088  -0.69129  -0.55148  -0.50485
 Alpha  occ. eigenvalues --   -0.47150  -0.45634  -0.43014  -0.40625  -0.38767
 Alpha  occ. eigenvalues --   -0.37779  -0.36335
 Alpha virt. eigenvalues --    0.05166   0.05820   0.08385   0.09037   0.10667
 Alpha virt. eigenvalues --    0.11430   0.11919   0.12555   0.14052   0.15702
 Alpha virt. eigenvalues --    0.16247   0.17204   0.18752   0.19057   0.20961

 Mulliken charges:
               1
     1  C   -0.271546
     2  C   -0.022921
     3  H    0.007818
     4  H    0.155946
     5  H    0.049549
     6  C   -0.070266
     7  H    0.068921
     8  H    0.033024
     9  C   -0.250891
    10  H    0.037098
    11  H    0.026136
    12  H    0.066499
    13  H    0.029238
    14  H    0.141396
 Sum of Mulliken charges =   0.00000

 Dipole moment (field-independent basis, Debye):
    X=              0.1371    Y=             -0.2448    Z=             -0.4631  Tot=              0.5415
 Quadrupole moment (field-independent basis, Debye-Ang):
   XX=            -30.9285   YY=            -28.8731   ZZ=            -28.1139
   XY=             -0.9853   XZ=             -0.4989   YZ=             -0.1635

 Normal termination of Gaussian 09 at Wed Aug 26 18:30:20 2020.
