 Gaussian 09, Revision D.01,
 Gaussian 09:  ES64L-G09RevD.01 24-Apr-2013

 --------------------
 #p B2PLYPD3/Def2QZVP
 --------------------

 ----------
 butane_opt
 ----------
 Symbolic Z-matrix:
 Charge =  0 Multiplicity = 1

                         Standard orientation:
 ---------------------------------------------------------------------
 Center     Atomic      Atomic             Coordinates (Angstroms)
 Number     Number       Type             X           Y           Z
 ---------------------------------------------------------------------
      1          6           0        2.070646   -0.247926   -0.094068
      2          6           0        0.539962    0.597604    0.003579
      3          1           0        2.754914    0.596353   -0.105893
      4          1           0        1.942760   -0.941067   -0.860432
      5          1           0        2.325541   -0.709150    0.730416
      6          6           0       -0.652153   -0.404318    0.249110
      7          1           0        0.469658    1.005510   -0.749139
      8          1           0        0.375507    1.606925    0.883085
      9          6           0       -1.962554    0.018727   -0.155484
     10          1           0       -0.683476   -0.892585    1.182114
     11          1           0       -0.650422   -1.063334   -0.335724
     12          1           0       -2.250479    0.792685    0.657255
     13          1           0       -2.691633   -0.659957   -0.380489
     14          1           0       -1.567775    0.480104   -1.040013
 ---------------------------------------------------------------------

 SCF Done:  E(RB2PLYPD3) =  -157.924532400     A.U. after   11 cycles
 E2(B2PLYPD3) =    -0.2476577538D+00 E(B2PLYPD3) =    -0.15817219015338D+03

 The electronic state is 1-A.
 Alpha  occ. eigenvalues --  -10.62001 -10.59947 -10.58661 -10.56757  -0.93565
 Alpha  occ. eigenvalues --   -0.83807  -0.74862  -0.69393  -0.55449  -0.52565
 Alpha  occ. eigenvalues --   -0.50570  -0.48157  -0.44490  -0.40258  -0.38694
 Alpha  occ. eigenvalues --   -0.36573  -0.35176
 Alpha virt. eigenvalues --    0.05568   0.06932   0.08091   0.09307   0.10893
 Alpha virt. eigenvalues --    0.11776   0.12712   0.14044   0.15072   0.15295
 Alpha virt. eigenvalues --    0.15795   0.16013   0.18892   0.19166   0.21192

 Mulliken charges:
               1
     1  C   -0.162812
     2  C   -0.194736
     3  H    0.056678
     4  H    0.064276
     5  H    0.061611
     6  C   -0.101601
     7  H    0.163942
     8  H   -0.001014
     9  C   -0.150326
    10  H    0.026268
    11  H    0.117872
    12  H    0.028061
    13  H    0.050822
    14  H    0.040960
 Sum of Mulliken charges =   0.00000

 Dipole moment (field-independent basis, Debye):
    X=              0.1788    Y=             -0.6028    Z=             -0.3888  Tot=              0.7393
 Quadrupole moment (field-independent basis, Debye-Ang):
   XX=            -29.3770   YY=            -28.4880   ZZ=            -28.2805
   XY=              1.1555   XZ=              0.1291   YZ=              0.2716

 Normal termination of Gaussian 09 at Wed Aug 26 11:30:27 2020.
