 Gaussian 09, Revision D.01,
 Gaussian 09:  ES64L-G09RevD.01 24-Apr-2013

 --------------------
 #p B2PLYPD3/Def2QZVP
 --------------------

 ----------
 butane_opt
 ----------
 Symbolic Z-matrix:
 Charge =  0 Multiplicity = 1

                         Standard orientation:
 ---------------------------------------------------------------------
 Center     Atomic      Atomic             Coordinates (Angstroms)
 Number     Number       Type             X           Y           Z
 ---------------------------------------------------------------------
      1          6           0        1.961942    0.047588   -0.013744
      2          6           0        0.613975   -0.494704    0.015633
      3          1           0        2.826134   -0.704006    0.009813
      4          1           0        2.097998    0.667076    0.731459
      5          1           0        1.857275    0.677606   -0.947503
      6          6           0       -0.476127    0.611109   -0.005818
      7          1           0        0.439393   -1.019957    0.918536
      8          1           0        0.636520   -1.046718   -0.723251
      9          6           0       -1.995862   -0.163137   -0.006946
     10          1           0       -0.375999    0.902201   -0.757582
     11          1           0       -0.506562    1.626918    1.044118
     12          1           0       -2.383083   -0.518966   -0.806218
     13          1           0       -2.700852    0.293109   -0.427145
     14          1           0       -2.514396   -0.882400    1.023018
 ---------------------------------------------------------------------

 SCF Done:  E(RB2PLYPD3) =  -157.781446413     A.U. after   11 cycles
 E2(B2PLYPD3) =    -0.2503405632D+00 E(B2PLYPD3) =    -0.15803178697666D+03

 The electronic state is 1-A.
 Alpha  occ. eigenvalues --  -10.63349 -10.60156 -10.58720 -10.57697  -0.93511
 Alpha  occ. eigenvalues --   -0.87751  -0.78866  -0.69610  -0.57145  -0.50579
 Alpha  occ. eigenvalues --   -0.48853  -0.44719  -0.41561  -0.41050  -0.37945
 Alpha  occ. eigenvalues --   -0.37476  -0.34151
 Alpha virt. eigenvalues --    0.04887   0.06160   0.07176   0.08943   0.10554
 Alpha virt. eigenvalues --    0.11346   0.12590   0.12691   0.14975   0.15235
 Alpha virt. eigenvalues --    0.16249   0.17162   0.18465   0.20525   0.21191

 Mulliken charges:
               1
     1  C   -0.145358
     2  C   -0.050625
     3  H    0.039529
     4  H    0.061578
     5  H    0.023964
     6  C   -0.314417
     7  H    0.032882
     8  H    0.084010
     9  C   -0.244395
    10  H    0.278594
    11  H    0.024927
    12  H    0.081585
    13  H    0.096928
    14  H    0.030799
 Sum of Mulliken charges =   0.00000

 Dipole moment (field-independent basis, Debye):
    X=             -0.1932    Y=             -0.0168    Z=             -0.7468  Tot=              0.7715
 Quadrupole moment (field-independent basis, Debye-Ang):
   XX=            -28.2147   YY=            -29.8774   ZZ=            -27.5112
   XY=             -0.3863   XZ=              2.1244   YZ=             -0.3606

 Normal termination of Gaussian 09 at Wed Aug 26 14:37:35 2020.
