 Gaussian 09, Revision D.01,
 Gaussian 09:  ES64L-G09RevD.01 24-Apr-2013

 --------------------
 #p B2PLYPD3/Def2QZVP
 --------------------

 ----------
 butane_opt
 ----------
 Symbolic Z-matrix:
 Charge =  0 Multiplicity = 1

                         Standard orientation:
 ---------------------------------------------------------------------
 Center     Atomic      Atomic             Coordinates (Angstroms)
 Number     Number       Type             X           Y           Z
 ---------------------------------------------------------------------
      1          6           0        1.964034   -0.173702   -0.154224
      2          6           0        0.589640    0.615503    0.204969
      3          1           0        2.776114    0.471729   -0.715594
      4          1           0        1.908199   -0.740532   -0.984545
      5          1           0        2.663600   -1.075574    1.092919
      6          6           0       -0.627188   -0.411667    0.180691
      7          1           0        0.186266    1.055273   -0.550498
      8          1           0        0.518491    1.324854    1.065165
      9          6           0       -1.966367    0.038899   -0.176028
     10          1           0       -0.642284   -0.833921    1.015814
     11          1           0       -0.530787   -1.064485   -0.782253
     12          1           0       -2.231204    0.526437    0.704379
     13          1           0       -2.710768   -0.795735   -0.008223
     14          1           0       -1.698341    0.717762   -1.169614
 ---------------------------------------------------------------------

 SCF Done:  E(RB2PLYPD3) =  -157.896570183     A.U. after   11 cycles
 E2(B2PLYPD3) =    -0.2535753436D+00 E(B2PLYPD3) =    -0.15815014552678D+03

 The electronic state is 1-A.
 Alpha  occ. eigenvalues --  -10.65916 -10.61643 -10.61163 -10.59221  -0.92745
 Alpha  occ. eigenvalues --   -0.83342  -0.73656  -0.67021  -0.57772  -0.49732
 Alpha  occ. eigenvalues --   -0.47744  -0.46521  -0.42995  -0.40754  -0.37093
 Alpha  occ. eigenvalues --   -0.35903  -0.33754
 Alpha virt. eigenvalues --    0.02309   0.05156   0.07769   0.08462   0.09897
 Alpha virt. eigenvalues --    0.10367   0.11572   0.12308   0.14203   0.15110
 Alpha virt. eigenvalues --    0.15509   0.16220   0.18460   0.19326   0.20354

 Mulliken charges:
               1
     1  C   -0.165577
     2  C   -0.109627
     3  H    0.037147
     4  H    0.087053
     5  H    0.000619
     6  C   -0.052304
     7  H    0.091326
     8  H    0.043890
     9  C   -0.145353
    10  H    0.054995
    11  H    0.024330
    12  H    0.030030
    13  H    0.053453
    14  H    0.050018
 Sum of Mulliken charges =   0.00000

 Dipole moment (field-independent basis, Debye):
    X=             -0.6045    Y=              0.1962    Z=             -0.3059  Tot=              0.7054
 Quadrupole moment (field-independent basis, Debye-Ang):
   XX=            -31.6861   YY=            -30.4024   ZZ=            -27.7292
   XY=              1.0934   XZ=             -2.5516   YZ=             -0.0798

 Normal termination of Gaussian 09 at Wed Aug 26 16:12:29 2020.
