 Gaussian 09, Revision D.01,
 Gaussian 09:  ES64L-G09RevD.01 24-Apr-2013

 --------------------
 #p B2PLYPD3/Def2QZVP
 --------------------

 ----------
 butane_opt
 ----------
 Symbolic Z-matrix:
 Charge =  0 Multiplicity = 1

                         Standard orientation:
 ---------------------------------------------------------------------
 Center     Atomic      Atomic             Coordinates (Angstroms)
 Number     Number       Type             X           Y           Z
 ---------------------------------------------------------------------
      1          6           0        1.800786   -0.137694   -0.149876
      2          6           0        0.568764    0.518891    0.164242
      3          1           0        2.757272    0.695999   -0.554975
      4          1           0        1.485948   -0.855815   -1.098436
      5          1           0        2.477810   -0.717619    0.607249
      6          6           0       -0.518805   -0.531840    0.140087
      7          1           0        0.477451    0.942979   -0.630164
      8          1           0        0.748227    1.539779    1.318562
      9          6           0       -1.926429    0.157838   -0.126863
     10          1           0       -0.343890   -1.464702    1.305152
     11          1           0       -0.303885   -1.003378   -0.527287
     12          1           0       -2.163289    0.600464    0.602334
     13          1           0       -2.629819   -0.612737   -0.267937
     14          1           0       -2.051722    0.831862   -0.920038
 ---------------------------------------------------------------------

 SCF Done:  E(RB2PLYPD3) =  -157.812449070     A.U. after   11 cycles
 E2(B2PLYPD3) =    -0.2524001003D+00 E(B2PLYPD3) =    -0.15806484917072D+03

 The electronic state is 1-A.
 Alpha  occ. eigenvalues --  -10.64397 -10.62681 -10.62499 -10.57609  -0.95374
 Alpha  occ. eigenvalues --   -0.85333  -0.75020  -0.67482  -0.54928  -0.49658
 Alpha  occ. eigenvalues --   -0.49497  -0.48724  -0.44423  -0.40450  -0.38224
 Alpha  occ. eigenvalues --   -0.35415  -0.35121
 Alpha virt. eigenvalues --    0.03561   0.05614   0.06716   0.06911   0.10507
 Alpha virt. eigenvalues --    0.10543   0.11747   0.13760   0.14838   0.15200
 Alpha virt. eigenvalues --    0.15482   0.16345   0.17969   0.19846   0.20525

 Mulliken charges:
               1
     1  C   -0.159308
     2  C   -0.130318
     3  H    0.011930
     4  H    0.034844
     5  H    0.056625
     6  C   -0.220780
     7  H    0.177870
     8  H   -0.005173
     9  C   -0.155502
    10  H   -0.001611
    11  H    0.213648
    12  H    0.111559
    13  H    0.037846
    14  H    0.028372
 Sum of Mulliken charges =   0.00000

 Dipole moment (field-independent basis, Debye):
    X=             -0.3785    Y=             -0.0087    Z=             -0.7127  Tot=              0.8070
 Quadrupole moment (field-independent basis, Debye-Ang):
   XX=            -29.5441   YY=            -29.8883   ZZ=            -29.2581
   XY=             -0.5824   XZ=              0.9015   YZ=              0.0012

 Normal termination of Gaussian 09 at Wed Aug 26 22:35:38 2020.
