 Gaussian 09, Revision D.01,
 Gaussian 09:  ES64L-G09RevD.01 24-Apr-2013

 --------------------
 #p B2PLYPD3/Def2QZVP
 --------------------

 ----------
 butane_opt
 ----------
 Symbolic Z-matrix:
 Charge =  0 Multiplicity = 1

                         Standard orientation:
 ---------------------------------------------------------------------
 Center     Atomic      Atomic             Coordinates (Angstroms)
 Number     Number       Type             X           Y           Z
 ---------------------------------------------------------------------
      1          6           0        1.999422   -0.163584   -0.133601
      2          6           0        0.543585    0.637958    0.170091
      3          1           0        2.593849    0.505060   -0.612852
      4          1           0        1.578707   -0.725286   -0.885308
      5          1           0        2.658079   -0.963089    0.885193
      6          6           0       -0.613616   -0.471866    0.136921
      7          1           0        0.315577    0.987703   -0.699282
      8          1           0        0.606822    1.475287    1.130201
      9          6           0       -1.873985    0.028292   -0.115380
     10          1           0       -0.811429   -1.165456    1.087334
     11          1           0       -0.236800   -1.142141   -0.725575
     12          1           0       -2.234207    0.794836    0.723028
     13          1           0       -2.611815   -0.751492   -0.021015
     14          1           0       -2.191212    0.799780   -1.229906
 ---------------------------------------------------------------------

 SCF Done:  E(RB2PLYPD3) =  -157.943258824     A.U. after   11 cycles
 E2(B2PLYPD3) =    -0.2533781577D+00 E(B2PLYPD3) =    -0.15819663698211D+03

 The electronic state is 1-A.
 Alpha  occ. eigenvalues --  -10.63138 -10.62939 -10.62739 -10.62681  -0.92276
 Alpha  occ. eigenvalues --   -0.83478  -0.72079  -0.64664  -0.53193  -0.50589
 Alpha  occ. eigenvalues --   -0.49078  -0.45378  -0.43186  -0.39590  -0.37252
 Alpha  occ. eigenvalues --   -0.36227  -0.35047
 Alpha virt. eigenvalues --    0.05057   0.05667   0.07232   0.07557   0.09379
 Alpha virt. eigenvalues --    0.11202   0.12104   0.12481   0.13332   0.14608
 Alpha virt. eigenvalues --    0.16168   0.16620   0.17922   0.19102   0.20573

 Mulliken charges:
               1
     1  C   -0.194877
     2  C   -0.147350
     3  H    0.071148
     4  H    0.071538
     5  H    0.037002
     6  C   -0.016571
     7  H    0.128734
     8  H    0.034261
     9  C   -0.150360
    10  H    0.031899
    11  H    0.034208
    12  H    0.040600
    13  H    0.063685
    14  H   -0.003917
 Sum of Mulliken charges =   0.00000

 Dipole moment (field-independent basis, Debye):
    X=             -0.1985    Y=             -0.1104    Z=             -0.1380  Tot=              0.2658
 Quadrupole moment (field-independent basis, Debye-Ang):
   XX=            -30.7815   YY=            -29.6012   ZZ=            -28.9930
   XY=              1.0287   XZ=             -1.1547   YZ=             -0.2946

 Normal termination of Gaussian 09 at Wed Aug 26 10:09:28 2020.
