 Gaussian 09, Revision D.01,
 Gaussian 09:  ES64L-G09RevD.01 24-Apr-2013

 --------------------
 #p B2PLYPD3/Def2QZVP
 --------------------

 ----------
 butane_opt
 ----------
 Symbolic Z-matrix:
 Charge =  0 Multiplicity = 1

                         Standard orientation:
 ---------------------------------------------------------------------
 Center     Atomic      Atomic             Coordinates (Angstroms)
 Number     Number       Type             X           Y           Z
 ---------------------------------------------------------------------
      1          6           0        1.936234   -0.180646    0.148345
      2          6           0        0.493709    0.613251   -0.118959
      3          1           0        2.645725    0.404122   -0.258413
      4          1           0        1.934139   -0.441543   -0.486133
      5          1           0        2.258280   -0.943093    1.018964
      6          6           0       -0.582369   -0.459376   -0.323863
      7          1           0        0.431884    1.217261   -0.771203
      8          1           0        0.069041    1.193406    0.764056
      9          6           0       -1.787848    0.092895    0.204214
     10          1           0       -0.308742   -1.083930    0.509589
     11          1           0       -0.664468   -1.104667   -1.187275
     12          1           0       -1.428346    0.531230    1.088775
     13          1           0       -2.784084   -0.896490    0.473328
     14          1           0       -2.511788    0.726958   -0.610114
 ---------------------------------------------------------------------

 SCF Done:  E(RB2PLYPD3) =  -157.686340147     A.U. after   11 cycles
 E2(B2PLYPD3) =    -0.2515107096D+00 E(B2PLYPD3) =    -0.15793785085616D+03

 The electronic state is 1-A.
 Alpha  occ. eigenvalues --  -10.63436 -10.60387 -10.59459 -10.57225  -0.94767
 Alpha  occ. eigenvalues --   -0.88687  -0.76066  -0.67292  -0.57012  -0.50041
 Alpha  occ. eigenvalues --   -0.47896  -0.46520  -0.44112  -0.42469  -0.40234
 Alpha  occ. eigenvalues --   -0.37221  -0.32781
 Alpha virt. eigenvalues --    0.05190   0.06234   0.07997   0.08826   0.10010
 Alpha virt. eigenvalues --    0.10590   0.12593   0.13515   0.15160   0.16044
 Alpha virt. eigenvalues --    0.16130   0.16444   0.18163   0.19206   0.21331

 Mulliken charges:
               1
     1  C   -0.633288
     2  C   -0.090359
     3  H    0.030252
     4  H    0.499892
     5  H    0.089076
     6  C   -0.069858
     7  H    0.106286
     8  H    0.014079
     9  C   -0.153034
    10  H    0.064824
    11  H    0.043837
    12  H    0.089555
    13  H   -0.020220
    14  H    0.028956
 Sum of Mulliken charges =   0.00000

 Dipole moment (field-independent basis, Debye):
    X=              0.7747    Y=             -0.0597    Z=             -0.5334  Tot=              0.9425
 Quadrupole moment (field-independent basis, Debye-Ang):
   XX=            -31.0319   YY=            -29.0163   ZZ=            -27.7439
   XY=             -1.0852   XZ=              0.0580   YZ=             -0.4609

 Normal termination of Gaussian 09 at Wed Aug 26 16:32:03 2020.
