 Gaussian 09, Revision D.01,
 Gaussian 09:  ES64L-G09RevD.01 24-Apr-2013

 --------------------
 #p B2PLYPD3/Def2QZVP
 --------------------

 ----------
 butane_opt
 ----------
 Symbolic Z-matrix:
 Charge =  0 Multiplicity = 1

                         Standard orientation:
 ---------------------------------------------------------------------
 Center     Atomic      Atomic             Coordinates (Angstroms)
 Number     Number       Type             X           Y           Z
 ---------------------------------------------------------------------
      1          6           0       -1.996847   -0.173382   -0.084238
      2          6           0       -0.524831    0.564509    0.169288
      3          1           0       -2.779000    0.709933   -0.135670
      4          1           0       -2.323596   -0.369012    0.500432
      5          1           0       -2.165770   -1.081817   -1.156995
      6          6           0        0.578697   -0.566485    0.185744
      7          1           0       -0.542009    1.153988    1.008112
      8          1           0       -0.511392    1.242922   -0.754869
      9          6           0        1.951979    0.102105   -0.167186
     10          1           0        0.377774   -0.941458   -0.447182
     11          1           0        0.783938   -1.194349    1.245024
     12          1           0        1.861942    0.755927   -1.082969
     13          1           0        2.656064   -0.490840   -0.549428
     14          1           0        2.588070    0.654223    0.751895
 ---------------------------------------------------------------------

 SCF Done:  E(RB2PLYPD3) =  -157.646314838     A.U. after   11 cycles
 E2(B2PLYPD3) =    -0.2496431817D+00 E(B2PLYPD3) =    -0.15789595801933D+03

 The electronic state is 1-A.
 Alpha  occ. eigenvalues --  -10.62218 -10.60551 -10.60390 -10.59769  -0.91723
 Alpha  occ. eigenvalues --   -0.85460  -0.75941  -0.70579  -0.55113  -0.48516
 Alpha  occ. eigenvalues --   -0.48299  -0.46175  -0.41413  -0.40369  -0.39778
 Alpha  occ. eigenvalues --   -0.37679  -0.36077
 Alpha virt. eigenvalues --    0.05148   0.05983   0.07922   0.08212   0.10725
 Alpha virt. eigenvalues --    0.11276   0.12213   0.13727   0.14183   0.15499
 Alpha virt. eigenvalues --    0.15746   0.16728   0.18748   0.19274   0.21516

 Mulliken charges:
               1
     1  C   -0.568706
     2  C   -0.001682
     3  H    0.032616
     4  H    0.406053
     5  H    0.041487
     6  C   -0.425378
     7  H    0.058175
     8  H    0.045045
     9  C   -0.113560
    10  H    0.374717
    11  H    0.050931
    12  H    0.030663
    13  H    0.043561
    14  H    0.026078
 Sum of Mulliken charges =   0.00000

 Dipole moment (field-independent basis, Debye):
    X=              0.0420    Y=             -0.0768    Z=              0.1459  Tot=              0.1701
 Quadrupole moment (field-independent basis, Debye-Ang):
   XX=            -29.4778   YY=            -29.1805   ZZ=            -27.6618
   XY=             -0.7305   XZ=             -0.8968   YZ=              0.5147

 Normal termination of Gaussian 09 at Wed Aug 26 14:12:44 2020.
