 Gaussian 09, Revision D.01,
 Gaussian 09:  ES64L-G09RevD.01 24-Apr-2013

 --------------------
 #p B2PLYPD3/Def2QZVP
 --------------------

 ----------
 butane_opt
 ----------
 Symbolic Z-matrix:
 Charge =  0 Multiplicity = 1

                         Standard orientation:
 ---------------------------------------------------------------------
 Center     Atomic      Atomic             Coordinates (Angstroms)
 Number     Number       Type             X           Y           Z
 ---------------------------------------------------------------------
      1          6           0        1.937476    0.087355    0.085179
      2          6           0        0.579463   -0.460370   -0.047474
      3          1           0        2.879319   -0.827573   -0.206658
      4          1           0        2.143037    1.120888    1.143807
      5          1           0        2.040089    0.420596   -0.586819
      6          6           0       -0.530261    0.529431   -0.147798
      7          1           0        0.382197   -0.988154    0.708824
      8          1           0        0.572346   -1.177591   -0.951685
      9          6           0       -1.978416   -0.144342    0.052343
     10          1           0       -0.506778    1.188970   -1.002090
     11          1           0       -0.535951    1.213993    0.702453
     12          1           0       -2.143520   -0.505790   -0.549088
     13          1           0       -2.675132    0.515604   -0.066161
     14          1           0       -2.205180   -1.033384    1.153920
 ---------------------------------------------------------------------

 SCF Done:  E(RB2PLYPD3) =  -157.617428150     A.U. after   11 cycles
 E2(B2PLYPD3) =    -0.2496891212D+00 E(B2PLYPD3) =    -0.15786711727124D+03

 The electronic state is 1-A.
 Alpha  occ. eigenvalues --  -10.61638 -10.61147 -10.59349 -10.58238  -0.93776
 Alpha  occ. eigenvalues --   -0.87989  -0.78176  -0.69573  -0.54574  -0.50605
 Alpha  occ. eigenvalues --   -0.49438  -0.46948  -0.42361  -0.40403  -0.38956
 Alpha  occ. eigenvalues --   -0.37760  -0.36555
 Alpha virt. eigenvalues --    0.04235   0.05399   0.06980   0.07963   0.10436
 Alpha virt. eigenvalues --    0.11204   0.11777   0.13166   0.13877   0.15470
 Alpha virt. eigenvalues --    0.15715   0.16274   0.18884   0.19479   0.21880

 Mulliken charges:
               1
     1  C   -0.473472
     2  C   -0.009748
     3  H    0.026580
     4  H    0.024838
     5  H    0.347095
     6  C   -0.007479
     7  H    0.082704
     8  H    0.008080
     9  C   -0.474427
    10  H    0.025946
    11  H    0.034842
    12  H    0.344914
    13  H    0.046372
    14  H    0.023755
 Sum of Mulliken charges =   0.00000

 Dipole moment (field-independent basis, Debye):
    X=             -0.5144    Y=              0.1636    Z=             -0.8692  Tot=              1.0232
 Quadrupole moment (field-independent basis, Debye-Ang):
   XX=            -30.3351   YY=            -28.6622   ZZ=            -28.2559
   XY=             -0.3771   XZ=             -0.3675   YZ=              0.0402

 Normal termination of Gaussian 09 at Wed Aug 26 15:32:40 2020.
