 Gaussian 09, Revision D.01,
 Gaussian 09:  ES64L-G09RevD.01 24-Apr-2013

 --------------------
 #p B2PLYPD3/Def2QZVP
 --------------------

 ----------
 butane_opt
 ----------
 Symbolic Z-matrix:
 Charge =  0 Multiplicity = 1

                         Standard orientation:
 ---------------------------------------------------------------------
 Center     Atomic      Atomic             Coordinates (Angstroms)
 Number     Number       Type             X           Y           Z
 ---------------------------------------------------------------------
      1          6           0       -1.925390    0.021413   -0.130321
      2          6           0       -0.642193   -0.394413    0.226657
      3          1           0       -2.841681   -0.870910   -0.423832
      4          1           0       -1.623486    0.630530   -0.952056
      5          1           0       -2.318277    0.767539    0.616727
      6          6           0        0.501296    0.551917    0.077526
      7          1           0       -0.346805   -0.926664   -0.361945
      8          1           0       -0.394927   -1.119529    1.422563
      9          6           0        2.030024   -0.132791   -0.124006
     10          1           0        0.566500    1.289694    0.958839
     11          1           0        0.161076    1.301141   -1.115028
     12          1           0        2.388139   -0.375800    0.546021
     13          1           0        2.590148    0.340435    0.200406
     14          1           0        2.036899   -1.313189   -1.190825
 ---------------------------------------------------------------------

 SCF Done:  E(RB2PLYPD3) =  -157.556434352     A.U. after   12 cycles
 E2(B2PLYPD3) =    -0.2562060824D+00 E(B2PLYPD3) =    -0.15781264043399D+03

 The electronic state is 1-A.
 Alpha  occ. eigenvalues --  -10.66796 -10.61838 -10.60248 -10.60128  -0.98144
 Alpha  occ. eigenvalues --   -0.93757  -0.77101  -0.67111  -0.53513  -0.51079
 Alpha  occ. eigenvalues --   -0.48033  -0.45519  -0.42252  -0.39117  -0.36933
 Alpha  occ. eigenvalues --   -0.36315  -0.33863
 Alpha virt. eigenvalues --    0.02589   0.05274   0.05589   0.06645   0.09385
 Alpha virt. eigenvalues --    0.11004   0.11335   0.13353   0.14745   0.15160
 Alpha virt. eigenvalues --    0.15439   0.16074   0.17766   0.19623   0.20395

 Mulliken charges:
               1
     1  C   -0.146281
     2  C   -0.165598
     3  H    0.045117
     4  H    0.066481
     5  H    0.048139
     6  C   -0.042532
     7  H    0.207450
     8  H   -0.024521
     9  C   -0.594892
    10  H    0.028262
    11  H   -0.014405
    12  H    0.287497
    13  H    0.256750
    14  H    0.048533
 Sum of Mulliken charges =   0.00000

 Dipole moment (field-independent basis, Debye):
    X=              0.4555    Y=             -0.0840    Z=              0.5046  Tot=              0.6849
 Quadrupole moment (field-independent basis, Debye-Ang):
   XX=            -28.3690   YY=            -30.1175   ZZ=            -29.5479
   XY=             -0.2355   XZ=              2.8345   YZ=              1.9759

 Normal termination of Gaussian 09 at Wed Aug 26 23:40:13 2020.
