 Gaussian 09, Revision D.01,
 Gaussian 09:  ES64L-G09RevD.01 24-Apr-2013

 --------------------
 #p B2PLYPD3/Def2QZVP
 --------------------

 ----------
 butane_opt
 ----------
 Symbolic Z-matrix:
 Charge =  0 Multiplicity = 1

                         Standard orientation:
 ---------------------------------------------------------------------
 Center     Atomic      Atomic             Coordinates (Angstroms)
 Number     Number       Type             X           Y           Z
 ---------------------------------------------------------------------
      1          6           0        1.805567    0.048163   -0.134728
      2          6           0        0.579785   -0.369505    0.324742
      3          1           0        2.713056   -0.770032   -0.420214
      4          1           0        2.524336    0.421423    0.346137
      5          1           0        1.632994    0.470633   -1.335832
      6          6           0       -0.568776    0.614652    0.118724
      7          1           0        0.666884   -0.769809    1.467514
      8          1           0        0.437856   -1.199604   -0.429062
      9          6           0       -1.912485   -0.196215   -0.169412
     10          1           0       -0.099607    0.954610   -0.761751
     11          1           0       -0.424485    1.737783    0.938337
     12          1           0       -1.624763   -1.006712   -0.916261
     13          1           0       -2.627972    0.327110   -0.673616
     14          1           0       -2.622848   -0.747970    0.948797
 ---------------------------------------------------------------------

 SCF Done:  E(RB2PLYPD3) =  -157.914525549     A.U. after   11 cycles
 E2(B2PLYPD3) =    -0.2547517641D+00 E(B2PLYPD3) =    -0.15816927731265D+03

 The electronic state is 1-A.
 Alpha  occ. eigenvalues --  -10.64344 -10.64306 -10.61921 -10.61242  -0.93741
 Alpha  occ. eigenvalues --   -0.83347  -0.73459  -0.65744  -0.55684  -0.51960
 Alpha  occ. eigenvalues --   -0.47041  -0.44565  -0.42398  -0.40056  -0.38318
 Alpha  occ. eigenvalues --   -0.35922  -0.33523
 Alpha virt. eigenvalues --    0.04813   0.05522   0.06271   0.07670   0.09651
 Alpha virt. eigenvalues --    0.10676   0.11227   0.13030   0.14257   0.15325
 Alpha virt. eigenvalues --    0.16203   0.17178   0.17921   0.18910   0.20495

 Mulliken charges:
               1
     1  C   -0.160997
     2  C   -0.006966
     3  H   -0.000778
     4  H    0.072416
     5  H    0.008574
     6  C   -0.088585
     7  H    0.024287
     8  H    0.064667
     9  C   -0.142762
    10  H    0.071317
    11  H    0.013680
    12  H    0.054670
    13  H    0.066890
    14  H    0.023588
 Sum of Mulliken charges =   0.00000

 Dipole moment (field-independent basis, Debye):
    X=              0.2452    Y=             -0.0692    Z=             -0.4153  Tot=              0.4872
 Quadrupole moment (field-independent basis, Debye-Ang):
   XX=            -29.0860   YY=            -30.9903   ZZ=            -29.0617
   XY=              0.0429   XZ=              1.3168   YZ=              0.4439

 Normal termination of Gaussian 09 at Wed Aug 26 21:31:02 2020.
