 Gaussian 09, Revision D.01,
 Gaussian 09:  ES64L-G09RevD.01 24-Apr-2013

 --------------------
 #p B2PLYPD3/Def2QZVP
 --------------------

 ----------
 butane_opt
 ----------
 Symbolic Z-matrix:
 Charge =  0 Multiplicity = 1

                         Standard orientation:
 ---------------------------------------------------------------------
 Center     Atomic      Atomic             Coordinates (Angstroms)
 Number     Number       Type             X           Y           Z
 ---------------------------------------------------------------------
      1          6           0        2.000613   -0.139026    0.090958
      2          6           0        0.560600    0.576638   -0.151196
      3          1           0        2.727600    0.439016    0.026240
      4          1           0        2.154058   -0.684080   -0.651172
      5          1           0        2.172237   -0.802731    1.058733
      6          6           0       -0.566321   -0.468921   -0.022515
      7          1           0        0.485438    1.298348   -1.063740
      8          1           0        0.270885    1.025487    0.599825
      9          6           0       -1.976388    0.107138    0.097286
     10          1           0       -0.426020   -0.989203    0.736040
     11          1           0       -0.580274   -1.347376   -0.973412
     12          1           0       -2.183475    0.958631    1.102190
     13          1           0       -2.861516   -0.754147   -0.313100
     14          1           0       -1.869956    0.401084   -0.608802
 ---------------------------------------------------------------------

 SCF Done:  E(RB2PLYPD3) =  -157.797036467     A.U. after   11 cycles
 E2(B2PLYPD3) =    -0.2489339464D+00 E(B2PLYPD3) =    -0.15804597041313D+03

 The electronic state is 1-A.
 Alpha  occ. eigenvalues --  -10.60848 -10.60658 -10.60332 -10.58083  -0.93237
 Alpha  occ. eigenvalues --   -0.85612  -0.77199  -0.68752  -0.53934  -0.49480
 Alpha  occ. eigenvalues --   -0.48675  -0.46968  -0.42720  -0.42296  -0.39661
 Alpha  occ. eigenvalues --   -0.38025  -0.35466
 Alpha virt. eigenvalues --    0.05187   0.06388   0.07547   0.08431   0.10552
 Alpha virt. eigenvalues --    0.12252   0.12646   0.13623   0.14898   0.15253
 Alpha virt. eigenvalues --    0.15763   0.16472   0.18762   0.19633   0.21237

 Mulliken charges:
               1
     1  C   -0.146129
     2  C   -0.127936
     3  H    0.051689
     4  H    0.067169
     5  H    0.027026
     6  C   -0.048647
     7  H    0.028875
     8  H    0.116387
     9  C   -0.495794
    10  H    0.090863
    11  H   -0.021055
    12  H    0.051409
    13  H    0.041222
    14  H    0.364921
 Sum of Mulliken charges =   0.00000

 Dipole moment (field-independent basis, Debye):
    X=              0.5199    Y=              0.2690    Z=             -0.0820  Tot=              0.5911
 Quadrupole moment (field-independent basis, Debye-Ang):
   XX=            -29.5761   YY=            -28.9920   ZZ=            -27.8962
   XY=             -0.1927   XZ=              0.1407   YZ=              0.0951

 Normal termination of Gaussian 09 at Wed Aug 26 23:28:14 2020.
