 Gaussian 09, Revision D.01,
 Gaussian 09:  ES64L-G09RevD.01 24-Apr-2013

 --------------------
 #p B2PLYPD3/Def2QZVP
 --------------------

 ----------
 butane_opt
 ----------
 Symbolic Z-matrix:
 Charge =  0 Multiplicity = 1

                         Standard orientation:
 ---------------------------------------------------------------------
 Center     Atomic      Atomic             Coordinates (Angstroms)
 Number     Number       Type             X           Y           Z
 ---------------------------------------------------------------------
      1          6           0        2.052641   -0.157624   -0.166076
      2          6           0        0.476133    0.666035    0.147828
      3          1           0        2.627511    0.162211   -0.937711
      4          1           0        1.769362   -0.780876   -0.900892
      5          1           0        2.749933   -0.863203    1.059073
      6          6           0       -0.611352   -0.509634    0.205502
      7          1           0        0.188013    0.893754   -0.449590
      8          1           0        0.773311    1.793094    1.121313
      9          6           0       -1.944448    0.052153   -0.201976
     10          1           0       -0.660433   -1.007210    1.297526
     11          1           0       -0.375800   -0.971471   -0.442709
     12          1           0       -2.191450    0.652061    0.548196
     13          1           0       -2.765802   -0.727507    0.099791
     14          1           0       -1.952489    0.543571   -1.306666
 ---------------------------------------------------------------------

 SCF Done:  E(RB2PLYPD3) =  -157.572458387     A.U. after   11 cycles
 E2(B2PLYPD3) =    -0.2548257010D+00 E(B2PLYPD3) =    -0.15782728408848D+03

 The electronic state is 1-A.
 Alpha  occ. eigenvalues --  -10.63602 -10.63160 -10.61087 -10.60061  -0.94424
 Alpha  occ. eigenvalues --   -0.83300  -0.77529  -0.71387  -0.55184  -0.48908
 Alpha  occ. eigenvalues --   -0.47117  -0.45169  -0.41729  -0.40494  -0.38515
 Alpha  occ. eigenvalues --   -0.36157  -0.34470
 Alpha virt. eigenvalues --    0.03015   0.05205   0.06367   0.08039   0.09196
 Alpha virt. eigenvalues --    0.11171   0.12005   0.12595   0.13322   0.15114
 Alpha virt. eigenvalues --    0.16112   0.16478   0.17383   0.18329   0.20435

 Mulliken charges:
               1
     1  C   -0.223189
     2  C   -0.611595
     3  H    0.073412
     4  H    0.077850
     5  H    0.040468
     6  C   -0.212440
     7  H    0.550677
     8  H    0.032384
     9  C   -0.160517
    10  H    0.042218
    11  H    0.233748
    12  H    0.075224
    13  H    0.034152
    14  H    0.047608
 Sum of Mulliken charges =   0.00000

 Dipole moment (field-independent basis, Debye):
    X=             -0.5447    Y=             -0.2821    Z=             -0.7256  Tot=              0.9502
 Quadrupole moment (field-independent basis, Debye-Ang):
   XX=            -30.7958   YY=            -30.3541   ZZ=            -27.0419
   XY=             -0.4312   XZ=             -1.5450   YZ=             -0.3910

 Normal termination of Gaussian 09 at Wed Aug 26 21:56:23 2020.
