 Gaussian 09, Revision D.01,
 Gaussian 09:  ES64L-G09RevD.01 24-Apr-2013

 --------------------
 #p B2PLYPD3/Def2QZVP
 --------------------

 ----------
 butane_opt
 ----------
 Symbolic Z-matrix:
 Charge =  0 Multiplicity = 1

                         Standard orientation:
 ---------------------------------------------------------------------
 Center     Atomic      Atomic             Coordinates (Angstroms)
 Number     Number       Type             X           Y           Z
 ---------------------------------------------------------------------
      1          6           0        1.961286    0.085734    0.151248
      2          6           0        0.586787   -0.587195   -0.114522
      3          1           0        2.688063   -0.646111   -0.343909
      4          1           0        2.204808    1.257737    1.371907
      5          1           0        1.938377    0.418474   -0.658092
      6          6           0       -0.499004    0.584359   -0.167093
      7          1           0        0.511998   -0.969861    0.630462
      8          1           0        0.297143   -1.350582   -1.082002
      9          6           0       -1.998636   -0.127017    0.159567
     10          1           0       -0.439976    1.270639   -1.208676
     11          1           0       -0.401566    1.025482    0.446039
     12          1           0       -2.377546   -0.331564   -0.391547
     13          1           0       -2.655039    0.561852   -0.206883
     14          1           0       -2.068862   -0.971355    1.267510
 ---------------------------------------------------------------------

 SCF Done:  E(RB2PLYPD3) =  -157.334901925     A.U. after   12 cycles
 E2(B2PLYPD3) =    -0.2565815119D+00 E(B2PLYPD3) =    -0.15759148343710D+03

 The electronic state is 1-A.
 Alpha  occ. eigenvalues --  -10.62197 -10.60187 -10.60101 -10.58910  -0.93785
 Alpha  occ. eigenvalues --   -0.90080  -0.80354  -0.71749  -0.54393  -0.49641
 Alpha  occ. eigenvalues --   -0.46637  -0.43761  -0.40458  -0.40166  -0.38069
 Alpha  occ. eigenvalues --   -0.37143  -0.33154
 Alpha virt. eigenvalues --   -0.00110   0.05071   0.06294   0.07822   0.10010
 Alpha virt. eigenvalues --    0.10848   0.12508   0.13056   0.13529   0.14676
 Alpha virt. eigenvalues --    0.16130   0.17363   0.17827   0.18815   0.21662

 Mulliken charges:
               1
     1  C   -0.324042
     2  C   -0.205831
     3  H    0.043464
     4  H    0.059895
     5  H    0.198490
     6  C   -0.341320
     7  H    0.198460
     8  H    0.050316
     9  C   -0.596431
    10  H    0.022351
    11  H    0.341864
    12  H    0.445431
    13  H    0.035387
    14  H    0.071966
 Sum of Mulliken charges =   0.00000

 Dipole moment (field-independent basis, Debye):
    X=             -0.3743    Y=              0.0270    Z=             -0.6692  Tot=              0.7672
 Quadrupole moment (field-independent basis, Debye-Ang):
   XX=            -30.3138   YY=            -28.8939   ZZ=            -27.4959
   XY=              0.7103   XZ=              0.7715   YZ=              0.1478

 Normal termination of Gaussian 09 at Wed Aug 26 15:49:27 2020.
