 Gaussian 09, Revision D.01,
 Gaussian 09:  ES64L-G09RevD.01 24-Apr-2013

 --------------------
 #p B2PLYPD3/Def2QZVP
 --------------------

 ----------
 butane_opt
 ----------
 Symbolic Z-matrix:
 Charge =  0 Multiplicity = 1

                         Standard orientation:
 ---------------------------------------------------------------------
 Center     Atomic      Atomic             Coordinates (Angstroms)
 Number     Number       Type             X           Y           Z
 ---------------------------------------------------------------------
      1          6           0       -2.052401   -0.131776    0.010804
      2          6           0       -0.599753    0.477582   -0.067237
      3          1           0       -2.834381    0.555890    0.059300
      4          1           0       -2.024821   -0.740488    0.944424
      5          1           0       -1.903440   -0.543276   -0.769670
      6          6           0        0.584836   -0.534174    0.062908
      7          1           0       -0.515773    1.128914    0.649309
      8          1           0       -0.365264    1.381056   -1.123818
      9          6           0        1.991407    0.158309    0.023639
     10          1           0        0.789444   -1.429520   -0.814226
     11          1           0        0.401191   -1.098516    0.988688
     12          1           0        1.675968    0.449548   -0.708863
     13          1           0        2.734359   -0.709601   -0.518767
     14          1           0        2.498180    1.186350    1.112939
 ---------------------------------------------------------------------

 SCF Done:  E(RB2PLYPD3) =  -157.817237132     A.U. after   11 cycles
 E2(B2PLYPD3) =    -0.2542570735D+00 E(B2PLYPD3) =    -0.15807149420535D+03

 The electronic state is 1-A.
 Alpha  occ. eigenvalues --  -10.64523 -10.63277 -10.63143 -10.58562  -0.92291
 Alpha  occ. eigenvalues --   -0.86216  -0.73877  -0.66036  -0.55453  -0.49573
 Alpha  occ. eigenvalues --   -0.48938  -0.46773  -0.41345  -0.40138  -0.37830
 Alpha  occ. eigenvalues --   -0.36427  -0.35267
 Alpha virt. eigenvalues --    0.03184   0.05472   0.06685   0.06881   0.10339
 Alpha virt. eigenvalues --    0.11003   0.12364   0.13053   0.14115   0.15147
 Alpha virt. eigenvalues --    0.15768   0.16019   0.18448   0.18773   0.19467

 Mulliken charges:
               1
     1  C   -0.206060
     2  C   -0.085461
     3  H    0.058309
     4  H    0.051114
     5  H    0.129770
     6  C   -0.026916
     7  H    0.086038
     8  H   -0.031175
     9  C   -0.346082
    10  H    0.012248
    11  H    0.036448
    12  H    0.244064
    13  H    0.036547
    14  H    0.041156
 Sum of Mulliken charges =   0.00000

 Dipole moment (field-independent basis, Debye):
    X=             -0.5578    Y=             -0.1547    Z=              0.1601  Tot=              0.6006
 Quadrupole moment (field-independent basis, Debye-Ang):
   XX=            -30.9236   YY=            -29.5703   ZZ=            -28.7255
   XY=             -1.0027   XZ=             -1.1479   YZ=              1.1452

 Normal termination of Gaussian 09 at Wed Aug 26 15:11:33 2020.
