 Gaussian 09, Revision D.01,
 Gaussian 09:  ES64L-G09RevD.01 24-Apr-2013

 --------------------
 #p B2PLYPD3/Def2QZVP
 --------------------

 ----------
 butane_opt
 ----------
 Symbolic Z-matrix:
 Charge =  0 Multiplicity = 1

                         Standard orientation:
 ---------------------------------------------------------------------
 Center     Atomic      Atomic             Coordinates (Angstroms)
 Number     Number       Type             X           Y           Z
 ---------------------------------------------------------------------
      1          6           0        1.979409   -0.152966    0.113065
      2          6           0        0.505575    0.607123   -0.181174
      3          1           0        2.670582    0.346554    0.608996
      4          1           0        2.412327   -0.665786   -0.809804
      5          1           0        2.057523   -0.878434    1.039812
      6          6           0       -0.604082   -0.460799   -0.177886
      7          1           0        0.566912    1.391600   -1.075821
      8          1           0        0.111106    1.105516    0.526106
      9          6           0       -1.933113    0.025004    0.120731
     10          1           0       -0.444673   -1.129165    0.602002
     11          1           0       -0.469153   -0.866376   -1.030169
     12          1           0       -1.839269    0.951163    1.309598
     13          1           0       -2.565971   -0.562105    0.057161
     14          1           0       -2.186116    0.196862   -0.476297
 ---------------------------------------------------------------------

 SCF Done:  E(RB2PLYPD3) =  -157.602850766     A.U. after   11 cycles
 E2(B2PLYPD3) =    -0.2494502066D+00 E(B2PLYPD3) =    -0.15785230097268D+03

 The electronic state is 1-A.
 Alpha  occ. eigenvalues --  -10.60977 -10.60952 -10.57445 -10.56494  -0.96913
 Alpha  occ. eigenvalues --   -0.86575  -0.77936  -0.69592  -0.57328  -0.51990
 Alpha  occ. eigenvalues --   -0.48260  -0.46967  -0.41438  -0.40795  -0.38538
 Alpha  occ. eigenvalues --   -0.37290  -0.35783
 Alpha virt. eigenvalues --    0.04996   0.06389   0.07361   0.08392   0.10311
 Alpha virt. eigenvalues --    0.11448   0.13176   0.13939   0.14553   0.15523
 Alpha virt. eigenvalues --    0.16228   0.17043   0.18988   0.19777   0.21581

 Mulliken charges:
               1
     1  C   -0.152827
     2  C   -0.104891
     3  H    0.059729
     4  H    0.052864
     5  H    0.013241
     6  C    0.004700
     7  H    0.022349
     8  H    0.088521
     9  C   -0.603647
    10  H    0.052692
    11  H    0.038946
    12  H    0.026080
    13  H    0.070530
    14  H    0.431711
 Sum of Mulliken charges =   0.00000

 Dipole moment (field-independent basis, Debye):
    X=             -0.2295    Y=             -0.2052    Z=             -0.3134  Tot=              0.4393
 Quadrupole moment (field-independent basis, Debye-Ang):
   XX=            -27.7984   YY=            -29.4409   ZZ=            -27.3830
   XY=              0.5494   XZ=              1.7543   YZ=              0.4028

 Normal termination of Gaussian 09 at Wed Aug 26 15:58:03 2020.
