 Gaussian 09, Revision D.01,
 Gaussian 09:  ES64L-G09RevD.01 24-Apr-2013

 --------------------
 #p B2PLYPD3/Def2QZVP
 --------------------

 ----------
 butane_opt
 ----------
 Symbolic Z-matrix:
 Charge =  0 Multiplicity = 1

                         Standard orientation:
 ---------------------------------------------------------------------
 Center     Atomic      Atomic             Coordinates (Angstroms)
 Number     Number       Type             X           Y           Z
 ---------------------------------------------------------------------
      1          6           0        1.967170    0.123478    0.053130
      2          6           0        0.623793   -0.532711    0.042718
      3          1           0        2.761228   -0.889277   -0.765874
      4          1           0        2.382379    1.307795    1.151129
      5          1           0        1.856146    0.275080   -0.505797
      6          6           0       -0.624834    0.568897   -0.126805
      7          1           0        0.587283   -1.080134    0.918947
      8          1           0        0.609335   -1.120756   -0.709861
      9          6           0       -2.006778   -0.170843    0.093099
     10          1           0       -0.368250    1.424757   -1.063362
     11          1           0       -0.286973    1.056526    0.612224
     12          1           0       -1.977693   -0.821567   -0.656823
     13          1           0       -2.861874    0.613745   -0.338464
     14          1           0       -2.457692   -0.699089    0.985032
 ---------------------------------------------------------------------

 SCF Done:  E(RB2PLYPD3) =  -157.316184261     A.U. after   13 cycles
 E2(B2PLYPD3) =    -0.2570992667D+00 E(B2PLYPD3) =    -0.15757328352719D+03

 The electronic state is 1-A.
 Alpha  occ. eigenvalues --  -10.64273 -10.62963 -10.62143 -10.59875  -0.95834
 Alpha  occ. eigenvalues --   -0.85897  -0.75489  -0.70145  -0.54988  -0.49238
 Alpha  occ. eigenvalues --   -0.46802  -0.45876  -0.41243  -0.40357  -0.39540
 Alpha  occ. eigenvalues --   -0.38292  -0.32389
 Alpha virt. eigenvalues --   -0.00436   0.04855   0.05963   0.07019   0.09905
 Alpha virt. eigenvalues --    0.11177   0.11947   0.12010   0.13854   0.15222
 Alpha virt. eigenvalues --    0.15936   0.16377   0.17718   0.18615   0.19117

 Mulliken charges:
               1
     1  C   -0.968801
     2  C    0.041526
     3  H   -0.008440
     4  H    0.060579
     5  H    0.786541
     6  C   -0.135401
     7  H    0.045886
     8  H    0.064122
     9  C   -0.180209
    10  H    0.030546
    11  H    0.092831
    12  H    0.077392
    13  H    0.023228
    14  H    0.070199
 Sum of Mulliken charges =   0.00000

 Dipole moment (field-independent basis, Debye):
    X=             -0.7518    Y=              0.0713    Z=             -0.1486  Tot=              0.7697
 Quadrupole moment (field-independent basis, Debye-Ang):
   XX=            -33.0970   YY=            -28.5420   ZZ=            -28.0407
   XY=              1.7677   XZ=             -0.5480   YZ=              0.6132

 Normal termination of Gaussian 09 at Wed Aug 26 15:15:27 2020.
