 Gaussian 09, Revision D.01,
 Gaussian 09:  ES64L-G09RevD.01 24-Apr-2013

 --------------------
 #p B2PLYPD3/Def2QZVP
 --------------------

 ----------
 butane_opt
 ----------
 Symbolic Z-matrix:
 Charge =  0 Multiplicity = 1

                         Standard orientation:
 ---------------------------------------------------------------------
 Center     Atomic      Atomic             Coordinates (Angstroms)
 Number     Number       Type             X           Y           Z
 ---------------------------------------------------------------------
      1          6           0       -1.944333   -0.110910   -0.124082
      2          6           0       -0.542420    0.461102    0.179582
      3          1           0       -2.753296    0.797547   -0.340600
      4          1           0       -2.280666   -0.937928    0.831362
      5          1           0       -1.619500   -0.576060   -0.946972
      6          6           0        0.524480   -0.533113    0.050793
      7          1           0       -0.551977    1.192222    1.069175
      8          1           0       -0.395264    1.117722   -0.648479
      9          6           0        1.955747    0.120578   -0.072149
     10          1           0        0.314488   -0.966267   -0.742574
     11          1           0        0.476504   -1.205248    0.856958
     12          1           0        2.024429    0.835030   -0.942967
     13          1           0        2.701779   -0.634548   -0.143227
     14          1           0        2.122655    0.751593    0.802456
 ---------------------------------------------------------------------

 SCF Done:  E(RB2PLYPD3) =  -158.044175648     A.U. after   11 cycles
 E2(B2PLYPD3) =    -0.2478011567D+00 E(B2PLYPD3) =    -0.15829197680511D+03

 The electronic state is 1-A.
 Alpha  occ. eigenvalues --  -10.62541 -10.60293 -10.60132 -10.58283  -0.93128
 Alpha  occ. eigenvalues --   -0.82654  -0.73100  -0.66973  -0.55715  -0.50032
 Alpha  occ. eigenvalues --   -0.48076  -0.46854  -0.42635  -0.41449  -0.39675
 Alpha  occ. eigenvalues --   -0.37441  -0.36688
 Alpha virt. eigenvalues --    0.05459   0.06685   0.08248   0.08890   0.10892
 Alpha virt. eigenvalues --    0.11398   0.12850   0.13540   0.14675   0.15067
 Alpha virt. eigenvalues --    0.15916   0.16240   0.19188   0.20143   0.21803

 Mulliken charges:
               1
     1  C   -0.184920
     2  C   -0.031796
     3  H    0.047014
     4  H    0.022947
     5  H    0.078783
     6  C   -0.089760
     7  H    0.018423
     8  H    0.036463
     9  C   -0.146563
    10  H    0.081343
    11  H    0.032859
    12  H    0.033127
    13  H    0.051750
    14  H    0.050330
 Sum of Mulliken charges =   0.00000

 Dipole moment (field-independent basis, Debye):
    X=              0.3086    Y=              0.0199    Z=             -0.2542  Tot=              0.4003
 Quadrupole moment (field-independent basis, Debye-Ang):
   XX=            -30.7588   YY=            -28.7457   ZZ=            -28.3799
   XY=             -0.9884   XZ=              0.0426   YZ=             -0.2790

 Normal termination of Gaussian 09 at Wed Aug 26 16:38:16 2020.
