 Gaussian 09, Revision D.01,
 Gaussian 09:  ES64L-G09RevD.01 24-Apr-2013

 --------------------
 #p B2PLYPD3/Def2QZVP
 --------------------

 ----------
 butane_opt
 ----------
 Symbolic Z-matrix:
 Charge =  0 Multiplicity = 1

                         Standard orientation:
 ---------------------------------------------------------------------
 Center     Atomic      Atomic             Coordinates (Angstroms)
 Number     Number       Type             X           Y           Z
 ---------------------------------------------------------------------
      1          6           0       -1.955975   -0.131562   -0.023285
      2          6           0       -0.576088    0.518786    0.023791
      3          1           0       -2.880938    0.738930   -0.119405
      4          1           0       -2.182476   -0.830677    0.922530
      5          1           0       -2.040921   -0.645266   -0.801073
      6          6           0        0.556193   -0.538343    0.043010
      7          1           0       -0.533734    0.977004    0.861816
      8          1           0       -0.534502    1.384131   -0.956507
      9          6           0        2.012823    0.131552   -0.012488
     10          1           0        0.373950   -1.222832   -0.880128
     11          1           0        0.510559   -1.218848    0.919624
     12          1           0        2.032622    0.480499   -0.659268
     13          1           0        2.733918   -0.518426   -0.486398
     14          1           0        2.299803    0.972886    1.012640
 ---------------------------------------------------------------------

 SCF Done:  E(RB2PLYPD3) =  -157.823257053     A.U. after   11 cycles
 E2(B2PLYPD3) =    -0.2491514062D+00 E(B2PLYPD3) =    -0.15807240845937D+03

 The electronic state is 1-A.
 Alpha  occ. eigenvalues --  -10.62657 -10.61502 -10.61019 -10.59019  -0.91480
 Alpha  occ. eigenvalues --   -0.86055  -0.75207  -0.67615  -0.53375  -0.49239
 Alpha  occ. eigenvalues --   -0.47621  -0.45527  -0.43203  -0.41535  -0.38356
 Alpha  occ. eigenvalues --   -0.37390  -0.36941
 Alpha virt. eigenvalues --    0.05316   0.06068   0.07431   0.08182   0.10453
 Alpha virt. eigenvalues --    0.11659   0.12145   0.12597   0.14523   0.15502
 Alpha virt. eigenvalues --    0.16028   0.16572   0.18921   0.19253   0.21210

 Mulliken charges:
               1
     1  C   -0.170363
     2  C   -0.057012
     3  H    0.021656
     4  H    0.034271
     5  H    0.085686
     6  C   -0.010832
     7  H    0.081235
     8  H    0.001494
     9  C   -0.500034
    10  H    0.010858
    11  H    0.045698
    12  H    0.363702
    13  H    0.043135
    14  H    0.050505
 Sum of Mulliken charges =   0.00000

 Dipole moment (field-independent basis, Debye):
    X=              0.0691    Y=             -0.0603    Z=             -0.3100  Tot=              0.3232
 Quadrupole moment (field-independent basis, Debye-Ang):
   XX=            -30.6289   YY=            -29.2077   ZZ=            -27.7825
   XY=              0.3549   XZ=             -0.8606   YZ=              0.3948

 Normal termination of Gaussian 09 at Wed Aug 26 14:28:12 2020.
