 Gaussian 09, Revision D.01,
 Gaussian 09:  ES64L-G09RevD.01 24-Apr-2013

 --------------------
 #p B2PLYPD3/Def2QZVP
 --------------------

 ----------
 butane_opt
 ----------
 Symbolic Z-matrix:
 Charge =  0 Multiplicity = 1

                         Standard orientation:
 ---------------------------------------------------------------------
 Center     Atomic      Atomic             Coordinates (Angstroms)
 Number     Number       Type             X           Y           Z
 ---------------------------------------------------------------------
      1          6           0        1.922936    0.033729    0.042105
      2          6           0        0.664072   -0.396386   -0.195543
      3          1           0        2.657554   -0.667131    0.204977
      4          1           0        2.032281    0.638175    1.052711
      5          1           0        2.094405    0.540561   -0.703774
      6          6           0       -0.550808    0.561141    0.016643
      7          1           0        0.568000   -1.105109    0.704420
      8          1           0        0.478339   -1.091404   -1.152429
      9          6           0       -2.044998   -0.143521    0.070216
     10          1           0       -0.591125    1.303880   -0.760282
     11          1           0       -0.113807    1.342517    1.057260
     12          1           0       -1.840370   -0.443332   -0.581108
     13          1           0       -2.785010    0.563987   -0.492492
     14          1           0       -2.447479   -1.411928    1.070189
 ---------------------------------------------------------------------

 SCF Done:  E(RB2PLYPD3) =  -157.722467431     A.U. after   11 cycles
 E2(B2PLYPD3) =    -0.2548095558D+00 E(B2PLYPD3) =    -0.15797727698704D+03

 The electronic state is 1-A.
 Alpha  occ. eigenvalues --  -10.65289 -10.62789 -10.61641 -10.57307  -0.94049
 Alpha  occ. eigenvalues --   -0.88343  -0.74663  -0.65361  -0.56079  -0.51475
 Alpha  occ. eigenvalues --   -0.49408  -0.45783  -0.43038  -0.38514  -0.37788
 Alpha  occ. eigenvalues --   -0.35631  -0.35135
 Alpha virt. eigenvalues --    0.01476   0.05726   0.06982   0.07335   0.09913
 Alpha virt. eigenvalues --    0.10440   0.11827   0.12707   0.14298   0.15319
 Alpha virt. eigenvalues --    0.15616   0.16407   0.17584   0.19541   0.20567

 Mulliken charges:
               1
     1  C   -0.133130
     2  C   -0.030565
     3  H    0.048677
     4  H    0.027467
     5  H    0.070873
     6  C   -0.034775
     7  H    0.019237
     8  H    0.014068
     9  C   -0.565290
    10  H    0.042212
    11  H   -0.012054
    12  H    0.445350
    13  H    0.064433
    14  H    0.043496
 Sum of Mulliken charges =   0.00000

 Dipole moment (field-independent basis, Debye):
    X=              0.5279    Y=             -0.2084    Z=             -0.9412  Tot=              1.0990
 Quadrupole moment (field-independent basis, Debye-Ang):
   XX=            -29.9225   YY=            -29.5534   ZZ=            -28.6543
   XY=             -0.2102   XZ=              2.0181   YZ=             -1.2175

 Normal termination of Gaussian 09 at Wed Aug 26 12:09:16 2020.
