 Gaussian 09, Revision D.01,
 Gaussian 09:  ES64L-G09RevD.01 24-Apr-2013

 --------------------
 #p B2PLYPD3/Def2QZVP
 --------------------

 ----------
 butane_opt
 ----------
 Symbolic Z-matrix:
 Charge =  0 Multiplicity = 1

                         Standard orientation:
 ---------------------------------------------------------------------
 Center     Atomic      Atomic             Coordinates (Angstroms)
 Number     Number       Type             X           Y           Z
 ---------------------------------------------------------------------
      1          6           0       -2.102044   -0.151735   -0.066089
      2          6           0       -0.522197    0.603496    0.053300
      3          1           0       -2.796710    0.523070   -0.470534
      4          1           0       -2.357696   -0.440044    0.803464
      5          1           0       -1.989561   -1.364381   -1.066676
      6          6           0        0.609182   -0.472893    0.298593
      7          1           0       -0.528956    1.320006    0.744158
      8          1           0       -0.212528    1.048932   -0.746292
      9          6           0        1.967993    0.078430   -0.170364
     10          1           0        0.634332   -0.885699   -0.333273
     11          1           0        0.728738   -1.137218    1.346774
     12          1           0        1.554890    0.400955   -0.888930
     13          1           0        2.798889   -0.829254   -0.700245
     14          1           0        2.450997    1.019848    0.618916
 ---------------------------------------------------------------------

 SCF Done:  E(RB2PLYPD3) =  -157.724267340     A.U. after   11 cycles
 E2(B2PLYPD3) =    -0.2516408733D+00 E(B2PLYPD3) =    -0.15797590821342D+03

 The electronic state is 1-A.
 Alpha  occ. eigenvalues --  -10.64243 -10.62369 -10.61021 -10.59024  -0.94970
 Alpha  occ. eigenvalues --   -0.83217  -0.74748  -0.70188  -0.55266  -0.50727
 Alpha  occ. eigenvalues --   -0.48025  -0.45798  -0.44829  -0.40177  -0.37463
 Alpha  occ. eigenvalues --   -0.36759  -0.35638
 Alpha virt. eigenvalues --    0.03836   0.05104   0.08150   0.08299   0.10400
 Alpha virt. eigenvalues --    0.11014   0.11770   0.12958   0.13348   0.14920
 Alpha virt. eigenvalues --    0.15999   0.17148   0.18015   0.18671   0.20597

 Mulliken charges:
               1
     1  C   -0.200387
     2  C   -0.058017
     3  H    0.071676
     4  H    0.106607
     5  H   -0.008781
     6  C   -0.470676
     7  H    0.049748
     8  H    0.067736
     9  C   -0.259310
    10  H    0.441266
    11  H    0.045602
    12  H    0.152885
    13  H    0.030775
    14  H    0.030875
 Sum of Mulliken charges =   0.00000

 Dipole moment (field-independent basis, Debye):
    X=             -0.4229    Y=              0.5690    Z=             -0.0363  Tot=              0.7099
 Quadrupole moment (field-independent basis, Debye-Ang):
   XX=            -30.7289   YY=            -29.1234   ZZ=            -28.4734
   XY=             -1.6972   XZ=             -1.2991   YZ=              0.3622

 Normal termination of Gaussian 09 at Wed Aug 26 19:47:01 2020.
