 Gaussian 09, Revision D.01,
 Gaussian 09:  ES64L-G09RevD.01 24-Apr-2013

 --------------------
 #p B2PLYPD3/Def2QZVP
 --------------------

 ----------
 butane_opt
 ----------
 Symbolic Z-matrix:
 Charge =  0 Multiplicity = 1

                         Standard orientation:
 ---------------------------------------------------------------------
 Center     Atomic      Atomic             Coordinates (Angstroms)
 Number     Number       Type             X           Y           Z
 ---------------------------------------------------------------------
      1          6           0       -1.929752    0.067749   -0.133575
      2          6           0       -0.613762   -0.447886    0.148112
      3          1           0       -2.720935   -0.881275   -0.278656
      4          1           0       -2.206618    0.900160   -1.211464
      5          1           0       -2.180989    0.732803    0.606975
      6          6           0        0.610974    0.537533    0.193887
      7          1           0       -0.501366   -0.865363   -0.537906
      8          1           0       -0.823082   -1.232062    1.123491
      9          6           0        2.018023   -0.174672   -0.145983
     10          1           0        0.387283    1.524049    1.315335
     11          1           0        0.378302    0.894981   -0.362177
     12          1           0        2.749355   -0.955070    0.802082
     13          1           0        2.795731    0.622658   -0.864506
     14          1           0        1.609423   -0.637226   -0.967816
 ---------------------------------------------------------------------

 SCF Done:  E(RB2PLYPD3) =  -157.584351682     A.U. after   11 cycles
 E2(B2PLYPD3) =    -0.2545921376D+00 E(B2PLYPD3) =    -0.15783894381990D+03

 The electronic state is 1-A.
 Alpha  occ. eigenvalues --  -10.66696 -10.63501 -10.62572 -10.59896  -0.95934
 Alpha  occ. eigenvalues --   -0.85305  -0.73782  -0.70157  -0.54416  -0.48764
 Alpha  occ. eigenvalues --   -0.48505  -0.45993  -0.41580  -0.41099  -0.39035
 Alpha  occ. eigenvalues --   -0.35530  -0.34954
 Alpha virt. eigenvalues --    0.03779   0.04949   0.06631   0.07103   0.09065
 Alpha virt. eigenvalues --    0.10635   0.11395   0.12693   0.13834   0.14180
 Alpha virt. eigenvalues --    0.15835   0.16307   0.17418   0.18634   0.19533

 Mulliken charges:
               1
     1  C   -0.165817
     2  C   -0.236481
     3  H    0.053557
     4  H   -0.008732
     5  H    0.078612
     6  C   -0.591844
     7  H    0.269200
     8  H    0.030656
     9  C   -0.176928
    10  H   -0.011787
    11  H    0.562446
    12  H    0.070096
    13  H    0.035483
    14  H    0.091539
 Sum of Mulliken charges =   0.00000

 Dipole moment (field-independent basis, Debye):
    X=             -0.0748    Y=             -0.5987    Z=             -0.5696  Tot=              0.8298
 Quadrupole moment (field-independent basis, Debye-Ang):
   XX=            -30.2391   YY=            -29.9963   ZZ=            -29.2988
   XY=             -0.2102   XZ=             -0.8395   YZ=             -0.6300

 Normal termination of Gaussian 09 at Wed Aug 26 21:34:20 2020.
