 Gaussian 09, Revision D.01,
 Gaussian 09:  ES64L-G09RevD.01 24-Apr-2013

 --------------------
 #p B2PLYPD3/Def2QZVP
 --------------------

 ----------
 butane_opt
 ----------
 Symbolic Z-matrix:
 Charge =  0 Multiplicity = 1

                         Standard orientation:
 ---------------------------------------------------------------------
 Center     Atomic      Atomic             Coordinates (Angstroms)
 Number     Number       Type             X           Y           Z
 ---------------------------------------------------------------------
      1          6           0       -1.930217   -0.165415   -0.174748
      2          6           0       -0.515482    0.537857    0.222344
      3          1           0       -2.680036    0.582022   -0.045257
      4          1           0       -2.323262   -0.375879    0.434901
      5          1           0       -1.815802   -1.053627   -1.053581
      6          6           0        0.536484   -0.467254    0.238089
      7          1           0       -0.372862    1.251770    1.068407
      8          1           0       -0.122131    1.374911   -0.713154
      9          6           0        1.826757    0.066497   -0.181164
     10          1           0        0.023324   -0.978561   -0.567695
     11          1           0        0.818770   -1.401718    1.196294
     12          1           0        1.846440    0.870962   -1.145502
     13          1           0        2.743926   -0.731834   -0.414528
     14          1           0        2.376385    0.631844    0.612993
 ---------------------------------------------------------------------

 SCF Done:  E(RB2PLYPD3) =  -157.803334494     A.U. after   11 cycles
 E2(B2PLYPD3) =    -0.2546161567D+00 E(B2PLYPD3) =    -0.15805795065114D+03

 The electronic state is 1-A.
 Alpha  occ. eigenvalues --  -10.63902 -10.62742 -10.62325 -10.59308  -0.93230
 Alpha  occ. eigenvalues --   -0.86861  -0.75203  -0.64532  -0.55241  -0.49493
 Alpha  occ. eigenvalues --   -0.47212  -0.46495  -0.42939  -0.38927  -0.37466
 Alpha  occ. eigenvalues --   -0.36474  -0.34001
 Alpha virt. eigenvalues --    0.05370   0.05639   0.06212   0.08090   0.10142
 Alpha virt. eigenvalues --    0.11575   0.12126   0.14073   0.14387   0.15042
 Alpha virt. eigenvalues --    0.15363   0.15714   0.18459   0.19527   0.20969

 Mulliken charges:
               1
     1  C   -0.402330
     2  C   -0.031583
     3  H    0.034271
     4  H    0.294964
     5  H    0.073004
     6  C   -0.030491
     7  H    0.033258
     8  H    0.013044
     9  C   -0.133842
    10  H    0.046880
    11  H    0.016494
    12  H    0.022755
    13  H    0.024911
    14  H    0.038665
 Sum of Mulliken charges =   0.00000

 Dipole moment (field-independent basis, Debye):
    X=             -0.5231    Y=             -0.0526    Z=              0.3733  Tot=              0.6448
 Quadrupole moment (field-independent basis, Debye-Ang):
   XX=            -28.4197   YY=            -29.5469   ZZ=            -29.6845
   XY=              0.6078   XZ=             -0.5394   YZ=              0.7077

 Normal termination of Gaussian 09 at Wed Aug 26 20:42:48 2020.
