 Gaussian 09, Revision D.01,
 Gaussian 09:  ES64L-G09RevD.01 24-Apr-2013

 --------------------
 #p B2PLYPD3/Def2QZVP
 --------------------

 ----------
 butane_opt
 ----------
 Symbolic Z-matrix:
 Charge =  0 Multiplicity = 1

                         Standard orientation:
 ---------------------------------------------------------------------
 Center     Atomic      Atomic             Coordinates (Angstroms)
 Number     Number       Type             X           Y           Z
 ---------------------------------------------------------------------
      1          6           0       -1.971400    0.068387   -0.076816
      2          6           0       -0.657885   -0.498555    0.100144
      3          1           0       -2.848114   -0.605388   -0.238658
      4          1           0       -1.926718    0.604061   -0.945759
      5          1           0       -2.159909    0.570691    0.654066
      6          6           0        0.577251    0.660768    0.154336
      7          1           0       -0.302944   -1.137671   -0.863453
      8          1           0       -0.536066   -1.064647    1.038670
      9          6           0        2.009775   -0.170322   -0.059254
     10          1           0        0.391797    1.382975    1.040211
     11          1           0        0.673355    1.329771   -0.761231
     12          1           0        2.565824   -0.953821    1.033961
     13          1           0        2.600676    0.309154   -0.844244
     14          1           0        1.795654   -0.796799   -0.824022
 ---------------------------------------------------------------------

 SCF Done:  E(RB2PLYPD3) =  -157.965949970     A.U. after   11 cycles
 E2(B2PLYPD3) =    -0.2512948358D+00 E(B2PLYPD3) =    -0.15821724480549D+03

 The electronic state is 1-A.
 Alpha  occ. eigenvalues --  -10.64199 -10.63195 -10.62484 -10.56817  -0.90479
 Alpha  occ. eigenvalues --   -0.83505  -0.72653  -0.66434  -0.55035  -0.48880
 Alpha  occ. eigenvalues --   -0.47478  -0.46634  -0.42407  -0.40966  -0.38475
 Alpha  occ. eigenvalues --   -0.36995  -0.34262
 Alpha virt. eigenvalues --    0.04728   0.06145   0.07887   0.08179   0.10325
 Alpha virt. eigenvalues --    0.11519   0.12069   0.12718   0.14652   0.15161
 Alpha virt. eigenvalues --    0.15874   0.17501   0.18253   0.18558   0.20571

 Mulliken charges:
               1
     1  C   -0.155044
     2  C   -0.061091
     3  H    0.029635
     4  H    0.048267
     5  H    0.081335
     6  C   -0.059450
     7  H    0.016608
     8  H    0.054177
     9  C   -0.194891
    10  H    0.040451
    11  H    0.033057
    12  H    0.039291
    13  H    0.042998
    14  H    0.084657
 Sum of Mulliken charges =   0.00000

 Dipole moment (field-independent basis, Debye):
    X=             -0.4873    Y=              0.1026    Z=             -0.3985  Tot=              0.6378
 Quadrupole moment (field-independent basis, Debye-Ang):
   XX=            -30.6972   YY=            -29.7926   ZZ=            -27.3883
   XY=             -0.5162   XZ=             -1.6071   YZ=             -0.3053

 Normal termination of Gaussian 09 at Wed Aug 26 14:53:51 2020.
