 Gaussian 09, Revision D.01,
 Gaussian 09:  ES64L-G09RevD.01 24-Apr-2013

 --------------------
 #p B2PLYPD3/Def2QZVP
 --------------------

 ----------
 butane_opt
 ----------
 Symbolic Z-matrix:
 Charge =  0 Multiplicity = 1

                         Standard orientation:
 ---------------------------------------------------------------------
 Center     Atomic      Atomic             Coordinates (Angstroms)
 Number     Number       Type             X           Y           Z
 ---------------------------------------------------------------------
      1          6           0       -1.977626   -0.180890    0.131353
      2          6           0       -0.579568    0.628525   -0.233809
      3          1           0       -2.656236    0.500681    0.460558
      4          1           0       -1.886846   -0.739753    0.868234
      5          1           0       -2.605434   -0.774204   -0.684557
      6          6           0        0.622582   -0.544700   -0.050988
      7          1           0       -0.647722    1.414396    0.506134
      8          1           0       -0.356494    1.202807   -1.117562
      9          6           0        1.976359    0.051243    0.051450
     10          1           0        0.480070   -1.116914   -0.818043
     11          1           0        0.356453   -1.184376    0.844458
     12          1           0        1.907100    0.387350   -0.613037
     13          1           0        2.873779   -0.659866   -0.117938
     14          1           0        2.284850    1.244808    1.283718
 ---------------------------------------------------------------------

 SCF Done:  E(RB2PLYPD3) =  -157.781348646     A.U. after   11 cycles
 E2(B2PLYPD3) =    -0.2509520874D+00 E(B2PLYPD3) =    -0.15803230073337D+03

 The electronic state is 1-A.
 Alpha  occ. eigenvalues --  -10.62655 -10.61792 -10.61232 -10.59289  -0.92636
 Alpha  occ. eigenvalues --   -0.85041  -0.75071  -0.69903  -0.53460  -0.50481
 Alpha  occ. eigenvalues --   -0.48910  -0.47095  -0.44976  -0.39898  -0.39524
 Alpha  occ. eigenvalues --   -0.36720  -0.33784
 Alpha virt. eigenvalues --    0.01843   0.06149   0.07589   0.08139   0.10342
 Alpha virt. eigenvalues --    0.10851   0.12427   0.14030   0.14536   0.15161
 Alpha virt. eigenvalues --    0.15495   0.16417   0.18148   0.19969   0.20556

 Mulliken charges:
               1
     1  C   -0.152616
     2  C   -0.060217
     3  H    0.035283
     4  H    0.083531
     5  H    0.027393
     6  C   -0.055972
     7  H    0.034310
     8  H    0.035873
     9  C   -0.498438
    10  H    0.080301
    11  H    0.026527
    12  H    0.393521
    13  H    0.066628
    14  H   -0.016125
 Sum of Mulliken charges =   0.00000

 Dipole moment (field-independent basis, Debye):
    X=             -0.3917    Y=             -0.3172    Z=             -0.5941  Tot=              0.7791
 Quadrupole moment (field-independent basis, Debye-Ang):
   XX=            -30.1153   YY=            -28.6117   ZZ=            -28.6961
   XY=             -1.1545   XZ=             -2.3748   YZ=              0.0842

 Normal termination of Gaussian 09 at Wed Aug 26 11:54:09 2020.
