 Gaussian 09, Revision D.01,
 Gaussian 09:  ES64L-G09RevD.01 24-Apr-2013

 --------------------
 #p B2PLYPD3/Def2QZVP
 --------------------

 ----------
 butane_opt
 ----------
 Symbolic Z-matrix:
 Charge =  0 Multiplicity = 1

                         Standard orientation:
 ---------------------------------------------------------------------
 Center     Atomic      Atomic             Coordinates (Angstroms)
 Number     Number       Type             X           Y           Z
 ---------------------------------------------------------------------
      1          6           0        1.977978   -0.000458   -0.256363
      2          6           0        0.646129   -0.414430    0.362805
      3          1           0        2.823139   -0.812524   -0.626993
      4          1           0        2.460674    0.972289    0.586489
      5          1           0        1.347567    0.296828   -1.070445
      6          6           0       -0.511522    0.587078    0.017348
      7          1           0        0.724725   -0.951985    1.536729
      8          1           0        0.235670   -0.777539   -0.143901
      9          6           0       -2.069269   -0.202977   -0.143735
     10          1           0       -0.176665    0.829227   -0.849299
     11          1           0       -0.433917    1.712460    0.978879
     12          1           0       -2.278630   -0.974509   -0.853391
     13          1           0       -2.801391    0.467437   -0.215671
     14          1           0       -2.161071   -0.576967    0.777274
 ---------------------------------------------------------------------

 SCF Done:  E(RB2PLYPD3) =  -157.733854817     A.U. after   11 cycles
 E2(B2PLYPD3) =    -0.2545696384D+00 E(B2PLYPD3) =    -0.15798842445587D+03

 The electronic state is 1-A.
 Alpha  occ. eigenvalues --  -10.65701 -10.64253 -10.60270 -10.59676  -0.96137
 Alpha  occ. eigenvalues --   -0.83141  -0.74945  -0.68207  -0.54266  -0.50294
 Alpha  occ. eigenvalues --   -0.48434  -0.48260  -0.42516  -0.40654  -0.39094
 Alpha  occ. eigenvalues --   -0.36631  -0.33028
 Alpha virt. eigenvalues --    0.04134   0.06348   0.07149   0.08052   0.10305
 Alpha virt. eigenvalues --    0.11037   0.12211   0.13414   0.13588   0.14541
 Alpha virt. eigenvalues --    0.15910   0.16666   0.18094   0.18492   0.19518

 Mulliken charges:
               1
     1  C   -0.172291
     2  C   -0.464295
     3  H    0.062041
     4  H    0.036422
     5  H    0.060772
     6  C   -0.153296
     7  H    0.027806
     8  H    0.460146
     9  C   -0.150763
    10  H    0.116325
    11  H   -0.003341
    12  H    0.044587
    13  H    0.061559
    14  H    0.074329
 Sum of Mulliken charges =   0.00000

 Dipole moment (field-independent basis, Debye):
    X=             -0.6402    Y=             -0.6514    Z=             -0.5352  Tot=              1.0586
 Quadrupole moment (field-independent basis, Debye-Ang):
   XX=            -28.7247   YY=            -30.5967   ZZ=            -28.7881
   XY=             -0.1338   XZ=              0.5782   YZ=              0.7818

 Normal termination of Gaussian 09 at Wed Aug 26 14:24:03 2020.
