 Gaussian 09, Revision D.01,
 Gaussian 09:  ES64L-G09RevD.01 24-Apr-2013

 --------------------
 #p B2PLYPD3/Def2QZVP
 --------------------

 ----------
 butane_opt
 ----------
 Symbolic Z-matrix:
 Charge =  0 Multiplicity = 1

                         Standard orientation:
 ---------------------------------------------------------------------
 Center     Atomic      Atomic             Coordinates (Angstroms)
 Number     Number       Type             X           Y           Z
 ---------------------------------------------------------------------
      1          6           0       -1.923805    0.171215   -0.008797
      2          6           0       -0.505798   -0.544971    0.018389
      3          1           0       -2.714604   -0.623893   -0.468267
      4          1           0       -1.797568    0.343903   -0.665917
      5          1           0       -2.242915    1.219770    1.066649
      6          6           0        0.570224    0.418250   -0.072673
      7          1           0       -0.372330   -1.123732   -0.741623
      8          1           0       -0.570061   -1.128928    0.920285
      9          6           0        1.830164   -0.077082    0.071769
     10          1           0        0.463913    1.164614    0.685075
     11          1           0        0.633953    0.927845   -0.862391
     12          1           0        2.132753   -0.715336    1.101505
     13          1           0        2.712711    0.613062   -0.554938
     14          1           0        1.929442   -0.481783   -0.532507
 ---------------------------------------------------------------------

 SCF Done:  E(RB2PLYPD3) =  -157.491797049     A.U. after   11 cycles
 E2(B2PLYPD3) =    -0.2511586819D+00 E(B2PLYPD3) =    -0.15774295573052D+03

 The electronic state is 1-A.
 Alpha  occ. eigenvalues --  -10.60841 -10.59164 -10.58081 -10.56680  -0.97622
 Alpha  occ. eigenvalues --   -0.89911  -0.77718  -0.70678  -0.57882  -0.52101
 Alpha  occ. eigenvalues --   -0.50642  -0.46794  -0.42289  -0.39759  -0.39352
 Alpha  occ. eigenvalues --   -0.36892  -0.35243
 Alpha virt. eigenvalues --    0.03840   0.05154   0.07576   0.08201   0.10206
 Alpha virt. eigenvalues --    0.11098   0.11951   0.12750   0.14142   0.16006
 Alpha virt. eigenvalues --    0.16206   0.17307   0.18627   0.19209   0.21028

 Mulliken charges:
               1
     1  C   -0.727494
     2  C   -0.015383
     3  H    0.047737
     4  H    0.552142
     5  H    0.063987
     6  C    0.007959
     7  H    0.054352
     8  H    0.034492
     9  C   -0.534898
    10  H    0.024874
    11  H    0.043482
    12  H    0.057692
    13  H    0.009562
    14  H    0.381496
 Sum of Mulliken charges =   0.00000

 Dipole moment (field-independent basis, Debye):
    X=              0.0910    Y=             -0.2665    Z=             -0.8235  Tot=              0.8703
 Quadrupole moment (field-independent basis, Debye-Ang):
   XX=            -31.7602   YY=            -28.9093   ZZ=            -26.8360
   XY=             -0.5880   XZ=             -0.5304   YZ=              0.4772

 Normal termination of Gaussian 09 at Wed Aug 26 10:02:25 2020.
