 Gaussian 09, Revision D.01,
 Gaussian 09:  ES64L-G09RevD.01 24-Apr-2013

 --------------------
 #p B2PLYPD3/Def2QZVP
 --------------------

 ----------
 butane_opt
 ----------
 Symbolic Z-matrix:
 Charge =  0 Multiplicity = 1

                         Standard orientation:
 ---------------------------------------------------------------------
 Center     Atomic      Atomic             Coordinates (Angstroms)
 Number     Number       Type             X           Y           Z
 ---------------------------------------------------------------------
      1          6           0        1.984902   -0.124604    0.113562
      2          6           0        0.575331    0.548254   -0.028401
      3          1           0        2.720908    0.523492   -0.488636
      4          1           0        1.927856   -0.530677   -0.617128
      5          1           0        2.344204   -1.230224    1.132158
      6          6           0       -0.605634   -0.471646   -0.126928
      7          1           0        0.567953    1.406478   -0.937120
      8          1           0        0.362412    1.071092    0.784350
      9          6           0       -1.951668    0.071650    0.090567
     10          1           0       -0.449389   -0.909785    0.529974
     11          1           0       -0.490584   -1.165995   -1.097343
     12          1           0       -2.154534    0.882923    1.173039
     13          1           0       -2.790495   -0.741290   -0.133335
     14          1           0       -2.055910    0.552063   -0.638765
 ---------------------------------------------------------------------

 SCF Done:  E(RB2PLYPD3) =  -157.738609449     A.U. after   11 cycles
 E2(B2PLYPD3) =    -0.2517512864D+00 E(B2PLYPD3) =    -0.15799036073530D+03

 The electronic state is 1-A.
 Alpha  occ. eigenvalues --  -10.62051 -10.61577 -10.60703 -10.58362  -0.93708
 Alpha  occ. eigenvalues --   -0.86351  -0.75867  -0.69499  -0.54070  -0.48343
 Alpha  occ. eigenvalues --   -0.48032  -0.45501  -0.42137  -0.40241  -0.39660
 Alpha  occ. eigenvalues --   -0.37535  -0.36124
 Alpha virt. eigenvalues --    0.03210   0.05389   0.06663   0.07809   0.10816
 Alpha virt. eigenvalues --    0.11280   0.12116   0.12590   0.13971   0.15297
 Alpha virt. eigenvalues --    0.15832   0.16535   0.18283   0.19028   0.20726

 Mulliken charges:
               1
     1  C   -0.363010
     2  C   -0.012387
     3  H    0.042523
     4  H    0.239823
     5  H    0.042730
     6  C   -0.277525
     7  H   -0.002482
     8  H    0.056724
     9  C   -0.218696
    10  H    0.273953
    11  H    0.017082
    12  H    0.028237
    13  H    0.039248
    14  H    0.133781
 Sum of Mulliken charges =   0.00000

 Dipole moment (field-independent basis, Debye):
    X=             -0.1762    Y=             -0.2082    Z=             -0.6318  Tot=              0.6881
 Quadrupole moment (field-independent basis, Debye-Ang):
   XX=            -30.9198   YY=            -28.9125   ZZ=            -28.1791
   XY=             -0.4751   XZ=             -0.7939   YZ=             -0.3580

 Normal termination of Gaussian 09 at Wed Aug 26 22:11:59 2020.
