 Gaussian 09, Revision D.01,
 Gaussian 09:  ES64L-G09RevD.01 24-Apr-2013

 --------------------
 #p B2PLYPD3/Def2QZVP
 --------------------

 ----------
 butane_opt
 ----------
 Symbolic Z-matrix:
 Charge =  0 Multiplicity = 1

                         Standard orientation:
 ---------------------------------------------------------------------
 Center     Atomic      Atomic             Coordinates (Angstroms)
 Number     Number       Type             X           Y           Z
 ---------------------------------------------------------------------
      1          6           0       -1.904331    0.201692    0.023832
      2          6           0       -0.557981   -0.567949    0.045895
      3          1           0       -2.609990   -0.721279   -0.774330
      4          1           0       -1.717481    0.346550   -0.572749
      5          1           0       -2.592672    1.473006    1.156007
      6          6           0        0.575429    0.427681   -0.113136
      7          1           0       -0.474589   -1.317889   -0.760894
      8          1           0       -0.165527   -1.286998    1.121483
      9          6           0        1.875775   -0.080383    0.069990
     10          1           0        0.496974    0.742183    0.636181
     11          1           0        0.548251    1.191096   -1.185446
     12          1           0        1.782824   -0.601381    1.046259
     13          1           0        2.901977    1.022264   -0.118285
     14          1           0        1.896877   -0.733791   -0.707711
 ---------------------------------------------------------------------

 SCF Done:  E(RB2PLYPD3) =  -157.321366172     A.U. after   13 cycles
 E2(B2PLYPD3) =    -0.2622094934D+00 E(B2PLYPD3) =    -0.15758357566534D+03

 The electronic state is 1-A.
 Alpha  occ. eigenvalues --  -10.65545 -10.65147 -10.62530 -10.58824  -0.97737
 Alpha  occ. eigenvalues --   -0.90882  -0.73772  -0.67818  -0.56511  -0.49147
 Alpha  occ. eigenvalues --   -0.48271  -0.44431  -0.40568  -0.38863  -0.38356
 Alpha  occ. eigenvalues --   -0.36304  -0.33951
 Alpha virt. eigenvalues --   -0.03206   0.03816   0.04813   0.05896   0.09245
 Alpha virt. eigenvalues --    0.10188   0.11651   0.12061   0.13828   0.14587
 Alpha virt. eigenvalues --    0.15561   0.16040   0.17336   0.18451   0.19079

 Mulliken charges:
               1
     1  C   -0.879751
     2  C    0.024764
     3  H    0.018774
     4  H    0.727142
     5  H    0.080195
     6  C   -0.335953
     7  H    0.047709
     8  H   -0.005254
     9  C   -0.147725
    10  H    0.304093
    11  H    0.023586
    12  H    0.060831
    13  H    0.015983
    14  H    0.065605
 Sum of Mulliken charges =   0.00000

 Dipole moment (field-independent basis, Debye):
    X=              0.0162    Y=              0.1735    Z=             -0.3359  Tot=              0.3784
 Quadrupole moment (field-independent basis, Debye-Ang):
   XX=            -34.1286   YY=            -29.3987   ZZ=            -28.1147
   XY=             -1.2167   XZ=              0.0567   YZ=              1.3982

 Normal termination of Gaussian 09 at Wed Aug 26 13:44:49 2020.
