 Gaussian 09, Revision D.01,
 Gaussian 09:  ES64L-G09RevD.01 24-Apr-2013

 --------------------
 #p B2PLYPD3/Def2QZVP
 --------------------

 ----------
 butane_opt
 ----------
 Symbolic Z-matrix:
 Charge =  0 Multiplicity = 1

                         Standard orientation:
 ---------------------------------------------------------------------
 Center     Atomic      Atomic             Coordinates (Angstroms)
 Number     Number       Type             X           Y           Z
 ---------------------------------------------------------------------
      1          6           0        1.993323    0.073439    0.208834
      2          6           0        0.653935   -0.470932   -0.225383
      3          1           0        2.915512   -0.772973   -0.188818
      4          1           0        1.864868    0.822010    1.361926
      5          1           0        2.014304    0.493013   -0.533343
      6          6           0       -0.517394    0.631835   -0.170065
      7          1           0        0.373960   -1.107679    0.521958
      8          1           0        0.359981   -1.123027   -1.044726
      9          6           0       -2.005197   -0.157077    0.183388
     10          1           0       -0.623261    1.681901   -1.199117
     11          1           0       -0.225948    0.814421    0.445760
     12          1           0       -2.551946   -0.938589   -0.821536
     13          1           0       -2.747618    0.457690    0.433720
     14          1           0       -2.127853   -0.790352    1.043528
 ---------------------------------------------------------------------

 SCF Done:  E(RB2PLYPD3) =  -157.604336881     A.U. after   11 cycles
 E2(B2PLYPD3) =    -0.2549049151D+00 E(B2PLYPD3) =    -0.15785924179588D+03

 The electronic state is 1-A.
 Alpha  occ. eigenvalues --  -10.62930 -10.62607 -10.62484 -10.60558  -0.94052
 Alpha  occ. eigenvalues --   -0.84098  -0.76369  -0.69861  -0.53854  -0.48014
 Alpha  occ. eigenvalues --   -0.46211  -0.45787  -0.41927  -0.40612  -0.38895
 Alpha  occ. eigenvalues --   -0.35817  -0.35277
 Alpha virt. eigenvalues --    0.03875   0.05386   0.06118   0.07920   0.10185
 Alpha virt. eigenvalues --    0.11206   0.11905   0.13101   0.13754   0.14440
 Alpha virt. eigenvalues --    0.15198   0.15651   0.18378   0.19202   0.20494

 Mulliken charges:
               1
     1  C   -0.326885
     2  C   -0.061470
     3  H    0.041156
     4  H    0.064930
     5  H    0.229975
     6  C   -0.632563
     7  H    0.060255
     8  H    0.043031
     9  C   -0.132316
    10  H    0.034070
    11  H    0.561527
    12  H    0.009071
    13  H    0.065765
    14  H    0.043455
 Sum of Mulliken charges =   0.00000

 Dipole moment (field-independent basis, Debye):
    X=              0.0198    Y=              0.0414    Z=              0.3861  Tot=              0.3888
 Quadrupole moment (field-independent basis, Debye-Ang):
   XX=            -30.1977   YY=            -29.5312   ZZ=            -28.2680
   XY=              0.0157   XZ=             -1.6417   YZ=              0.4982

 Normal termination of Gaussian 09 at Wed Aug 26 16:38:40 2020.
