 Gaussian 09, Revision D.01,
 Gaussian 09:  ES64L-G09RevD.01 24-Apr-2013

 --------------------
 #p B2PLYPD3/Def2QZVP
 --------------------

 ----------
 butane_opt
 ----------
 Symbolic Z-matrix:
 Charge =  0 Multiplicity = 1

                         Standard orientation:
 ---------------------------------------------------------------------
 Center     Atomic      Atomic             Coordinates (Angstroms)
 Number     Number       Type             X           Y           Z
 ---------------------------------------------------------------------
      1          6           0       -2.062790   -0.135650   -0.137277
      2          6           0       -0.519834    0.562657    0.086429
      3          1           0       -2.759385    0.562499   -0.525731
      4          1           0       -2.674000   -1.092320    0.982322
      5          1           0       -1.939414   -0.685019   -0.797905
      6          6           0        0.594923   -0.438278    0.083356
      7          1           0       -0.637250    1.612417    1.309560
      8          1           0       -0.076767    0.951010   -0.586336
      9          6           0        1.969661    0.058064   -0.089784
     10          1           0        0.621094   -1.190138   -0.812873
     11          1           0        0.803769   -1.039321    1.048070
     12          1           0        2.152400    0.804922   -1.140618
     13          1           0        2.607187   -0.651393    0.211419
     14          1           0        2.010601    0.446585    0.655749
 ---------------------------------------------------------------------

 SCF Done:  E(RB2PLYPD3) =  -157.720911117     A.U. after   12 cycles
 E2(B2PLYPD3) =    -0.2545978924D+00 E(B2PLYPD3) =    -0.15797550900892D+03

 The electronic state is 1-A.
 Alpha  occ. eigenvalues --  -10.64872 -10.63527 -10.62437 -10.58023  -0.94978
 Alpha  occ. eigenvalues --   -0.85660  -0.78066  -0.66311  -0.54598  -0.51095
 Alpha  occ. eigenvalues --   -0.50260  -0.46877  -0.41271  -0.40529  -0.38482
 Alpha  occ. eigenvalues --   -0.36077  -0.33632
 Alpha virt. eigenvalues --    0.02488   0.04458   0.05823   0.08031   0.09358
 Alpha virt. eigenvalues --    0.10657   0.12001   0.12985   0.13802   0.14837
 Alpha virt. eigenvalues --    0.15421   0.15999   0.17645   0.19303   0.20099

 Mulliken charges:
               1
     1  C   -0.243771
     2  C   -0.168983
     3  H    0.066824
     4  H    0.017328
     5  H    0.167766
     6  C   -0.021454
     7  H   -0.021390
     8  H    0.172291
     9  C   -0.276512
    10  H    0.023773
    11  H    0.015194
    12  H    0.032152
    13  H    0.053392
    14  H    0.183390
 Sum of Mulliken charges =   0.00000

 Dipole moment (field-independent basis, Debye):
    X=              0.4056    Y=             -0.3272    Z=             -0.7002  Tot=              0.8729
 Quadrupole moment (field-independent basis, Debye-Ang):
   XX=            -29.5045   YY=            -30.3979   ZZ=            -28.6746
   XY=             -0.6812   XZ=              2.0076   YZ=             -0.7961

 Normal termination of Gaussian 09 at Wed Aug 26 17:39:34 2020.
