 Gaussian 09, Revision D.01,
 Gaussian 09:  ES64L-G09RevD.01 24-Apr-2013

 --------------------
 #p B2PLYPD3/Def2QZVP
 --------------------

 ----------
 butane_opt
 ----------
 Symbolic Z-matrix:
 Charge =  0 Multiplicity = 1

                         Standard orientation:
 ---------------------------------------------------------------------
 Center     Atomic      Atomic             Coordinates (Angstroms)
 Number     Number       Type             X           Y           Z
 ---------------------------------------------------------------------
      1          6           0       -2.010723    0.170387   -0.175068
      2          6           0       -0.503668   -0.618303    0.222781
      3          1           0       -2.709044   -0.517579   -0.602126
      4          1           0       -1.928949    0.499437   -0.939916
      5          1           0       -2.670672    0.935891    0.773331
      6          6           0        0.575382    0.470016    0.137135
      7          1           0       -0.280898   -0.821381   -0.407258
      8          1           0       -0.460379   -1.333420    1.200820
      9          6           0        1.967500   -0.103476   -0.175607
     10          1           0        0.720699    1.367904    1.116830
     11          1           0        0.494431    0.971172   -0.767509
     12          1           0        1.683521   -0.659442    0.565002
     13          1           0        2.812086    0.849953    0.000424
     14          1           0        2.168260   -0.804282   -0.995045
 ---------------------------------------------------------------------

 SCF Done:  E(RB2PLYPD3) =  -157.621288413     A.U. after   11 cycles
 E2(B2PLYPD3) =    -0.2532151068D+00 E(B2PLYPD3) =    -0.15787450351967D+03

 The electronic state is 1-A.
 Alpha  occ. eigenvalues --  -10.62965 -10.61142 -10.60822 -10.60084  -0.95541
 Alpha  occ. eigenvalues --   -0.84892  -0.78567  -0.66508  -0.56312  -0.51500
 Alpha  occ. eigenvalues --   -0.47701  -0.45429  -0.43942  -0.40765  -0.39237
 Alpha  occ. eigenvalues --   -0.36785  -0.32242
 Alpha virt. eigenvalues --    0.05062   0.05863   0.07829   0.08183   0.10400
 Alpha virt. eigenvalues --    0.10906   0.12552   0.12610   0.14680   0.15779
 Alpha virt. eigenvalues --    0.15968   0.16392   0.18267   0.19144   0.20893

 Mulliken charges:
               1
     1  C   -0.259775
     2  C   -0.683929
     3  H    0.033139
     4  H    0.179858
     5  H    0.048366
     6  C   -0.035420
     7  H    0.605345
     8  H    0.079745
     9  C   -0.231058
    10  H    0.019015
    11  H    0.058441
    12  H    0.084161
    13  H    0.052060
    14  H    0.050051
 Sum of Mulliken charges =   0.00000

 Dipole moment (field-independent basis, Debye):
    X=             -0.2033    Y=             -0.2627    Z=             -0.5853  Tot=              0.6730
 Quadrupole moment (field-independent basis, Debye-Ang):
   XX=            -30.9879   YY=            -29.1994   ZZ=            -27.6600
   XY=              0.5341   XZ=              0.1300   YZ=              0.3197

 Normal termination of Gaussian 09 at Wed Aug 26 10:32:28 2020.
