 Gaussian 09, Revision D.01,
 Gaussian 09:  ES64L-G09RevD.01 24-Apr-2013

 --------------------
 #p B2PLYPD3/Def2QZVP
 --------------------

 ----------
 butane_opt
 ----------
 Symbolic Z-matrix:
 Charge =  0 Multiplicity = 1

                         Standard orientation:
 ---------------------------------------------------------------------
 Center     Atomic      Atomic             Coordinates (Angstroms)
 Number     Number       Type             X           Y           Z
 ---------------------------------------------------------------------
      1          6           0        1.920924    0.084966   -0.048476
      2          6           0        0.603274   -0.416486    0.093591
      3          1           0        2.751155   -0.795789   -0.084441
      4          1           0        1.948906    0.639858    0.665549
      5          1           0        2.006851    0.740212   -0.989819
      6          6           0       -0.568045    0.548213    0.058054
      7          1           0        0.451977   -1.070138    1.029095
      8          1           0        0.427607   -1.085125   -0.823037
      9          6           0       -1.944077   -0.164732   -0.090425
     10          1           0       -0.387367    0.888716   -0.636380
     11          1           0       -0.473442    1.384252    0.974367
     12          1           0       -1.981555   -0.668918   -0.855992
     13          1           0       -2.610292    0.512324   -0.275699
     14          1           0       -2.206301   -0.857154    0.919896
 ---------------------------------------------------------------------

 SCF Done:  E(RB2PLYPD3) =  -157.901388634     A.U. after   11 cycles
 E2(B2PLYPD3) =    -0.2466675738D+00 E(B2PLYPD3) =    -0.15814805620773D+03

 The electronic state is 1-A.
 Alpha  occ. eigenvalues --  -10.60318 -10.58887 -10.58691 -10.58448  -0.94219
 Alpha  occ. eigenvalues --   -0.86243  -0.76221  -0.66766  -0.56070  -0.51252
 Alpha  occ. eigenvalues --   -0.50052  -0.47569  -0.43644  -0.42174  -0.40016
 Alpha  occ. eigenvalues --   -0.36586  -0.36150
 Alpha virt. eigenvalues --    0.05602   0.06878   0.07978   0.08691   0.10947
 Alpha virt. eigenvalues --    0.11880   0.12938   0.13610   0.15088   0.15145
 Alpha virt. eigenvalues --    0.15980   0.16423   0.19410   0.19978   0.22237

 Mulliken charges:
               1
     1  C   -0.184609
     2  C   -0.010050
     3  H    0.050530
     4  H    0.100359
     5  H    0.025639
     6  C   -0.315966
     7  H    0.021361
     8  H    0.009407
     9  C   -0.135108
    10  H    0.279771
    11  H    0.011643
    12  H    0.067087
    13  H    0.051255
    14  H    0.028681
 Sum of Mulliken charges =   0.00000

 Dipole moment (field-independent basis, Debye):
    X=             -0.0764    Y=              0.1969    Z=             -0.3951  Tot=              0.4480
 Quadrupole moment (field-independent basis, Debye-Ang):
   XX=            -29.4282   YY=            -29.1338   ZZ=            -27.7785
   XY=             -0.3668   XZ=              0.7563   YZ=             -0.1588

 Normal termination of Gaussian 09 at Wed Aug 26 10:54:27 2020.
