 Gaussian 09, Revision D.01,
 Gaussian 09:  ES64L-G09RevD.01 24-Apr-2013

 --------------------
 #p B2PLYPD3/Def2QZVP
 --------------------

 ----------
 butane_opt
 ----------
 Symbolic Z-matrix:
 Charge =  0 Multiplicity = 1

                         Standard orientation:
 ---------------------------------------------------------------------
 Center     Atomic      Atomic             Coordinates (Angstroms)
 Number     Number       Type             X           Y           Z
 ---------------------------------------------------------------------
      1          6           0        1.913259    0.077563   -0.069271
      2          6           0        0.634995   -0.511205    0.038352
      3          1           0        2.684254   -0.727335   -0.022540
      4          1           0        2.135751    0.763840    0.830695
      5          1           0        1.972577    0.806808   -0.983154
      6          6           0       -0.525391    0.577615    0.079861
      7          1           0        0.556817   -1.204903    0.931968
      8          1           0        0.470559   -1.070549   -0.845353
      9          6           0       -2.009332   -0.141772   -0.101049
     10          1           0       -0.375438    1.144301   -0.704982
     11          1           0       -0.471906    1.425717    1.138993
     12          1           0       -2.046651   -0.622509   -0.809626
     13          1           0       -2.778599    0.502711   -0.243062
     14          1           0       -2.228548   -1.031286    1.019695
 ---------------------------------------------------------------------

 SCF Done:  E(RB2PLYPD3) =  -157.962135558     A.U. after   11 cycles
 E2(B2PLYPD3) =    -0.2490696117D+00 E(B2PLYPD3) =    -0.15821120516931D+03

 The electronic state is 1-A.
 Alpha  occ. eigenvalues --  -10.63331 -10.60927 -10.60705 -10.60570  -0.91575
 Alpha  occ. eigenvalues --   -0.84208  -0.73763  -0.66426  -0.53597  -0.50490
 Alpha  occ. eigenvalues --   -0.49348  -0.47587  -0.42832  -0.39475  -0.37582
 Alpha  occ. eigenvalues --   -0.37214  -0.36684
 Alpha virt. eigenvalues --    0.04866   0.06283   0.07674   0.08294   0.10559
 Alpha virt. eigenvalues --    0.11256   0.12303   0.12947   0.14557   0.15002
 Alpha virt. eigenvalues --    0.15333   0.16374   0.19217   0.19894   0.20452

 Mulliken charges:
               1
     1  C   -0.150787
     2  C   -0.022297
     3  H    0.052949
     4  H    0.038701
     5  H    0.033613
     6  C   -0.084808
     7  H    0.034366
     8  H    0.049083
     9  C   -0.235676
    10  H    0.077267
    11  H    0.003113
    12  H    0.143604
    13  H    0.056662
    14  H    0.004211
 Sum of Mulliken charges =   0.00000

 Dipole moment (field-independent basis, Debye):
    X=              0.1253    Y=             -0.0308    Z=             -0.7196  Tot=              0.7311
 Quadrupole moment (field-independent basis, Debye-Ang):
   XX=            -30.2747   YY=            -29.1403   ZZ=            -28.5043
   XY=             -0.9162   XZ=              1.5381   YZ=             -0.3371

 Normal termination of Gaussian 09 at Wed Aug 26 11:40:02 2020.
