 Gaussian 09, Revision D.01,
 Gaussian 09:  ES64L-G09RevD.01 24-Apr-2013

 --------------------
 #p B2PLYPD3/Def2QZVP
 --------------------

 ----------
 butane_opt
 ----------
 Symbolic Z-matrix:
 Charge =  0 Multiplicity = 1

                         Standard orientation:
 ---------------------------------------------------------------------
 Center     Atomic      Atomic             Coordinates (Angstroms)
 Number     Number       Type             X           Y           Z
 ---------------------------------------------------------------------
      1          6           0       -1.814045    0.054805   -0.219427
      2          6           0       -0.582887   -0.385452    0.270361
      3          1           0       -2.661473   -0.727400   -0.234081
      4          1           0       -1.695736    0.598622   -1.158771
      5          1           0       -2.392936    0.566884    0.560574
      6          6           0        0.465295    0.633828    0.178819
      7          1           0       -0.291114   -1.332671   -0.604252
      8          1           0       -0.840161   -0.909823    1.158600
      9          6           0        1.949948   -0.187195   -0.136583
     10          1           0        0.584610    1.325187    0.947574
     11          1           0        0.257723    0.855448   -0.645761
     12          1           0        2.365977   -0.797829    0.849800
     13          1           0        2.716688    0.403876   -0.627062
     14          1           0        1.846556   -0.678208   -0.805641
 ---------------------------------------------------------------------

 SCF Done:  E(RB2PLYPD3) =  -157.916271729     A.U. after   11 cycles
 E2(B2PLYPD3) =    -0.2488187434D+00 E(B2PLYPD3) =    -0.15816509047287D+03

 The electronic state is 1-A.
 Alpha  occ. eigenvalues --  -10.61144 -10.59680 -10.59035 -10.58862  -0.94613
 Alpha  occ. eigenvalues --   -0.84392  -0.76662  -0.66478  -0.58233  -0.50060
 Alpha  occ. eigenvalues --   -0.48738  -0.47809  -0.45195  -0.42069  -0.39449
 Alpha  occ. eigenvalues --   -0.36545  -0.33244
 Alpha virt. eigenvalues --    0.05503   0.06837   0.08017   0.08549   0.10370
 Alpha virt. eigenvalues --    0.11528   0.12508   0.12791   0.14681   0.15898
 Alpha virt. eigenvalues --    0.16696   0.17540   0.18578   0.19411   0.21643

 Mulliken charges:
               1
     1  C   -0.116253
     2  C   -0.020498
     3  H    0.031215
     4  H    0.048078
     5  H    0.017480
     6  C   -0.197118
     7  H   -0.013129
     8  H    0.040313
     9  C   -0.263108
    10  H    0.060463
    11  H    0.171895
    12  H    0.042455
    13  H    0.026670
    14  H    0.171538
 Sum of Mulliken charges =   0.00000

 Dipole moment (field-independent basis, Debye):
    X=             -0.3604    Y=              0.2078    Z=             -0.0131  Tot=              0.4162
 Quadrupole moment (field-independent basis, Debye-Ang):
   XX=            -29.4815   YY=            -29.7925   ZZ=            -27.3693
   XY=              0.3964   XZ=             -1.3561   YZ=             -0.1810

 Normal termination of Gaussian 09 at Wed Aug 26 13:40:38 2020.
