 Gaussian 09, Revision D.01,
 Gaussian 09:  ES64L-G09RevD.01 24-Apr-2013

 --------------------
 #p B2PLYPD3/Def2QZVP
 --------------------

 ----------
 butane_opt
 ----------
 Symbolic Z-matrix:
 Charge =  0 Multiplicity = 1

                         Standard orientation:
 ---------------------------------------------------------------------
 Center     Atomic      Atomic             Coordinates (Angstroms)
 Number     Number       Type             X           Y           Z
 ---------------------------------------------------------------------
      1          6           0        1.913526   -0.055472   -0.018163
      2          6           0        0.620245    0.399461    0.067845
      3          1           0        2.756442    0.767735    0.034078
      4          1           0        1.839336   -0.616598   -0.947767
      5          1           0        1.900314   -0.861739    0.949230
      6          6           0       -0.522132   -0.547278   -0.154162
      7          1           0        0.611557    0.913764   -0.583164
      8          1           0        0.457914    1.127676    1.173244
      9          6           0       -1.942760    0.176909    0.038513
     10          1           0       -0.384801   -1.200112    0.464085
     11          1           0       -0.489176   -0.995432   -0.936909
     12          1           0       -1.916730    0.244291    0.663325
     13          1           0       -2.901475   -0.615361    0.622197
     14          1           0       -2.286656    1.394052   -1.042517
 ---------------------------------------------------------------------

 SCF Done:  E(RB2PLYPD3) =  -157.372596389     A.U. after   12 cycles
 E2(B2PLYPD3) =    -0.2536525158D+00 E(B2PLYPD3) =    -0.15762624890477D+03

 The electronic state is 1-A.
 Alpha  occ. eigenvalues --  -10.63891 -10.62134 -10.58564 -10.57798  -0.96821
 Alpha  occ. eigenvalues --   -0.89491  -0.79204  -0.68938  -0.57546  -0.51887
 Alpha  occ. eigenvalues --   -0.49457  -0.48134  -0.43018  -0.38827  -0.37658
 Alpha  occ. eigenvalues --   -0.36423  -0.35244
 Alpha virt. eigenvalues --    0.01302   0.05137   0.06123   0.07737   0.09670
 Alpha virt. eigenvalues --    0.10811   0.11813   0.12299   0.14034   0.15036
 Alpha virt. eigenvalues --    0.15670   0.16994   0.18894   0.19189   0.20049

 Mulliken charges:
               1
     1  C   -0.163730
     2  C   -0.158672
     3  H    0.067755
     4  H    0.056502
     5  H    0.011678
     6  C   -0.046207
     7  H    0.196454
     8  H   -0.016622
     9  C   -0.823237
    10  H    0.076653
    11  H    0.059593
    12  H    0.677973
    13  H    0.011791
    14  H    0.050068
 Sum of Mulliken charges =   0.00000

 Dipole moment (field-independent basis, Debye):
    X=              0.5331    Y=              0.0708    Z=             -0.1590  Tot=              0.5608
 Quadrupole moment (field-independent basis, Debye-Ang):
   XX=            -32.1995   YY=            -29.0957   ZZ=            -27.8265
   XY=              0.8311   XZ=             -1.6149   YZ=             -1.0182

 Normal termination of Gaussian 09 at Wed Aug 26 22:58:17 2020.
