 Gaussian 09, Revision D.01,
 Gaussian 09:  ES64L-G09RevD.01 24-Apr-2013

 --------------------
 #p B2PLYPD3/Def2QZVP
 --------------------

 ----------
 butane_opt
 ----------
 Symbolic Z-matrix:
 Charge =  0 Multiplicity = 1

                         Standard orientation:
 ---------------------------------------------------------------------
 Center     Atomic      Atomic             Coordinates (Angstroms)
 Number     Number       Type             X           Y           Z
 ---------------------------------------------------------------------
      1          6           0        1.821537    0.059665   -0.202568
      2          6           0        0.540812   -0.485568    0.244788
      3          1           0        2.664161   -0.675416   -0.330839
      4          1           0        2.453138    0.719651    0.632446
      5          1           0        1.734260    0.616187   -0.974546
      6          6           0       -0.449714    0.552636    0.193745
      7          1           0        0.567163   -1.218035    1.277980
      8          1           0        0.309923   -0.940117   -0.614481
      9          6           0       -1.947813   -0.183440   -0.157751
     10          1           0       -0.145005    1.440307   -0.916449
     11          1           0       -0.639666    1.278113    1.083422
     12          1           0       -1.906065   -1.026003   -1.026194
     13          1           0       -2.728395    0.643465   -0.042323
     14          1           0       -2.098445   -0.497907    0.441703
 ---------------------------------------------------------------------

 SCF Done:  E(RB2PLYPD3) =  -157.740538234     A.U. after   11 cycles
 E2(B2PLYPD3) =    -0.2520150136D+00 E(B2PLYPD3) =    -0.15799255324714D+03

 The electronic state is 1-A.
 Alpha  occ. eigenvalues --  -10.65391 -10.61125 -10.59666 -10.58707  -0.93916
 Alpha  occ. eigenvalues --   -0.86146  -0.75336  -0.65272  -0.55189  -0.50395
 Alpha  occ. eigenvalues --   -0.48709  -0.47470  -0.43776  -0.42529  -0.37214
 Alpha  occ. eigenvalues --   -0.35636  -0.34728
 Alpha virt. eigenvalues --    0.05156   0.05861   0.06700   0.08161   0.10347
 Alpha virt. eigenvalues --    0.11528   0.12199   0.14202   0.14443   0.15219
 Alpha virt. eigenvalues --    0.15434   0.16325   0.17803   0.20087   0.20995

 Mulliken charges:
               1
     1  C   -0.111571
     2  C   -0.095848
     3  H    0.023439
     4  H   -0.002465
     5  H    0.078678
     6  C   -0.033991
     7  H    0.034208
     8  H    0.100667
     9  C   -0.599108
    10  H   -0.018589
    11  H    0.047780
    12  H    0.061780
    13  H    0.059198
    14  H    0.455821
 Sum of Mulliken charges =   0.00000

 Dipole moment (field-independent basis, Debye):
    X=             -0.1398    Y=             -0.5297    Z=              0.3249  Tot=              0.6369
 Quadrupole moment (field-independent basis, Debye-Ang):
   XX=            -30.0630   YY=            -29.3853   ZZ=            -28.3542
   XY=             -0.2001   XZ=             -1.3115   YZ=              0.3055

 Normal termination of Gaussian 09 at Wed Aug 26 10:36:11 2020.
