 Gaussian 09, Revision D.01,
 Gaussian 09:  ES64L-G09RevD.01 24-Apr-2013

 --------------------
 #p B2PLYPD3/Def2QZVP
 --------------------

 ----------
 butane_opt
 ----------
 Symbolic Z-matrix:
 Charge =  0 Multiplicity = 1

                         Standard orientation:
 ---------------------------------------------------------------------
 Center     Atomic      Atomic             Coordinates (Angstroms)
 Number     Number       Type             X           Y           Z
 ---------------------------------------------------------------------
      1          6           0        1.948334   -0.174762   -0.140645
      2          6           0        0.530773    0.606576    0.072957
      3          1           0        2.689234    0.335674   -0.184412
      4          1           0        1.789631   -1.070448   -0.999950
      5          1           0        2.346065   -0.591613    0.756574
      6          6           0       -0.560097   -0.368802    0.206011
      7          1           0        0.205730    0.980156   -0.800479
      8          1           0        0.503639    1.439518    1.000581
      9          6           0       -1.853408    0.054159   -0.149445
     10          1           0       -0.750530   -1.357901    1.672135
     11          1           0       -0.604205   -0.876056   -0.372592
     12          1           0       -2.458369    0.896805    0.665466
     13          1           0       -2.625431   -0.810517   -0.696404
     14          1           0       -1.489376    0.351353   -0.974190
 ---------------------------------------------------------------------

 SCF Done:  E(RB2PLYPD3) =  -157.704127081     A.U. after   12 cycles
 E2(B2PLYPD3) =    -0.2538872660D+00 E(B2PLYPD3) =    -0.15795801434657D+03

 The electronic state is 1-A.
 Alpha  occ. eigenvalues --  -10.63823 -10.63205 -10.62149 -10.60791  -0.99797
 Alpha  occ. eigenvalues --   -0.86131  -0.76477  -0.68858  -0.55707  -0.51627
 Alpha  occ. eigenvalues --   -0.50032  -0.48131  -0.43176  -0.41720  -0.39954
 Alpha  occ. eigenvalues --   -0.37516  -0.30231
 Alpha virt. eigenvalues --    0.02674   0.05268   0.06198   0.07640   0.10001
 Alpha virt. eigenvalues --    0.10365   0.11525   0.13264   0.14274   0.14779
 Alpha virt. eigenvalues --    0.16088   0.16535   0.17692   0.19064   0.20706

 Mulliken charges:
               1
     1  C   -0.148738
     2  C   -0.048518
     3  H    0.077095
     4  H    0.034954
     5  H    0.046480
     6  C   -0.363826
     7  H    0.079742
     8  H    0.041241
     9  C   -0.171932
    10  H   -0.110177
    11  H    0.388820
    12  H    0.045784
    13  H    0.041993
    14  H    0.087080
 Sum of Mulliken charges =   0.00000

 Dipole moment (field-independent basis, Debye):
    X=              0.4942    Y=              0.8607    Z=             -1.4439  Tot=              1.7521
 Quadrupole moment (field-independent basis, Debye-Ang):
   XX=            -28.5948   YY=            -30.9127   ZZ=            -30.0634
   XY=              0.1218   XZ=              1.8410   YZ=              2.7640

 Normal termination of Gaussian 09 at Wed Aug 26 10:31:55 2020.
