 Gaussian 09, Revision D.01,
 Gaussian 09:  ES64L-G09RevD.01 24-Apr-2013

 --------------------
 #p B2PLYPD3/Def2QZVP
 --------------------

 ----------
 butane_opt
 ----------
 Symbolic Z-matrix:
 Charge =  0 Multiplicity = 1

                         Standard orientation:
 ---------------------------------------------------------------------
 Center     Atomic      Atomic             Coordinates (Angstroms)
 Number     Number       Type             X           Y           Z
 ---------------------------------------------------------------------
      1          6           0       -1.896861    0.108050    0.001311
      2          6           0       -0.586565   -0.435270    0.027132
      3          1           0       -2.810986   -0.798103   -0.287395
      4          1           0       -2.005273    0.436146   -0.772951
      5          1           0       -2.040484    0.865940    0.954612
      6          6           0        0.570065    0.532956   -0.040216
      7          1           0       -0.481490   -0.963112   -0.759347
      8          1           0       -0.420711   -1.191996    1.057521
      9          6           0        1.920398   -0.149058    0.010188
     10          1           0        0.428076    1.232524    0.883064
     11          1           0        0.399480    1.154007   -0.947364
     12          1           0        2.171175   -0.731935    0.846766
     13          1           0        2.689787    0.487619   -0.121098
     14          1           0        2.028205   -0.831159   -0.844302
 ---------------------------------------------------------------------

 SCF Done:  E(RB2PLYPD3) =  -157.976025313     A.U. after   11 cycles
 E2(B2PLYPD3) =    -0.2477755278D+00 E(B2PLYPD3) =    -0.15822380084091D+03

 The electronic state is 1-A.
 Alpha  occ. eigenvalues --  -10.61663 -10.60091 -10.59751 -10.58676  -0.93699
 Alpha  occ. eigenvalues --   -0.85561  -0.74445  -0.66513  -0.56436  -0.51054
 Alpha  occ. eigenvalues --   -0.48552  -0.47946  -0.42779  -0.41489  -0.40195
 Alpha  occ. eigenvalues --   -0.37238  -0.35005
 Alpha virt. eigenvalues --    0.05028   0.06681   0.07942   0.08190   0.10488
 Alpha virt. eigenvalues --    0.11889   0.12720   0.13505   0.14681   0.15067
 Alpha virt. eigenvalues --    0.15771   0.16851   0.19478   0.19605   0.21244

 Mulliken charges:
               1
     1  C   -0.266489
     2  C   -0.034132
     3  H    0.017975
     4  H    0.159158
     5  H    0.049156
     6  C   -0.036393
     7  H    0.071141
     8  H   -0.001986
     9  C   -0.112448
    10  H    0.010287
    11  H    0.031517
    12  H    0.047055
    13  H    0.044791
    14  H    0.020367
 Sum of Mulliken charges =   0.00000

 Dipole moment (field-independent basis, Debye):
    X=              0.3640    Y=              0.1981    Z=             -0.5785  Tot=              0.7116
 Quadrupole moment (field-independent basis, Debye-Ang):
   XX=            -29.8075   YY=            -29.6713   ZZ=            -27.9017
   XY=             -0.3313   XZ=              1.0803   YZ=              0.4105

 Normal termination of Gaussian 09 at Wed Aug 26 23:54:03 2020.
