 Gaussian 09, Revision D.01,
 Gaussian 09:  ES64L-G09RevD.01 24-Apr-2013

 --------------------
 #p B2PLYPD3/Def2QZVP
 --------------------

 ----------
 butane_opt
 ----------
 Symbolic Z-matrix:
 Charge =  0 Multiplicity = 1

                         Standard orientation:
 ---------------------------------------------------------------------
 Center     Atomic      Atomic             Coordinates (Angstroms)
 Number     Number       Type             X           Y           Z
 ---------------------------------------------------------------------
      1          6           0        1.909864   -0.120949    0.044574
      2          6           0        0.506378    0.525364   -0.085802
      3          1           0        2.722961    0.632668   -0.294296
      4          1           0        1.769532   -0.413159   -0.649299
      5          1           0        2.476081   -1.228851    1.152943
      6          6           0       -0.611695   -0.474455   -0.133079
      7          1           0        0.425223    1.187995   -0.964677
      8          1           0        0.285202    1.294447    1.026234
      9          6           0       -1.875354    0.047249    0.086446
     10          1           0       -0.377266   -1.162581    0.778273
     11          1           0       -0.468436   -1.020928   -0.915782
     12          1           0       -1.939119    1.070445    1.167381
     13          1           0       -2.553373   -0.765464   -0.146438
     14          1           0       -1.915964    0.542174   -0.627178
 ---------------------------------------------------------------------

 SCF Done:  E(RB2PLYPD3) =  -157.692115449     A.U. after   12 cycles
 E2(B2PLYPD3) =    -0.2552673699D+00 E(B2PLYPD3) =    -0.15794738281882D+03

 The electronic state is 1-A.
 Alpha  occ. eigenvalues --  -10.64225 -10.61908 -10.59795 -10.59280  -0.95933
 Alpha  occ. eigenvalues --   -0.88837  -0.74718  -0.66476  -0.55855  -0.51846
 Alpha  occ. eigenvalues --   -0.49467  -0.47871  -0.41186  -0.39237  -0.36844
 Alpha  occ. eigenvalues --   -0.36049  -0.34876
 Alpha virt. eigenvalues --    0.02004   0.04449   0.06751   0.07354   0.09438
 Alpha virt. eigenvalues --    0.10489   0.11555   0.12578   0.13309   0.15506
 Alpha virt. eigenvalues --    0.15853   0.16317   0.18262   0.19146   0.20832

 Mulliken charges:
               1
     1  C   -0.503507
     2  C   -0.045454
     3  H    0.059785
     4  H    0.377837
     5  H    0.035542
     6  C   -0.016589
     7  H    0.050225
     8  H   -0.013785
     9  C   -0.233908
    10  H    0.018488
    11  H    0.051107
    12  H    0.028196
    13  H    0.054036
    14  H    0.138027
 Sum of Mulliken charges =   0.00000

 Dipole moment (field-independent basis, Debye):
    X=             -0.1009    Y=             -0.2316    Z=             -1.3926  Tot=              1.4153
 Quadrupole moment (field-independent basis, Debye-Ang):
   XX=            -31.1273   YY=            -29.5205   ZZ=            -28.4950
   XY=              0.5564   XZ=              0.2805   YZ=             -0.3601

 Normal termination of Gaussian 09 at Wed Aug 26 13:29:42 2020.
