 Gaussian 09, Revision D.01,
 Gaussian 09:  ES64L-G09RevD.01 24-Apr-2013

 --------------------
 #p B2PLYPD3/Def2QZVP
 --------------------

 ----------
 butane_opt
 ----------
 Symbolic Z-matrix:
 Charge =  0 Multiplicity = 1

                         Standard orientation:
 ---------------------------------------------------------------------
 Center     Atomic      Atomic             Coordinates (Angstroms)
 Number     Number       Type             X           Y           Z
 ---------------------------------------------------------------------
      1          6           0        1.937097   -0.145147   -0.064043
      2          6           0        0.559689    0.552255    0.041824
      3          1           0        2.543098    0.518550    0.220364
      4          1           0        2.142875   -1.129701   -1.082844
      5          1           0        2.039848   -0.438410    0.599435
      6          6           0       -0.568482   -0.458950    0.091623
      7          1           0        0.271235    1.108485   -0.794084
      8          1           0        0.383640    1.339215    0.991504
      9          6           0       -1.868726    0.065228   -0.097328
     10          1           0       -0.515067   -1.365545    1.212050
     11          1           0       -0.518525   -0.821376   -0.652965
     12          1           0       -2.118905    0.663802    0.763496
     13          1           0       -2.667924   -0.724144   -0.015526
     14          1           0       -1.917745    0.768804   -1.073883
 ---------------------------------------------------------------------

 SCF Done:  E(RB2PLYPD3) =  -157.707268564     A.U. after   11 cycles
 E2(B2PLYPD3) =    -0.2502244461D+00 E(B2PLYPD3) =    -0.15795749301004D+03

 The electronic state is 1-A.
 Alpha  occ. eigenvalues --  -10.62026 -10.60534 -10.59342 -10.57976  -0.95156
 Alpha  occ. eigenvalues --   -0.89402  -0.75817  -0.67754  -0.54301  -0.50656
 Alpha  occ. eigenvalues --   -0.49636  -0.46180  -0.43602  -0.40973  -0.38862
 Alpha  occ. eigenvalues --   -0.37094  -0.35497
 Alpha virt. eigenvalues --    0.05288   0.05682   0.06535   0.07710   0.10575
 Alpha virt. eigenvalues --    0.11792   0.12209   0.13069   0.14503   0.15227
 Alpha virt. eigenvalues --    0.15975   0.16328   0.18616   0.19304   0.21862

 Mulliken charges:
               1
     1  C   -0.483578
     2  C    0.003580
     3  H    0.052725
     4  H    0.052889
     5  H    0.356189
     6  C   -0.244589
     7  H    0.048257
     8  H    0.002053
     9  C   -0.135294
    10  H   -0.018070
    11  H    0.249406
    12  H    0.035870
    13  H    0.051310
    14  H    0.029254
 Sum of Mulliken charges =   0.00000

 Dipole moment (field-independent basis, Debye):
    X=              0.0791    Y=              0.0881    Z=             -0.0172  Tot=              0.1197
 Quadrupole moment (field-independent basis, Debye-Ang):
   XX=            -29.4405   YY=            -29.4212   ZZ=            -28.1375
   XY=              0.0453   XZ=              1.0251   YZ=              0.5612

 Normal termination of Gaussian 09 at Wed Aug 26 10:54:29 2020.
