 Gaussian 09, Revision D.01,
 Gaussian 09:  ES64L-G09RevD.01 24-Apr-2013

 --------------------
 #p B2PLYPD3/Def2QZVP
 --------------------

 ----------
 butane_opt
 ----------
 Symbolic Z-matrix:
 Charge =  0 Multiplicity = 1

                         Standard orientation:
 ---------------------------------------------------------------------
 Center     Atomic      Atomic             Coordinates (Angstroms)
 Number     Number       Type             X           Y           Z
 ---------------------------------------------------------------------
      1          6           0        1.865954   -0.081022   -0.084336
      2          6           0        0.521101    0.503037    0.163300
      3          1           0        2.851620    0.748732   -0.425546
      4          1           0        1.792289   -0.815733   -1.103251
      5          1           0        2.156700   -0.823009    0.873328
      6          6           0       -0.499151   -0.544959    0.091999
      7          1           0        0.350294    1.412985   -0.701704
      8          1           0        0.589136    1.064513    0.982293
      9          6           0       -1.900705    0.125600   -0.090085
     10          1           0       -0.223289   -1.198749    1.007789
     11          1           0       -0.259947   -1.207673   -0.824830
     12          1           0       -2.301826    0.703757    0.861858
     13          1           0       -2.719470   -0.654381   -0.279894
     14          1           0       -2.158702    0.753629   -0.875308
 ---------------------------------------------------------------------

 SCF Done:  E(RB2PLYPD3) =  -158.020621714     A.U. after   11 cycles
 E2(B2PLYPD3) =    -0.2517833049D+00 E(B2PLYPD3) =    -0.15827240501906D+03

 The electronic state is 1-A.
 Alpha  occ. eigenvalues --  -10.65231 -10.62936 -10.61544 -10.60921  -0.92395
 Alpha  occ. eigenvalues --   -0.81792  -0.71439  -0.65956  -0.53395  -0.49478
 Alpha  occ. eigenvalues --   -0.48340  -0.45241  -0.42440  -0.39776  -0.39217
 Alpha  occ. eigenvalues --   -0.36241  -0.35608
 Alpha virt. eigenvalues --    0.05007   0.06244   0.07167   0.08180   0.10271
 Alpha virt. eigenvalues --    0.11139   0.12429   0.12802   0.14842   0.15166
 Alpha virt. eigenvalues --    0.15490   0.16194   0.19294   0.19810   0.21051

 Mulliken charges:
               1
     1  C   -0.177379
     2  C    0.006265
     3  H    0.040346
     4  H    0.027930
     5  H    0.036315
     6  C   -0.049305
     7  H   -0.011256
     8  H    0.064262
     9  C   -0.128655
    10  H    0.042844
    11  H    0.040747
    12  H    0.028611
    13  H    0.021656
    14  H    0.057619
 Sum of Mulliken charges =   0.00000

 Dipole moment (field-independent basis, Debye):
    X=             -0.2784    Y=              0.0613    Z=              0.0837  Tot=              0.2972
 Quadrupole moment (field-independent basis, Debye-Ang):
   XX=            -30.9345   YY=            -29.6316   ZZ=            -28.7636
   XY=             -0.1932   XZ=              0.7506   YZ=              0.0122

 Normal termination of Gaussian 09 at Wed Aug 26 14:48:07 2020.
