 Gaussian 09, Revision D.01,
 Gaussian 09:  ES64L-G09RevD.01 24-Apr-2013

 --------------------
 #p B2PLYPD3/Def2QZVP
 --------------------

 ----------
 butane_opt
 ----------
 Symbolic Z-matrix:
 Charge =  0 Multiplicity = 1

                         Standard orientation:
 ---------------------------------------------------------------------
 Center     Atomic      Atomic             Coordinates (Angstroms)
 Number     Number       Type             X           Y           Z
 ---------------------------------------------------------------------
      1          6           0        1.969642   -0.122840   -0.170166
      2          6           0        0.576025    0.467621    0.239244
      3          1           0        2.809935    0.758247   -0.483375
      4          1           0        1.561534   -0.509598   -0.882732
      5          1           0        2.357590   -0.873894    0.791005
      6          6           0       -0.532508   -0.562450    0.104159
      7          1           0        0.554060    1.264383   -0.704253
      8          1           0        0.642527    1.092057    1.173767
      9          6           0       -2.076347    0.146898   -0.110930
     10          1           0       -0.550353   -1.253826    0.977294
     11          1           0       -0.093710   -0.954156   -0.748556
     12          1           0       -2.246227    0.719964    0.945410
     13          1           0       -2.734643   -0.465094   -0.568706
     14          1           0       -1.921581    0.646545   -0.873694
 ---------------------------------------------------------------------

 SCF Done:  E(RB2PLYPD3) =  -157.952753343     A.U. after   11 cycles
 E2(B2PLYPD3) =    -0.2510862657D+00 E(B2PLYPD3) =    -0.15820383960867D+03

 The electronic state is 1-A.
 Alpha  occ. eigenvalues --  -10.62569 -10.61784 -10.61677 -10.59964  -0.91719
 Alpha  occ. eigenvalues --   -0.83434  -0.74618  -0.65285  -0.55145  -0.49833
 Alpha  occ. eigenvalues --   -0.47728  -0.46912  -0.43646  -0.40247  -0.38860
 Alpha  occ. eigenvalues --   -0.37759  -0.34066
 Alpha virt. eigenvalues --    0.05236   0.06486   0.08092   0.08524   0.10536
 Alpha virt. eigenvalues --    0.11242   0.12352   0.12856   0.14177   0.15865
 Alpha virt. eigenvalues --    0.16015   0.16568   0.18350   0.18994   0.21132

 Mulliken charges:
               1
     1  C   -0.216588
     2  C   -0.041107
     3  H    0.047304
     4  H    0.121205
     5  H    0.028181
     6  C   -0.101091
     7  H    0.011646
     8  H    0.034628
     9  C   -0.191280
    10  H    0.045028
    11  H    0.057667
    12  H    0.070640
    13  H    0.045798
    14  H    0.087969
 Sum of Mulliken charges =   0.00000

 Dipole moment (field-independent basis, Debye):
    X=             -0.2668    Y=              0.0602    Z=             -0.2391  Tot=              0.3633
 Quadrupole moment (field-independent basis, Debye-Ang):
   XX=            -30.5182   YY=            -30.1752   ZZ=            -27.5463
   XY=              0.8764   XZ=              0.5004   YZ=             -0.1595

 Normal termination of Gaussian 09 at Wed Aug 26 13:11:15 2020.
