 Gaussian 09, Revision D.01,
 Gaussian 09:  ES64L-G09RevD.01 24-Apr-2013

 --------------------
 #p B2PLYPD3/Def2QZVP
 --------------------

 ----------
 butane_opt
 ----------
 Symbolic Z-matrix:
 Charge =  0 Multiplicity = 1

                         Standard orientation:
 ---------------------------------------------------------------------
 Center     Atomic      Atomic             Coordinates (Angstroms)
 Number     Number       Type             X           Y           Z
 ---------------------------------------------------------------------
      1          6           0       -1.850584    0.070293   -0.263484
      2          6           0       -0.611699   -0.380045    0.301988
      3          1           0       -2.620134   -1.014095   -0.636687
      4          1           0       -1.289441    0.301828   -0.979937
      5          1           0       -2.473533    1.031327    0.575243
      6          6           0        0.532525    0.550018    0.087351
      7          1           0       -0.293707   -0.859065   -0.278487
      8          1           0       -0.786081   -1.080335    1.633278
      9          6           0        1.957660   -0.171479   -0.163178
     10          1           0        0.380831    1.390887    0.844272
     11          1           0        0.183691    0.848213   -0.680544
     12          1           0        1.979612   -0.601776    0.739819
     13          1           0        2.632942    0.466684   -0.085320
     14          1           0        2.118401   -0.896389   -0.907707
 ---------------------------------------------------------------------

 SCF Done:  E(RB2PLYPD3) =  -157.742544179     A.U. after   11 cycles
 E2(B2PLYPD3) =    -0.2527349789D+00 E(B2PLYPD3) =    -0.15799527915786D+03

 The electronic state is 1-A.
 Alpha  occ. eigenvalues --  -10.64039 -10.60607 -10.60288 -10.58209  -0.99390
 Alpha  occ. eigenvalues --   -0.86220  -0.76358  -0.68644  -0.56622  -0.50846
 Alpha  occ. eigenvalues --   -0.50576  -0.48247  -0.43540  -0.42089  -0.39734
 Alpha  occ. eigenvalues --   -0.35658  -0.33694
 Alpha virt. eigenvalues --    0.03714   0.06570   0.06890   0.08346   0.09677
 Alpha virt. eigenvalues --    0.11110   0.12231   0.13844   0.14393   0.15032
 Alpha virt. eigenvalues --    0.15718   0.16513   0.17987   0.19392   0.19775

 Mulliken charges:
               1
     1  C   -0.187968
     2  C   -0.287585
     3  H    0.038960
     4  H    0.097265
     5  H    0.039147
     6  C   -0.169996
     7  H    0.314075
     8  H   -0.040212
     9  C   -0.166340
    10  H    0.041174
    11  H    0.137099
    12  H    0.069512
    13  H    0.066448
    14  H    0.048420
 Sum of Mulliken charges =   0.00000

 Dipole moment (field-independent basis, Debye):
    X=              0.7968    Y=              0.1394    Z=             -0.7279  Tot=              1.0882
 Quadrupole moment (field-independent basis, Debye-Ang):
   XX=            -29.9455   YY=            -29.5572   ZZ=            -29.2930
   XY=             -0.0836   XZ=             -0.4497   YZ=              1.8198

 Normal termination of Gaussian 09 at Wed Aug 26 13:29:51 2020.
