 Gaussian 09, Revision D.01,
 Gaussian 09:  ES64L-G09RevD.01 24-Apr-2013

 --------------------
 #p B2PLYPD3/Def2QZVP
 --------------------

 ----------
 butane_opt
 ----------
 Symbolic Z-matrix:
 Charge =  0 Multiplicity = 1

                         Standard orientation:
 ---------------------------------------------------------------------
 Center     Atomic      Atomic             Coordinates (Angstroms)
 Number     Number       Type             X           Y           Z
 ---------------------------------------------------------------------
      1          6           0        2.065799   -0.215332   -0.118361
      2          6           0        0.469186    0.647793    0.106126
      3          1           0        2.729273    0.648629    0.335217
      4          1           0        2.429623   -1.490332   -1.184756
      5          1           0        2.245512   -0.256477    0.437497
      6          6           0       -0.614692   -0.469897    0.208205
      7          1           0        0.194071    1.318226   -0.932070
      8          1           0        0.613883    1.495082    0.995653
      9          6           0       -1.934726    0.005724   -0.203030
     10          1           0       -0.843706   -1.470911    1.418773
     11          1           0       -0.417310   -0.752543   -0.276510
     12          1           0       -2.368933    0.707519    0.606148
     13          1           0       -2.652156   -0.663302   -0.179168
     14          1           0       -1.843658    0.654378   -1.178422
 ---------------------------------------------------------------------

 SCF Done:  E(RB2PLYPD3) =  -156.792679850     A.U. after   13 cycles
 E2(B2PLYPD3) =    -0.2604333585D+00 E(B2PLYPD3) =    -0.15705311320807D+03

 The electronic state is 1-A.
 Alpha  occ. eigenvalues --  -10.67744 -10.64074 -10.61827 -10.60114  -0.95973
 Alpha  occ. eigenvalues --   -0.91480  -0.77497  -0.70019  -0.52247  -0.51151
 Alpha  occ. eigenvalues --   -0.46719  -0.44319  -0.40768  -0.40070  -0.37404
 Alpha  occ. eigenvalues --   -0.35615  -0.34541
 Alpha virt. eigenvalues --   -0.00253   0.03293   0.05171   0.06638   0.09641
 Alpha virt. eigenvalues --    0.10879   0.11700   0.12448   0.14190   0.14521
 Alpha virt. eigenvalues --    0.15565   0.16090   0.17034   0.18230   0.19763

 Mulliken charges:
               1
     1  C   -0.864182
     2  C   -0.030157
     3  H    0.029072
     4  H    0.077176
     5  H    0.719406
     6  C   -0.840499
     7  H    0.042811
     8  H    0.035039
     9  C   -0.053350
    10  H    0.000392
    11  H    0.763547
    12  H    0.026876
    13  H    0.057532
    14  H    0.036337
 Sum of Mulliken charges =   0.00000

 Dipole moment (field-independent basis, Debye):
    X=             -0.2537    Y=              0.0344    Z=              0.1661  Tot=              0.3051
 Quadrupole moment (field-independent basis, Debye-Ang):
   XX=            -29.8224   YY=            -28.6370   ZZ=            -28.8040
   XY=             -0.2624   XZ=              1.5030   YZ=              1.5143

 Normal termination of Gaussian 09 at Wed Aug 26 11:03:05 2020.
