 Gaussian 09, Revision D.01,
 Gaussian 09:  ES64L-G09RevD.01 24-Apr-2013

 --------------------
 #p B2PLYPD3/Def2QZVP
 --------------------

 ----------
 butane_opt
 ----------
 Symbolic Z-matrix:
 Charge =  0 Multiplicity = 1

                         Standard orientation:
 ---------------------------------------------------------------------
 Center     Atomic      Atomic             Coordinates (Angstroms)
 Number     Number       Type             X           Y           Z
 ---------------------------------------------------------------------
      1          6           0        1.868387    0.015099   -0.076494
      2          6           0        0.585324   -0.451053    0.213252
      3          1           0        2.691431   -0.818167   -0.713104
      4          1           0        2.446715    1.230573    0.955232
      5          1           0        1.463332    0.321975   -0.746386
      6          6           0       -0.470851    0.532990   -0.030282
      7          1           0        0.480411   -0.994146    1.106745
      8          1           0        0.134513   -1.116337   -0.647796
      9          6           0       -1.913897   -0.127193   -0.099999
     10          1           0       -0.201626    1.174656   -0.940254
     11          1           0       -0.520643    1.208353    0.685896
     12          1           0       -2.085359   -0.575942   -0.719440
     13          1           0       -2.537499    0.390779   -0.046007
     14          1           0       -2.285055   -0.640798    1.026254
 ---------------------------------------------------------------------

 SCF Done:  E(RB2PLYPD3) =  -157.640323427     A.U. after   12 cycles
 E2(B2PLYPD3) =    -0.2528604370D+00 E(B2PLYPD3) =    -0.15789318386381D+03

 The electronic state is 1-A.
 Alpha  occ. eigenvalues --  -10.62852 -10.60822 -10.60708 -10.56275  -0.97457
 Alpha  occ. eigenvalues --   -0.89155  -0.77841  -0.67841  -0.58466  -0.52156
 Alpha  occ. eigenvalues --   -0.50309  -0.47555  -0.41402  -0.41138  -0.39052
 Alpha  occ. eigenvalues --   -0.38239  -0.33211
 Alpha virt. eigenvalues --    0.01830   0.05234   0.06623   0.08077   0.10043
 Alpha virt. eigenvalues --    0.10505   0.12584   0.12931   0.14334   0.15860
 Alpha virt. eigenvalues --    0.16140   0.17057   0.18935   0.19117   0.21328

 Mulliken charges:
               1
     1  C   -0.323260
     2  C   -0.016122
     3  H    0.047016
     4  H   -0.003581
     5  H    0.221825
     6  C    0.000145
     7  H    0.050463
     8  H    0.018202
     9  C   -0.434479
    10  H    0.015961
    11  H    0.044831
    12  H    0.194867
    13  H    0.171476
    14  H    0.012657
 Sum of Mulliken charges =   0.00000

 Dipole moment (field-independent basis, Debye):
    X=             -1.1103    Y=              0.0400    Z=             -0.5959  Tot=              1.2608
 Quadrupole moment (field-independent basis, Debye-Ang):
   XX=            -30.5774   YY=            -29.6429   ZZ=            -28.0113
   XY=             -0.9671   XZ=             -0.4240   YZ=              0.7655

 Normal termination of Gaussian 09 at Wed Aug 26 11:56:21 2020.
