 Gaussian 09, Revision D.01,
 Gaussian 09:  ES64L-G09RevD.01 24-Apr-2013

 --------------------
 #p B2PLYPD3/Def2QZVP
 --------------------

 ----------
 butane_opt
 ----------
 Symbolic Z-matrix:
 Charge =  0 Multiplicity = 1

                         Standard orientation:
 ---------------------------------------------------------------------
 Center     Atomic      Atomic             Coordinates (Angstroms)
 Number     Number       Type             X           Y           Z
 ---------------------------------------------------------------------
      1          6           0       -2.029007   -0.173035    0.119937
      2          6           0       -0.508251    0.546466   -0.201251
      3          1           0       -2.713908    0.463802    0.790346
      4          1           0       -1.705719   -0.432291    0.657061
      5          1           0       -2.577303   -0.964312   -0.896628
      6          6           0        0.607284   -0.389806   -0.132066
      7          1           0       -0.105477    1.198140    0.781018
      8          1           0       -0.425311    1.157345   -1.048866
      9          6           0        1.896731    0.031864    0.065416
     10          1           0        0.651936   -0.958855   -0.836557
     11          1           0        0.539449   -1.139479    0.818415
     12          1           0        2.015442    0.727798   -0.752918
     13          1           0        2.675042   -0.828021    0.309267
     14          1           0        1.845306    0.682937    1.066650
 ---------------------------------------------------------------------

 SCF Done:  E(RB2PLYPD3) =  -157.675287305     A.U. after   11 cycles
 E2(B2PLYPD3) =    -0.2519774495D+00 E(B2PLYPD3) =    -0.15792726475445D+03

 The electronic state is 1-A.
 Alpha  occ. eigenvalues --  -10.62962 -10.61065 -10.61022 -10.58050  -0.95334
 Alpha  occ. eigenvalues --   -0.87734  -0.75495  -0.66936  -0.56500  -0.51924
 Alpha  occ. eigenvalues --   -0.48958  -0.46330  -0.42884  -0.41025  -0.38674
 Alpha  occ. eigenvalues --   -0.36154  -0.34963
 Alpha virt. eigenvalues --    0.05142   0.05584   0.07929   0.08118   0.10456
 Alpha virt. eigenvalues --    0.10836   0.11618   0.12707   0.14279   0.15598
 Alpha virt. eigenvalues --    0.16392   0.16528   0.18060   0.19398   0.20483

 Mulliken charges:
               1
     1  C   -0.700744
     2  C   -0.061032
     3  H    0.074060
     4  H    0.558323
     5  H    0.066875
     6  C   -0.014684
     7  H   -0.001333
     8  H    0.056092
     9  C   -0.141580
    10  H    0.065501
    11  H   -0.023665
    12  H    0.046329
    13  H    0.061893
    14  H    0.013964
 Sum of Mulliken charges =   0.00000

 Dipole moment (field-independent basis, Debye):
    X=              0.1767    Y=             -0.3673    Z=             -0.1320  Tot=              0.4284
 Quadrupole moment (field-independent basis, Debye-Ang):
   XX=            -30.2678   YY=            -29.8642   ZZ=            -27.6525
   XY=             -0.4461   XZ=             -0.2210   YZ=              0.1860

 Normal termination of Gaussian 09 at Wed Aug 26 22:00:44 2020.
