 Gaussian 09, Revision D.01,
 Gaussian 09:  ES64L-G09RevD.01 24-Apr-2013

 --------------------
 #p B2PLYPD3/Def2QZVP
 --------------------

 ----------
 butane_opt
 ----------
 Symbolic Z-matrix:
 Charge =  0 Multiplicity = 1

                         Standard orientation:
 ---------------------------------------------------------------------
 Center     Atomic      Atomic             Coordinates (Angstroms)
 Number     Number       Type             X           Y           Z
 ---------------------------------------------------------------------
      1          6           0       -1.983227    0.066693    0.063251
      2          6           0       -0.627146   -0.536272    0.000687
      3          1           0       -2.752922   -0.750700   -0.509672
      4          1           0       -1.857900    0.197745   -0.532893
      5          1           0       -2.354159    1.280955    1.218036
      6          6           0        0.525578    0.602443   -0.067302
      7          1           0       -0.440623   -1.268743   -0.973134
      8          1           0       -0.299057   -1.197468    0.916178
      9          6           0        1.993399   -0.160743   -0.026559
     10          1           0        0.586079    1.323152    0.602342
     11          1           0        0.247280    1.379400   -1.102673
     12          1           0        2.521761   -1.030403    1.088591
     13          1           0        2.622080    0.428808   -0.060588
     14          1           0        2.275839   -0.195474   -0.466647
 ---------------------------------------------------------------------

 SCF Done:  E(RB2PLYPD3) =  -156.547971760     A.U. after   13 cycles
 E2(B2PLYPD3) =    -0.2593587701D+00 E(B2PLYPD3) =    -0.15680733052993D+03

 The electronic state is 1-A.
 Alpha  occ. eigenvalues --  -10.64657 -10.64556 -10.62426 -10.61470  -0.99550
 Alpha  occ. eigenvalues --   -0.95571  -0.80034  -0.67528  -0.51469  -0.50406
 Alpha  occ. eigenvalues --   -0.46477  -0.45077  -0.41067  -0.39161  -0.38806
 Alpha  occ. eigenvalues --   -0.36168  -0.35053
 Alpha virt. eigenvalues --    0.00296   0.04083   0.05124   0.07052   0.09679
 Alpha virt. eigenvalues --    0.09768   0.11397   0.12569   0.14259   0.15422
 Alpha virt. eigenvalues --    0.15911   0.17050   0.17266   0.19091   0.20765

 Mulliken charges:
               1
     1  C   -0.897398
     2  C    0.001939
     3  H    0.059120
     4  H    0.735044
     5  H    0.053684
     6  C   -0.032706
     7  H    0.035086
     8  H    0.035968
     9  C   -0.911559
    10  H    0.068487
    11  H   -0.012836
    12  H    0.052793
    13  H    0.048305
    14  H    0.764073
 Sum of Mulliken charges =   0.00000

 Dipole moment (field-independent basis, Debye):
    X=              0.7143    Y=              0.5547    Z=             -0.4532  Tot=              1.0116
 Quadrupole moment (field-independent basis, Debye-Ang):
   XX=            -29.0134   YY=            -28.9757   ZZ=            -28.2105
   XY=              0.3506   XZ=              0.7765   YZ=              0.9018

 Normal termination of Gaussian 09 at Wed Aug 26 23:01:14 2020.
