 Gaussian 09, Revision D.01,
 Gaussian 09:  ES64L-G09RevD.01 24-Apr-2013

 --------------------
 #p B2PLYPD3/Def2QZVP
 --------------------

 ----------
 butane_opt
 ----------
 Symbolic Z-matrix:
 Charge =  0 Multiplicity = 1

                         Standard orientation:
 ---------------------------------------------------------------------
 Center     Atomic      Atomic             Coordinates (Angstroms)
 Number     Number       Type             X           Y           Z
 ---------------------------------------------------------------------
      1          6           0        2.075902   -0.160260   -0.070531
      2          6           0        0.554676    0.555883    0.142520
      3          1           0        2.810682    0.356692   -0.659029
      4          1           0        2.020760   -1.001602   -0.933836
      5          1           0        2.657843   -0.542763    0.771909
      6          6           0       -0.656482   -0.411377    0.248587
      7          1           0        0.283831    1.218977   -0.993394
      8          1           0        0.295350    1.433751    0.935746
      9          6           0       -1.949595    0.051709   -0.182505
     10          1           0       -0.537796   -1.014410    1.219889
     11          1           0       -0.572402   -1.107973   -0.450851
     12          1           0       -2.480770    0.817607    0.600827
     13          1           0       -2.869486   -0.909687   -0.461433
     14          1           0       -1.755014    0.533677   -0.858249
 ---------------------------------------------------------------------

 SCF Done:  E(RB2PLYPD3) =  -157.932925146     A.U. after   11 cycles
 E2(B2PLYPD3) =    -0.2516604875D+00 E(B2PLYPD3) =    -0.15818458563314D+03

 The electronic state is 1-A.
 Alpha  occ. eigenvalues --  -10.66750 -10.63350 -10.60911 -10.59912  -0.92512
 Alpha  occ. eigenvalues --   -0.82043  -0.73961  -0.66539  -0.53444  -0.48556
 Alpha  occ. eigenvalues --   -0.48104  -0.46866  -0.43039  -0.40143  -0.38974
 Alpha  occ. eigenvalues --   -0.36301  -0.35366
 Alpha virt. eigenvalues --    0.04978   0.05804   0.07429   0.08558   0.10326
 Alpha virt. eigenvalues --    0.11051   0.11818   0.12855   0.14344   0.15586
 Alpha virt. eigenvalues --    0.15899   0.16494   0.18060   0.18797   0.20633

 Mulliken charges:
               1
     1  C   -0.117222
     2  C   -0.098982
     3  H    0.049324
     4  H    0.024870
     5  H    0.062745
     6  C    0.003750
     7  H   -0.016820
     8  H    0.048888
     9  C   -0.251081
    10  H    0.016517
    11  H    0.062153
    12  H    0.018599
    13  H    0.031386
    14  H    0.165873
 Sum of Mulliken charges =   0.00000

 Dipole moment (field-independent basis, Debye):
    X=              0.4702    Y=             -0.2135    Z=             -0.2350  Tot=              0.5673
 Quadrupole moment (field-independent basis, Debye-Ang):
   XX=            -29.1041   YY=            -29.9266   ZZ=            -28.9151
   XY=             -0.4092   XZ=              0.0182   YZ=              0.3968

 Normal termination of Gaussian 09 at Wed Aug 26 10:35:26 2020.
