 Gaussian 09, Revision D.01,
 Gaussian 09:  ES64L-G09RevD.01 24-Apr-2013

 --------------------
 #p B2PLYPD3/Def2QZVP
 --------------------

 ----------
 butane_opt
 ----------
 Symbolic Z-matrix:
 Charge =  0 Multiplicity = 1

                         Standard orientation:
 ---------------------------------------------------------------------
 Center     Atomic      Atomic             Coordinates (Angstroms)
 Number     Number       Type             X           Y           Z
 ---------------------------------------------------------------------
      1          6           0       -1.984716   -0.144061   -0.029009
      2          6           0       -0.519425    0.567854   -0.037422
      3          1           0       -2.591671    0.556593    0.018289
      4          1           0       -1.969271   -0.710069    0.839745
      5          1           0       -2.205130   -0.588629   -0.651513
      6          6           0        0.586769   -0.492281    0.103726
      7          1           0       -0.407851    1.213005    0.820426
      8          1           0       -0.342671    1.017871   -0.941685
      9          6           0        1.849221    0.054137   -0.079770
     10          1           0        0.329519   -0.967176   -0.656055
     11          1           0        0.505925   -1.171874    1.042998
     12          1           0        1.849926    0.357954   -0.729271
     13          1           0        2.600404   -0.682455   -0.519888
     14          1           0        2.639723    1.060886    1.031807
 ---------------------------------------------------------------------

 SCF Done:  E(RB2PLYPD3) =  -157.654166518     A.U. after   12 cycles
 E2(B2PLYPD3) =    -0.2486005929D+00 E(B2PLYPD3) =    -0.15790276711049D+03

 The electronic state is 1-A.
 Alpha  occ. eigenvalues --  -10.60300 -10.60187 -10.58858 -10.54620  -0.96035
 Alpha  occ. eigenvalues --   -0.87930  -0.78569  -0.69479  -0.57254  -0.53494
 Alpha  occ. eigenvalues --   -0.51367  -0.48532  -0.45189  -0.42028  -0.38889
 Alpha  occ. eigenvalues --   -0.37268  -0.33900
 Alpha virt. eigenvalues --    0.02931   0.06095   0.07736   0.08500   0.10011
 Alpha virt. eigenvalues --    0.11334   0.12927   0.13641   0.14727   0.16104
 Alpha virt. eigenvalues --    0.16143   0.16907   0.19193   0.19909   0.21238

 Mulliken charges:
               1
     1  C   -0.311345
     2  C   -0.049374
     3  H    0.053907
     4  H    0.048080
     5  H    0.176355
     6  C   -0.044808
     7  H    0.050550
     8  H    0.045789
     9  C   -0.539111
    10  H    0.096494
    11  H    0.029359
    12  H    0.405626
    13  H    0.048666
    14  H   -0.010189
 Sum of Mulliken charges =   0.00000

 Dipole moment (field-independent basis, Debye):
    X=             -0.6731    Y=             -0.3562    Z=             -0.9502  Tot=              1.2177
 Quadrupole moment (field-independent basis, Debye-Ang):
   XX=            -30.3413   YY=            -29.0749   ZZ=            -27.2246
   XY=             -0.4581   XZ=             -1.0455   YZ=              0.1982

 Normal termination of Gaussian 09 at Wed Aug 26 12:46:47 2020.
