 Gaussian 09, Revision D.01,
 Gaussian 09:  ES64L-G09RevD.01 24-Apr-2013

 --------------------
 #p B2PLYPD3/Def2QZVP
 --------------------

 ----------
 butane_opt
 ----------
 Symbolic Z-matrix:
 Charge =  0 Multiplicity = 1

                         Standard orientation:
 ---------------------------------------------------------------------
 Center     Atomic      Atomic             Coordinates (Angstroms)
 Number     Number       Type             X           Y           Z
 ---------------------------------------------------------------------
      1          6           0       -1.999538   -0.165303   -0.023497
      2          6           0       -0.569811    0.560574    0.008646
      3          1           0       -2.701064    0.562928   -0.103845
      4          1           0       -2.094726   -0.693679    0.803884
      5          1           0       -2.154067   -0.804948   -0.853607
      6          6           0        0.588195   -0.440086    0.088513
      7          1           0       -0.405718    1.152622    0.824723
      8          1           0       -0.383207    1.063361   -0.830971
      9          6           0        1.912124    0.098687   -0.066710
     10          1           0        0.688205   -0.973671   -0.690242
     11          1           0        0.549821   -1.234279    1.087183
     12          1           0        1.776431    0.487336   -0.741575
     13          1           0        2.727201   -0.748383   -0.442156
     14          1           0        2.411303    0.865475    0.904892
 ---------------------------------------------------------------------

 SCF Done:  E(RB2PLYPD3) =  -157.907991712     A.U. after   11 cycles
 E2(B2PLYPD3) =    -0.2466375189D+00 E(B2PLYPD3) =    -0.15815462923046D+03

 The electronic state is 1-A.
 Alpha  occ. eigenvalues --  -10.59815 -10.59703 -10.59491 -10.58104  -0.94741
 Alpha  occ. eigenvalues --   -0.85835  -0.75359  -0.67996  -0.55782  -0.51288
 Alpha  occ. eigenvalues --   -0.49014  -0.48152  -0.44518  -0.42975  -0.38559
 Alpha  occ. eigenvalues --   -0.37240  -0.36181
 Alpha virt. eigenvalues --    0.05418   0.06858   0.08299   0.08872   0.10872
 Alpha virt. eigenvalues --    0.11515   0.12867   0.13614   0.15109   0.15369
 Alpha virt. eigenvalues --    0.16009   0.16590   0.18931   0.20038   0.21907

 Mulliken charges:
               1
     1  C   -0.135969
     2  C   -0.085726
     3  H    0.043516
     4  H    0.064335
     5  H    0.034107
     6  C   -0.046005
     7  H    0.057234
     8  H    0.047675
     9  C   -0.402736
    10  H    0.089025
    11  H   -0.006415
    12  H    0.283415
    13  H    0.039357
    14  H    0.018186
 Sum of Mulliken charges =   0.00000

 Dipole moment (field-independent basis, Debye):
    X=             -0.3839    Y=              0.1206    Z=             -0.6034  Tot=              0.7253
 Quadrupole moment (field-independent basis, Debye-Ang):
   XX=            -29.9025   YY=            -28.9816   ZZ=            -27.7220
   XY=             -0.4233   XZ=             -0.6965   YZ=              0.3971

 Normal termination of Gaussian 09 at Wed Aug 26 16:23:42 2020.
