 Gaussian 09, Revision D.01,
 Gaussian 09:  ES64L-G09RevD.01 24-Apr-2013

 --------------------
 #p B2PLYPD3/Def2QZVP
 --------------------

 ----------
 butane_opt
 ----------
 Symbolic Z-matrix:
 Charge =  0 Multiplicity = 1

                         Standard orientation:
 ---------------------------------------------------------------------
 Center     Atomic      Atomic             Coordinates (Angstroms)
 Number     Number       Type             X           Y           Z
 ---------------------------------------------------------------------
      1          6           0        2.000876    0.132080   -0.098039
      2          6           0        0.542147   -0.475425    0.091198
      3          1           0        2.811353   -0.585284   -0.073788
      4          1           0        2.334994    0.396546    0.471502
      5          1           0        2.103617    0.923577   -1.159960
      6          6           0       -0.569919    0.454604    0.187431
      7          1           0        0.500298   -1.419187    1.037467
      8          1           0        0.158492   -0.926401   -0.563756
      9          6           0       -1.943757   -0.134537   -0.150941
     10          1           0       -0.633861    0.994740   -0.533514
     11          1           0       -0.600952    1.454352    1.407063
     12          1           0       -1.844356   -0.660185   -1.028960
     13          1           0       -2.662113    0.701499   -0.348306
     14          1           0       -2.343559   -0.739991    0.614359
 ---------------------------------------------------------------------

 SCF Done:  E(RB2PLYPD3) =  -157.690126006     A.U. after   11 cycles
 E2(B2PLYPD3) =    -0.2499484705D+00 E(B2PLYPD3) =    -0.15794007447610D+03

 The electronic state is 1-A.
 Alpha  occ. eigenvalues --  -10.62320 -10.61945 -10.60042 -10.59628  -0.94972
 Alpha  occ. eigenvalues --   -0.87585  -0.79236  -0.68699  -0.54009  -0.52811
 Alpha  occ. eigenvalues --   -0.49134  -0.47477  -0.44434  -0.41587  -0.40180
 Alpha  occ. eigenvalues --   -0.36836  -0.33505
 Alpha virt. eigenvalues --    0.04625   0.06322   0.06709   0.07450   0.10434
 Alpha virt. eigenvalues --    0.11666   0.12479   0.13766   0.14554   0.15408
 Alpha virt. eigenvalues --    0.15910   0.16188   0.18662   0.19438   0.21174

 Mulliken charges:
               1
     1  C   -0.462506
     2  C   -0.101078
     3  H    0.040589
     4  H    0.363442
     5  H    0.036154
     6  C   -0.123939
     7  H   -0.003202
     8  H    0.143350
     9  C   -0.138845
    10  H    0.146554
    11  H   -0.051427
    12  H    0.051947
    13  H    0.044760
    14  H    0.054201
 Sum of Mulliken charges =   0.00000

 Dipole moment (field-independent basis, Debye):
    X=              0.0143    Y=             -0.4191    Z=             -0.7640  Tot=              0.8715
 Quadrupole moment (field-independent basis, Debye-Ang):
   XX=            -27.6173   YY=            -29.9701   ZZ=            -29.1908
   XY=              0.1578   XZ=              1.6776   YZ=             -1.1121

 Normal termination of Gaussian 09 at Wed Aug 26 19:02:22 2020.
