 Gaussian 09, Revision D.01,
 Gaussian 09:  ES64L-G09RevD.01 24-Apr-2013

 --------------------
 #p B2PLYPD3/Def2QZVP
 --------------------

 ----------
 butane_opt
 ----------
 Symbolic Z-matrix:
 Charge =  0 Multiplicity = 1

                         Standard orientation:
 ---------------------------------------------------------------------
 Center     Atomic      Atomic             Coordinates (Angstroms)
 Number     Number       Type             X           Y           Z
 ---------------------------------------------------------------------
      1          6           0        1.969349    0.078223   -0.061927
      2          6           0        0.620246   -0.427605    0.178427
      3          1           0        2.758889   -0.819777   -0.668139
      4          1           0        2.472781    1.128272    0.843996
      5          1           0        1.863836    0.554789   -0.927406
      6          6           0       -0.627933    0.524895    0.040181
      7          1           0        0.605838   -1.365679    1.362137
      8          1           0        0.631186   -1.007025   -0.595181
      9          6           0       -2.003413   -0.177467   -0.048607
     10          1           0       -0.294763    1.361057   -0.884754
     11          1           0       -0.566933    1.071862    0.735393
     12          1           0       -2.012539   -1.191303   -1.086919
     13          1           0       -2.811003    0.740305   -0.025956
     14          1           0       -2.396793   -0.460773    0.598386
 ---------------------------------------------------------------------

 SCF Done:  E(RB2PLYPD3) =  -157.729380184     A.U. after   11 cycles
 E2(B2PLYPD3) =    -0.2552587056D+00 E(B2PLYPD3) =    -0.15798463888956D+03

 The electronic state is 1-A.
 Alpha  occ. eigenvalues --  -10.65032 -10.63522 -10.62936 -10.62610  -0.92851
 Alpha  occ. eigenvalues --   -0.86330  -0.76170  -0.66821  -0.54772  -0.49227
 Alpha  occ. eigenvalues --   -0.48559  -0.46902  -0.41253  -0.39530  -0.38024
 Alpha  occ. eigenvalues --   -0.36333  -0.33842
 Alpha virt. eigenvalues --    0.03196   0.04209   0.05470   0.07521   0.09634
 Alpha virt. eigenvalues --    0.09935   0.11294   0.12876   0.13040   0.14189
 Alpha virt. eigenvalues --    0.15515   0.16127   0.18311   0.18735   0.19344

 Mulliken charges:
               1
     1  C   -0.182185
     2  C   -0.067082
     3  H    0.038309
     4  H    0.011284
     5  H    0.090261
     6  C   -0.065908
     7  H   -0.023993
     8  H    0.107873
     9  C   -0.305816
    10  H    0.004815
    11  H    0.125738
    12  H    0.028790
    13  H    0.021066
    14  H    0.216848
 Sum of Mulliken charges =   0.00000

 Dipole moment (field-independent basis, Debye):
    X=             -0.4742    Y=              0.3900    Z=             -0.3634  Tot=              0.7134
 Quadrupole moment (field-independent basis, Debye-Ang):
   XX=            -31.3479   YY=            -29.6715   ZZ=            -29.5761
   XY=             -0.3584   XZ=             -3.3601   YZ=              1.4744

 Normal termination of Gaussian 09 at Wed Aug 26 11:55:58 2020.
