 Gaussian 09, Revision D.01,
 Gaussian 09:  ES64L-G09RevD.01 24-Apr-2013

 --------------------
 #p B2PLYPD3/Def2QZVP
 --------------------

 ----------
 butane_opt
 ----------
 Symbolic Z-matrix:
 Charge =  0 Multiplicity = 1

                         Standard orientation:
 ---------------------------------------------------------------------
 Center     Atomic      Atomic             Coordinates (Angstroms)
 Number     Number       Type             X           Y           Z
 ---------------------------------------------------------------------
      1          6           0        1.945530   -0.138022   -0.025212
      2          6           0        0.576286    0.538720    0.017689
      3          1           0        2.709830    0.622744   -0.110113
      4          1           0        2.101950   -0.783651   -0.896588
      5          1           0        2.142962   -0.674542    0.827035
      6          6           0       -0.558205   -0.529613    0.095628
      7          1           0        0.467940    1.131387   -0.880863
      8          1           0        0.559388    1.184920    0.827883
      9          6           0       -1.973826    0.133395   -0.039883
     10          1           0       -0.423569   -1.138841    0.993833
     11          1           0       -0.518217   -1.164405   -0.784495
     12          1           0       -2.274545    0.841553    0.863515
     13          1           0       -2.766625   -0.611113   -0.278118
     14          1           0       -1.937825    0.565072   -0.851424
 ---------------------------------------------------------------------

 SCF Done:  E(RB2PLYPD3) =  -158.089708054     A.U. after   10 cycles
 E2(B2PLYPD3) =    -0.2454576408D+00 E(B2PLYPD3) =    -0.15833516569529D+03

 The electronic state is 1-A.
 Alpha  occ. eigenvalues --  -10.60683 -10.59770 -10.59034 -10.58657  -0.90703
 Alpha  occ. eigenvalues --   -0.83713  -0.73378  -0.67391  -0.54462  -0.49367
 Alpha  occ. eigenvalues --   -0.48409  -0.47491  -0.43238  -0.42031  -0.39531
 Alpha  occ. eigenvalues --   -0.38328  -0.36872
 Alpha virt. eigenvalues --    0.05896   0.06938   0.08454   0.08947   0.10934
 Alpha virt. eigenvalues --    0.12140   0.12924   0.13685   0.15048   0.15448
 Alpha virt. eigenvalues --    0.16067   0.16692   0.19360   0.20082   0.21946

 Mulliken charges:
               1
     1  C   -0.131475
     2  C   -0.050485
     3  H    0.034035
     4  H    0.034454
     5  H    0.048129
     6  C   -0.058748
     7  H    0.028266
     8  H    0.043467
     9  C   -0.182190
    10  H    0.038726
    11  H    0.037747
    12  H    0.036572
    13  H    0.031796
    14  H    0.089706
 Sum of Mulliken charges =   0.00000

 Dipole moment (field-independent basis, Debye):
    X=              0.1119    Y=              0.0627    Z=             -0.1600  Tot=              0.2051
 Quadrupole moment (field-independent basis, Debye-Ang):
   XX=            -29.8088   YY=            -28.8045   ZZ=            -27.6010
   XY=              0.3006   XZ=              0.6415   YZ=              0.2418

 Normal termination of Gaussian 09 at Wed Aug 26 10:06:18 2020.
