 Gaussian 09, Revision D.01,
 Gaussian 09:  ES64L-G09RevD.01 24-Apr-2013

 --------------------
 #p B2PLYPD3/Def2QZVP
 --------------------

 ----------
 butane_opt
 ----------
 Symbolic Z-matrix:
 Charge =  0 Multiplicity = 1

                         Standard orientation:
 ---------------------------------------------------------------------
 Center     Atomic      Atomic             Coordinates (Angstroms)
 Number     Number       Type             X           Y           Z
 ---------------------------------------------------------------------
      1          6           0        1.958093    0.043249    0.084201
      2          6           0        0.601402   -0.473530   -0.088051
      3          1           0        2.728609   -0.820603   -0.121662
      4          1           0        2.257354    0.981836    1.185491
      5          1           0        2.015738    0.585283   -0.816431
      6          6           0       -0.539725    0.610475   -0.136804
      7          1           0        0.341834   -1.102278    0.713090
      8          1           0        0.596501   -1.287168   -0.993732
      9          6           0       -2.024436   -0.179886    0.039666
     10          1           0       -0.525722    1.186655   -0.807587
     11          1           0       -0.031360    1.334038    0.907614
     12          1           0       -2.051603   -0.392677   -0.552000
     13          1           0       -2.918657    0.601256   -0.171058
     14          1           0       -2.384697   -1.088188    1.262202
 ---------------------------------------------------------------------

 SCF Done:  E(RB2PLYPD3) =  -157.492587244     A.U. after   11 cycles
 E2(B2PLYPD3) =    -0.2553208479D+00 E(B2PLYPD3) =    -0.15774790809244D+03

 The electronic state is 1-A.
 Alpha  occ. eigenvalues --  -10.63523 -10.63261 -10.63113 -10.61901  -0.92261
 Alpha  occ. eigenvalues --   -0.87174  -0.76152  -0.67391  -0.52230  -0.50086
 Alpha  occ. eigenvalues --   -0.47777  -0.47281  -0.40246  -0.38830  -0.38082
 Alpha  occ. eigenvalues --   -0.37018  -0.35343
 Alpha virt. eigenvalues --    0.03272   0.04728   0.06521   0.07518   0.09519
 Alpha virt. eigenvalues --    0.10335   0.11655   0.12644   0.14121   0.14929
 Alpha virt. eigenvalues --    0.15057   0.15992   0.18184   0.18681   0.20041

 Mulliken charges:
               1
     1  C   -0.172428
     2  C   -0.000403
     3  H    0.050226
     4  H    0.022740
     5  H    0.065504
     6  C   -0.108790
     7  H    0.054379
     8  H   -0.003225
     9  C   -0.789469
    10  H    0.132401
    11  H    0.000297
    12  H    0.621838
    13  H    0.067963
    14  H    0.058967
 Sum of Mulliken charges =   0.00000

 Dipole moment (field-independent basis, Debye):
    X=             -0.1517    Y=             -0.2743    Z=             -0.8412  Tot=              0.8977
 Quadrupole moment (field-independent basis, Debye-Ang):
   XX=            -30.4340   YY=            -29.4230   ZZ=            -28.6120
   XY=             -0.1532   XZ=              0.2297   YZ=             -0.8198

 Normal termination of Gaussian 09 at Wed Aug 26 19:11:38 2020.
