 Gaussian 09, Revision D.01,
 Gaussian 09:  ES64L-G09RevD.01 24-Apr-2013

 --------------------
 #p B2PLYPD3/Def2QZVP
 --------------------

 ----------
 butane_opt
 ----------
 Symbolic Z-matrix:
 Charge =  0 Multiplicity = 1

                         Standard orientation:
 ---------------------------------------------------------------------
 Center     Atomic      Atomic             Coordinates (Angstroms)
 Number     Number       Type             X           Y           Z
 ---------------------------------------------------------------------
      1          6           0       -1.811248    0.066089   -0.077142
      2          6           0       -0.528203   -0.473478    0.002147
      3          1           0       -2.605385   -0.832036    0.634964
      4          1           0       -2.327137    0.981185   -1.017011
      5          1           0       -1.921118    0.347635    0.568151
      6          6           0        0.519392    0.541938    0.036295
      7          1           0       -0.650586   -1.128942   -0.822646
      8          1           0       -0.306334   -1.113908    0.915143
      9          6           0        1.935125   -0.149190   -0.067379
     10          1           0        0.178946    1.693224    1.181479
     11          1           0        0.160113    0.992957   -0.739721
     12          1           0        2.132343   -0.703473    0.845605
     13          1           0        2.596857    0.572734   -0.049514
     14          1           0        2.051904   -0.721529   -0.879972
 ---------------------------------------------------------------------

 SCF Done:  E(RB2PLYPD3) =  -157.655801312     A.U. after   12 cycles
 E2(B2PLYPD3) =    -0.2544929079D+00 E(B2PLYPD3) =    -0.15791029421955D+03

 The electronic state is 1-A.
 Alpha  occ. eigenvalues --  -10.63794 -10.60497 -10.59926 -10.59198  -0.96453
 Alpha  occ. eigenvalues --   -0.86676  -0.77252  -0.68196  -0.57404  -0.51644
 Alpha  occ. eigenvalues --   -0.48679  -0.47894  -0.42912  -0.41200  -0.39305
 Alpha  occ. eigenvalues --   -0.34367  -0.32950
 Alpha virt. eigenvalues --    0.02533   0.04504   0.06045   0.07069   0.09805
 Alpha virt. eigenvalues --    0.11182   0.12226   0.13356   0.13656   0.15344
 Alpha virt. eigenvalues --    0.16010   0.16385   0.18319   0.19113   0.20283

 Mulliken charges:
               1
     1  C   -0.606061
     2  C    0.010395
     3  H   -0.004162
     4  H    0.066190
     5  H    0.464818
     6  C   -0.088159
     7  H    0.052140
     8  H    0.022818
     9  C   -0.125876
    10  H   -0.040669
    11  H    0.081356
    12  H    0.042760
    13  H    0.059970
    14  H    0.064479
 Sum of Mulliken charges =   0.00000

 Dipole moment (field-independent basis, Debye):
    X=              0.5780    Y=             -0.1575    Z=             -0.3378  Tot=              0.6877
 Quadrupole moment (field-independent basis, Debye-Ang):
   XX=            -30.3213   YY=            -30.0589   ZZ=            -28.4194
   XY=             -1.7788   XZ=             -0.5835   YZ=             -0.9763

 Normal termination of Gaussian 09 at Wed Aug 26 22:56:44 2020.
