 Gaussian 09, Revision D.01,
 Gaussian 09:  ES64L-G09RevD.01 24-Apr-2013

 --------------------
 #p B2PLYPD3/Def2QZVP
 --------------------

 ----------
 butane_opt
 ----------
 Symbolic Z-matrix:
 Charge =  0 Multiplicity = 1

                         Standard orientation:
 ---------------------------------------------------------------------
 Center     Atomic      Atomic             Coordinates (Angstroms)
 Number     Number       Type             X           Y           Z
 ---------------------------------------------------------------------
      1          6           0        2.021191    0.112330    0.065490
      2          6           0        0.565402   -0.647884   -0.027086
      3          1           0        2.611316   -0.536513   -0.753921
      4          1           0        2.536124    1.345394    1.253935
      5          1           0        1.989829    0.311146   -0.427085
      6          6           0       -0.563786    0.518383   -0.065287
      7          1           0        0.414173   -1.191246    0.683483
      8          1           0        0.017532   -1.119418   -0.875034
      9          6           0       -1.969199   -0.021890    0.106480
     10          1           0       -0.542685    1.500034   -1.281430
     11          1           0       -0.538387    0.775141    0.617767
     12          1           0       -2.031764   -0.516209   -0.727446
     13          1           0       -2.674126    0.537504   -0.063206
     14          1           0       -2.103660   -0.871463    1.095352
 ---------------------------------------------------------------------

 SCF Done:  E(RB2PLYPD3) =  -156.799692263     A.U. after   13 cycles
 E2(B2PLYPD3) =    -0.2595621211D+00 E(B2PLYPD3) =    -0.15705925438441D+03

 The electronic state is 1-A.
 Alpha  occ. eigenvalues --  -10.65369 -10.61130 -10.60789 -10.58801  -0.95362
 Alpha  occ. eigenvalues --   -0.91103  -0.79485  -0.72818  -0.55717  -0.49945
 Alpha  occ. eigenvalues --   -0.46747  -0.45687  -0.41968  -0.39634  -0.38277
 Alpha  occ. eigenvalues --   -0.36148  -0.33711
 Alpha virt. eigenvalues --   -0.02446   0.03996   0.05975   0.07127   0.10263
 Alpha virt. eigenvalues --    0.10765   0.11604   0.12994   0.13299   0.14760
 Alpha virt. eigenvalues --    0.16022   0.16896   0.18141   0.18476   0.20241

 Mulliken charges:
               1
     1  C   -1.000973
     2  C   -0.073288
     3  H    0.041972
     4  H    0.077929
     5  H    0.846199
     6  C   -0.539129
     7  H    0.111466
     8  H    0.058915
     9  C   -0.161731
    10  H   -0.003011
    11  H    0.493458
    12  H    0.048728
    13  H    0.070772
    14  H    0.028694
 Sum of Mulliken charges =   0.00000

 Dipole moment (field-independent basis, Debye):
    X=             -0.5183    Y=              0.2314    Z=             -0.2298  Tot=              0.6124
 Quadrupole moment (field-independent basis, Debye-Ang):
   XX=            -30.3603   YY=            -29.2633   ZZ=            -27.3622
   XY=              1.5491   XZ=             -0.1842   YZ=              0.6560

 Normal termination of Gaussian 09 at Wed Aug 26 21:01:18 2020.
