 Gaussian 09, Revision D.01,
 Gaussian 09:  ES64L-G09RevD.01 24-Apr-2013

 --------------------
 #p B2PLYPD3/Def2QZVP
 --------------------

 ----------
 butane_opt
 ----------
 Symbolic Z-matrix:
 Charge =  0 Multiplicity = 1

                         Standard orientation:
 ---------------------------------------------------------------------
 Center     Atomic      Atomic             Coordinates (Angstroms)
 Number     Number       Type             X           Y           Z
 ---------------------------------------------------------------------
      1          6           0       -1.859736    0.112113   -0.104291
      2          6           0       -0.531978   -0.488145    0.275711
      3          1           0       -2.828046   -0.956843   -0.887792
      4          1           0       -1.553848    0.664130   -1.013401
      5          1           0       -2.537891    0.942665    0.827208
      6          6           0        0.463934    0.546725    0.067994
      7          1           0       -0.425297   -1.117639   -0.352672
      8          1           0       -0.350870   -1.318956    1.329609
      9          6           0        1.907677   -0.132840   -0.139110
     10          1           0        0.692133    1.517668    0.939694
     11          1           0        0.186336    1.044976   -0.916132
     12          1           0        2.267813   -0.571576    0.623715
     13          1           0        2.668714    0.579504   -0.207487
     14          1           0        2.001578   -1.011047   -0.944563
 ---------------------------------------------------------------------

 SCF Done:  E(RB2PLYPD3) =  -157.860433562     A.U. after   11 cycles
 E2(B2PLYPD3) =    -0.2559102988D+00 E(B2PLYPD3) =    -0.15811634386091D+03

 The electronic state is 1-A.
 Alpha  occ. eigenvalues --  -10.68120 -10.64789 -10.61937 -10.59679  -0.94212
 Alpha  occ. eigenvalues --   -0.83257  -0.71670  -0.67670  -0.53481  -0.49941
 Alpha  occ. eigenvalues --   -0.47849  -0.45818  -0.42462  -0.39803  -0.39317
 Alpha  occ. eigenvalues --   -0.36115  -0.33921
 Alpha virt. eigenvalues --    0.02439   0.05220   0.06366   0.06995   0.08302
 Alpha virt. eigenvalues --    0.10157   0.12307   0.13315   0.14210   0.14479
 Alpha virt. eigenvalues --    0.15685   0.16555   0.18439   0.19215   0.19904

 Mulliken charges:
               1
     1  C   -0.172032
     2  C   -0.111090
     3  H   -0.023472
     4  H    0.082543
     5  H    0.052770
     6  C   -0.039202
     7  H    0.149742
     8  H    0.013764
     9  C   -0.128377
    10  H    0.017231
    11  H    0.046093
    12  H    0.054842
    13  H    0.039004
    14  H    0.018183
 Sum of Mulliken charges =   0.00000

 Dipole moment (field-independent basis, Debye):
    X=              1.0532    Y=              0.2113    Z=             -0.1274  Tot=              1.0817
 Quadrupole moment (field-independent basis, Debye-Ang):
   XX=            -32.6749   YY=            -29.2962   ZZ=            -29.5861
   XY=             -1.0841   XZ=              0.5198   YZ=              0.4093

 Normal termination of Gaussian 09 at Wed Aug 26 20:44:40 2020.
