 Gaussian 09, Revision D.01,
 Gaussian 09:  ES64L-G09RevD.01 24-Apr-2013

 --------------------
 #p B2PLYPD3/Def2QZVP
 --------------------

 ----------
 butane_opt
 ----------
 Symbolic Z-matrix:
 Charge =  0 Multiplicity = 1

                         Standard orientation:
 ---------------------------------------------------------------------
 Center     Atomic      Atomic             Coordinates (Angstroms)
 Number     Number       Type             X           Y           Z
 ---------------------------------------------------------------------
      1          6           0       -1.968128   -0.130242   -0.195088
      2          6           0       -0.511236    0.563271    0.342204
      3          1           0       -2.719447    0.500577   -0.667990
      4          1           0       -2.520617   -0.678677    0.725112
      5          1           0       -1.948766   -0.719893   -1.099049
      6          6           0        0.546450   -0.576372    0.112627
      7          1           0       -0.721961    1.166134    1.248267
      8          1           0       -0.394744    1.302359   -0.526948
      9          6           0        2.008303    0.073925   -0.182148
     10          1           0        0.320015   -1.009882   -0.620594
     11          1           0        0.558278   -1.094396    1.039707
     12          1           0        2.202437    0.997438   -1.195697
     13          1           0        2.772180   -0.486922    0.158384
     14          1           0        2.000290    0.439771    0.473240
 ---------------------------------------------------------------------

 SCF Done:  E(RB2PLYPD3) =  -157.814923245     A.U. after   11 cycles
 E2(B2PLYPD3) =    -0.2498924919D+00 E(B2PLYPD3) =    -0.15806481573721D+03

 The electronic state is 1-A.
 Alpha  occ. eigenvalues --  -10.63093 -10.61362 -10.59777 -10.57861  -0.91762
 Alpha  occ. eigenvalues --   -0.83599  -0.75924  -0.68840  -0.54955  -0.49947
 Alpha  occ. eigenvalues --   -0.46602  -0.46048  -0.42570  -0.41683  -0.39513
 Alpha  occ. eigenvalues --   -0.37236  -0.34948
 Alpha virt. eigenvalues --    0.05549   0.06172   0.08097   0.08507   0.10875
 Alpha virt. eigenvalues --    0.11544   0.12205   0.13994   0.14204   0.14863
 Alpha virt. eigenvalues --    0.15919   0.17078   0.18275   0.19646   0.21075

 Mulliken charges:
               1
     1  C   -0.155552
     2  C   -0.088256
     3  H    0.036820
     4  H    0.033520
     5  H    0.043540
     6  C   -0.107242
     7  H    0.063303
     8  H    0.029545
     9  C   -0.515472
    10  H    0.140211
    11  H    0.047733
    12  H    0.045770
    13  H    0.042445
    14  H    0.383636
 Sum of Mulliken charges =   0.00000

 Dipole moment (field-independent basis, Debye):
    X=              0.0222    Y=              0.1185    Z=              0.3715  Tot=              0.3906
 Quadrupole moment (field-independent basis, Debye-Ang):
   XX=            -30.0764   YY=            -29.3567   ZZ=            -27.1064
   XY=             -0.1205   XZ=              1.6678   YZ=             -0.3357

 Normal termination of Gaussian 09 at Wed Aug 26 15:47:20 2020.
