 Gaussian 09, Revision D.01,
 Gaussian 09:  ES64L-G09RevD.01 24-Apr-2013

 --------------------
 #p B2PLYPD3/Def2QZVP
 --------------------

 ----------
 butane_opt
 ----------
 Symbolic Z-matrix:
 Charge =  0 Multiplicity = 1

                         Standard orientation:
 ---------------------------------------------------------------------
 Center     Atomic      Atomic             Coordinates (Angstroms)
 Number     Number       Type             X           Y           Z
 ---------------------------------------------------------------------
      1          6           0        1.999464    0.149003   -0.112325
      2          6           0        0.565421   -0.556154    0.084238
      3          1           0        2.793260   -0.623633    0.008117
      4          1           0        2.164832    0.656368    0.760054
      5          1           0        2.014649    1.200239   -1.072906
      6          6           0       -0.631792    0.373598    0.149490
      7          1           0        0.152346   -1.300588    0.993812
      8          1           0        0.456811   -1.053381   -0.766209
      9          6           0       -1.884442   -0.061804   -0.150780
     10          1           0       -0.544216    0.854765   -0.434515
     11          1           0       -0.575442    1.408167    1.304189
     12          1           0       -1.841090   -0.613538   -1.028061
     13          1           0       -2.683985    0.786150   -0.340375
     14          1           0       -2.229066   -0.742409    0.752153
 ---------------------------------------------------------------------

 SCF Done:  E(RB2PLYPD3) =  -157.798271191     A.U. after   11 cycles
 E2(B2PLYPD3) =    -0.2520975841D+00 E(B2PLYPD3) =    -0.15805036877519D+03

 The electronic state is 1-A.
 Alpha  occ. eigenvalues --  -10.63957 -10.62370 -10.60851 -10.59252  -0.96214
 Alpha  occ. eigenvalues --   -0.84346  -0.73484  -0.68946  -0.55885  -0.50426
 Alpha  occ. eigenvalues --   -0.49450  -0.46257  -0.42949  -0.40523  -0.39449
 Alpha  occ. eigenvalues --   -0.36085  -0.33635
 Alpha virt. eigenvalues --    0.04456   0.04641   0.06515   0.08025   0.10602
 Alpha virt. eigenvalues --    0.11291   0.11940   0.12901   0.13762   0.14758
 Alpha virt. eigenvalues --    0.15375   0.16050   0.18263   0.19336   0.21206

 Mulliken charges:
               1
     1  C   -0.163952
     2  C   -0.066104
     3  H    0.062706
     4  H    0.072666
     5  H    0.039109
     6  C   -0.340445
     7  H    0.030553
     8  H    0.073586
     9  C   -0.132806
    10  H    0.344957
    11  H   -0.051840
    12  H    0.055336
    13  H    0.049061
    14  H    0.027172
 Sum of Mulliken charges =   0.00000

 Dipole moment (field-independent basis, Debye):
    X=              0.1086    Y=             -0.2168    Z=             -0.7877  Tot=              0.8242
 Quadrupole moment (field-independent basis, Debye-Ang):
   XX=            -29.3672   YY=            -29.8321   ZZ=            -29.3675
   XY=             -0.2372   XZ=              1.3183   YZ=             -1.0185

 Normal termination of Gaussian 09 at Wed Aug 26 23:46:24 2020.
