 Gaussian 09, Revision D.01,
 Gaussian 09:  ES64L-G09RevD.01 24-Apr-2013

 --------------------
 #p B2PLYPD3/Def2QZVP
 --------------------

 ----------
 butane_opt
 ----------
 Symbolic Z-matrix:
 Charge =  0 Multiplicity = 1

                         Standard orientation:
 ---------------------------------------------------------------------
 Center     Atomic      Atomic             Coordinates (Angstroms)
 Number     Number       Type             X           Y           Z
 ---------------------------------------------------------------------
      1          6           0        1.923165   -0.134153   -0.111082
      2          6           0        0.568793    0.539322    0.095817
      3          1           0        2.794141    0.740913   -0.248670
      4          1           0        1.908913   -0.767198   -0.993179
      5          1           0        2.185752   -0.890534    0.910161
      6          6           0       -0.569230   -0.502381    0.097305
      7          1           0        0.405011    0.992235   -0.590418
      8          1           0        0.359396    1.323913    1.144579
      9          6           0       -1.915576    0.094673   -0.089501
     10          1           0       -0.464897   -1.291784    1.020205
     11          1           0       -0.461889   -1.029425   -0.660402
     12          1           0       -2.265636    0.697494    0.758094
     13          1           0       -2.706249   -0.525711   -0.270202
     14          1           0       -1.797456    0.765330   -1.025403
 ---------------------------------------------------------------------

 SCF Done:  E(RB2PLYPD3) =  -157.967919976     A.U. after   11 cycles
 E2(B2PLYPD3) =    -0.2483221655D+00 E(B2PLYPD3) =    -0.15821624214117D+03

 The electronic state is 1-A.
 Alpha  occ. eigenvalues --  -10.63885 -10.60261 -10.59686 -10.59618  -0.93016
 Alpha  occ. eigenvalues --   -0.83747  -0.72260  -0.68737  -0.54600  -0.50402
 Alpha  occ. eigenvalues --   -0.47876  -0.47337  -0.42480  -0.39946  -0.39419
 Alpha  occ. eigenvalues --   -0.37633  -0.36777
 Alpha virt. eigenvalues --    0.05171   0.06553   0.07939   0.08386   0.10814
 Alpha virt. eigenvalues --    0.11510   0.12574   0.13223   0.14687   0.15348
 Alpha virt. eigenvalues --    0.15492   0.16411   0.19181   0.19615   0.21276

 Mulliken charges:
               1
     1  C   -0.165629
     2  C   -0.197105
     3  H    0.042147
     4  H    0.064330
     5  H    0.035008
     6  C   -0.065407
     7  H    0.201710
     8  H    0.013092
     9  C   -0.124668
    10  H    0.005112
    11  H    0.083203
    12  H    0.038106
    13  H    0.046317
    14  H    0.023784
 Sum of Mulliken charges =   0.00000

 Dipole moment (field-independent basis, Debye):
    X=             -0.2842    Y=             -0.1304    Z=             -0.6194  Tot=              0.6939
 Quadrupole moment (field-independent basis, Debye-Ang):
   XX=            -30.0004   YY=            -29.3410   ZZ=            -28.4237
   XY=              0.4635   XZ=             -0.6173   YZ=              0.0355

 Normal termination of Gaussian 09 at Wed Aug 26 21:54:32 2020.
