 Gaussian 09, Revision D.01,
 Gaussian 09:  ES64L-G09RevD.01 24-Apr-2013

 --------------------
 #p B2PLYPD3/Def2QZVP
 --------------------

 ----------
 butane_opt
 ----------
 Symbolic Z-matrix:
 Charge =  0 Multiplicity = 1

                         Standard orientation:
 ---------------------------------------------------------------------
 Center     Atomic      Atomic             Coordinates (Angstroms)
 Number     Number       Type             X           Y           Z
 ---------------------------------------------------------------------
      1          6           0       -1.875216   -0.057818    0.157909
      2          6           0       -0.587872    0.456038   -0.300568
      3          1           0       -2.800732    0.911901    0.058638
      4          1           0       -1.964677   -0.791286    1.153072
      5          1           0       -2.190611   -0.699062   -0.562741
      6          6           0        0.519573   -0.635302   -0.032200
      7          1           0       -0.420929    1.218635    0.678247
      8          1           0       -0.317453    1.035527   -1.335077
      9          6           0        1.923115    0.163348    0.077191
     10          1           0        0.607319   -1.294527   -0.704055
     11          1           0        0.295794   -1.120388    0.908713
     12          1           0        1.783371    0.319988   -0.484379
     13          1           0        2.713743   -0.578213   -0.348952
     14          1           0        2.416576    1.439829    1.222539
 ---------------------------------------------------------------------

 SCF Done:  E(RB2PLYPD3) =  -157.392815717     A.U. after   12 cycles
 E2(B2PLYPD3) =    -0.2572823844D+00 E(B2PLYPD3) =    -0.15765009810167D+03

 The electronic state is 1-A.
 Alpha  occ. eigenvalues --  -10.63971 -10.63159 -10.62277 -10.60926  -0.94743
 Alpha  occ. eigenvalues --   -0.87298  -0.75243  -0.66443  -0.54427  -0.49743
 Alpha  occ. eigenvalues --   -0.47114  -0.46285  -0.43528  -0.39568  -0.36525
 Alpha  occ. eigenvalues --   -0.35379  -0.34635
 Alpha virt. eigenvalues --    0.00057   0.04928   0.06448   0.07494   0.09662
 Alpha virt. eigenvalues --    0.10459   0.11207   0.12470   0.14045   0.15033
 Alpha virt. eigenvalues --    0.16055   0.16223   0.18300   0.19356   0.20354

 Mulliken charges:
               1
     1  C   -0.156127
     2  C   -0.075811
     3  H    0.021877
     4  H    0.054033
     5  H    0.053546
     6  C   -0.016650
     7  H    0.030484
     8  H    0.054409
     9  C   -0.912315
    10  H    0.069107
    11  H    0.040953
    12  H    0.724200
    13  H    0.072377
    14  H    0.039917
 Sum of Mulliken charges =   0.00000

 Dipole moment (field-independent basis, Debye):
    X=             -0.2463    Y=             -0.5817    Z=             -0.7604  Tot=              0.9886
 Quadrupole moment (field-independent basis, Debye-Ang):
   XX=            -32.2242   YY=            -28.9026   ZZ=            -28.1606
   XY=              0.4005   XZ=             -1.0402   YZ=              0.3582

 Normal termination of Gaussian 09 at Wed Aug 26 14:33:22 2020.
