 Gaussian 09, Revision D.01,
 Gaussian 09:  ES64L-G09RevD.01 24-Apr-2013

 --------------------
 #p B2PLYPD3/Def2QZVP
 --------------------

 ----------
 butane_opt
 ----------
 Symbolic Z-matrix:
 Charge =  0 Multiplicity = 1

                         Standard orientation:
 ---------------------------------------------------------------------
 Center     Atomic      Atomic             Coordinates (Angstroms)
 Number     Number       Type             X           Y           Z
 ---------------------------------------------------------------------
      1          6           0        1.940347    0.103024   -0.167547
      2          6           0        0.549996   -0.481119    0.140945
      3          1           0        2.847620   -0.860926   -0.210378
      4          1           0        2.172979    0.787009    0.772916
      5          1           0        1.744497    0.718318   -1.051524
      6          6           0       -0.558012    0.532183    0.236864
      7          1           0        0.892034   -1.043669    1.021355
      8          1           0        0.264766   -0.970618   -0.746047
      9          6           0       -1.950822   -0.136583   -0.128769
     10          1           0       -0.400516    1.154660   -0.702726
     11          1           0       -0.552066    1.356590    1.138038
     12          1           0       -1.637109   -0.596078   -0.968949
     13          1           0       -2.754993    0.417855   -0.725231
     14          1           0       -2.466267   -1.068168    0.983591
 ---------------------------------------------------------------------

 SCF Done:  E(RB2PLYPD3) =  -157.966558635     A.U. after   11 cycles
 E2(B2PLYPD3) =    -0.2537331460D+00 E(B2PLYPD3) =    -0.15822029178088D+03

 The electronic state is 1-A.
 Alpha  occ. eigenvalues --  -10.64291 -10.63987 -10.63488 -10.60706  -0.92139
 Alpha  occ. eigenvalues --   -0.82657  -0.71266  -0.65253  -0.55946  -0.48343
 Alpha  occ. eigenvalues --   -0.47418  -0.46172  -0.40598  -0.40026  -0.38263
 Alpha  occ. eigenvalues --   -0.37770  -0.34841
 Alpha virt. eigenvalues --    0.04302   0.05186   0.07393   0.07933   0.10208
 Alpha virt. eigenvalues --    0.10353   0.11416   0.12074   0.13424   0.15142
 Alpha virt. eigenvalues --    0.16344   0.16642   0.18500   0.19123   0.19984

 Mulliken charges:
               1
     1  C   -0.176458
     2  C   -0.049460
     3  H    0.040305
     4  H    0.047138
     5  H    0.054133
     6  C   -0.058475
     7  H    0.038962
     8  H    0.064743
     9  C   -0.184277
    10  H    0.036531
    11  H    0.034424
    12  H    0.080613
    13  H    0.056746
    14  H    0.015075
 Sum of Mulliken charges =   0.00000

 Dipole moment (field-independent basis, Debye):
    X=              0.2017    Y=              0.1703    Z=             -0.5422  Tot=              0.6031
 Quadrupole moment (field-independent basis, Debye-Ang):
   XX=            -32.0586   YY=            -30.4411   ZZ=            -28.2401
   XY=             -1.2734   XZ=              1.9470   YZ=             -0.2002

 Normal termination of Gaussian 09 at Wed Aug 26 21:54:30 2020.
