 Gaussian 09, Revision D.01,
 Gaussian 09:  ES64L-G09RevD.01 24-Apr-2013

 --------------------
 #p B2PLYPD3/Def2QZVP
 --------------------

 ----------
 butane_opt
 ----------
 Symbolic Z-matrix:
 Charge =  0 Multiplicity = 1

                         Standard orientation:
 ---------------------------------------------------------------------
 Center     Atomic      Atomic             Coordinates (Angstroms)
 Number     Number       Type             X           Y           Z
 ---------------------------------------------------------------------
      1          6           0        1.925863   -0.141291   -0.136163
      2          6           0        0.503345    0.594958    0.108033
      3          1           0        2.708161    0.551045   -0.383316
      4          1           0        2.003329   -0.930909   -1.108070
      5          1           0        2.249539   -0.863092    0.906985
      6          6           0       -0.626111   -0.446524    0.212150
      7          1           0        0.274600    1.032375   -0.612638
      8          1           0        0.460369    1.349469    1.006200
      9          6           0       -1.892519    0.055778   -0.194393
     10          1           0       -0.496944   -1.339549    1.339461
     11          1           0       -0.362760   -0.786732   -0.327134
     12          1           0       -2.169896    1.067491    0.739312
     13          1           0       -2.568109   -0.846360   -0.566560
     14          1           0       -1.561759    0.388735   -0.932005
 ---------------------------------------------------------------------

 SCF Done:  E(RB2PLYPD3) =  -157.628462568     A.U. after   11 cycles
 E2(B2PLYPD3) =    -0.2517224863D+00 E(B2PLYPD3) =    -0.15788018505459D+03

 The electronic state is 1-A.
 Alpha  occ. eigenvalues --  -10.64686 -10.61429 -10.60728 -10.58944  -0.98098
 Alpha  occ. eigenvalues --   -0.84079  -0.73943  -0.70827  -0.55609  -0.50238
 Alpha  occ. eigenvalues --   -0.49960  -0.45924  -0.41620  -0.40653  -0.38833
 Alpha  occ. eigenvalues --   -0.36953  -0.36058
 Alpha virt. eigenvalues --    0.04282   0.05683   0.07485   0.08254   0.10520
 Alpha virt. eigenvalues --    0.11515   0.11772   0.12399   0.13118   0.14842
 Alpha virt. eigenvalues --    0.16257   0.16663   0.18195   0.19315   0.19987

 Mulliken charges:
               1
     1  C   -0.172735
     2  C   -0.128587
     3  H    0.066921
     4  H    0.022469
     5  H    0.044830
     6  C   -0.628990
     7  H    0.156366
     8  H    0.030190
     9  C   -0.225938
    10  H   -0.008007
    11  H    0.590661
    12  H    0.036051
    13  H    0.055150
    14  H    0.161619
 Sum of Mulliken charges =   0.00000

 Dipole moment (field-independent basis, Debye):
    X=              0.2966    Y=              0.2682    Z=             -0.9947  Tot=              1.0721
 Quadrupole moment (field-independent basis, Debye-Ang):
   XX=            -30.9977   YY=            -29.2773   ZZ=            -28.5465
   XY=              0.8045   XZ=              0.3290   YZ=              0.8168

 Normal termination of Gaussian 09 at Wed Aug 26 20:07:59 2020.
