 Gaussian 09, Revision D.01,
 Gaussian 09:  ES64L-G09RevD.01 24-Apr-2013

 --------------------
 #p B2PLYPD3/Def2QZVP
 --------------------

 ----------
 butane_opt
 ----------
 Symbolic Z-matrix:
 Charge =  0 Multiplicity = 1

                         Standard orientation:
 ---------------------------------------------------------------------
 Center     Atomic      Atomic             Coordinates (Angstroms)
 Number     Number       Type             X           Y           Z
 ---------------------------------------------------------------------
      1          6           0        1.883895   -0.128426   -0.183135
      2          6           0        0.510255    0.568401    0.246018
      3          1           0        2.569497    0.431082   -0.836031
      4          1           0        1.423913   -0.607772   -0.947791
      5          1           0        2.856118   -1.176555    0.826012
      6          6           0       -0.542733   -0.423966    0.083403
      7          1           0        0.322419    1.039688   -0.457476
      8          1           0        0.641636    1.605572    1.235837
      9          6           0       -1.885018    0.095428   -0.127735
     10          1           0       -0.615549   -1.347190    1.237345
     11          1           0       -0.378998   -0.945104   -0.582297
     12          1           0       -1.974107    0.473723    0.573156
     13          1           0       -2.725266   -0.790533   -0.104327
     14          1           0       -1.918059    0.648469   -1.055733
 ---------------------------------------------------------------------

 SCF Done:  E(RB2PLYPD3) =  -157.677047132     A.U. after   12 cycles
 E2(B2PLYPD3) =    -0.2548524785D+00 E(B2PLYPD3) =    -0.15793189961018D+03

 The electronic state is 1-A.
 Alpha  occ. eigenvalues --  -10.65222 -10.63301 -10.61450 -10.58084  -0.97282
 Alpha  occ. eigenvalues --   -0.86680  -0.74843  -0.70821  -0.57070  -0.50873
 Alpha  occ. eigenvalues --   -0.49720  -0.48614  -0.42652  -0.40842  -0.37964
 Alpha  occ. eigenvalues --   -0.35696  -0.33787
 Alpha virt. eigenvalues --    0.01191   0.04581   0.06524   0.07060   0.08470
 Alpha virt. eigenvalues --    0.10885   0.11635   0.13090   0.14353   0.15312
 Alpha virt. eigenvalues --    0.16109   0.16427   0.17806   0.18886   0.20095

 Mulliken charges:
               1
     1  C   -0.179920
     2  C   -0.202662
     3  H    0.055988
     4  H    0.079824
     5  H    0.007771
     6  C   -0.124366
     7  H    0.211643
     8  H    0.022516
     9  C   -0.329918
    10  H   -0.040263
    11  H    0.160408
    12  H    0.247437
    13  H    0.042107
    14  H    0.049434
 Sum of Mulliken charges =   0.00000

 Dipole moment (field-independent basis, Debye):
    X=             -0.5406    Y=              0.6901    Z=             -1.3715  Tot=              1.6277
 Quadrupole moment (field-independent basis, Debye-Ang):
   XX=            -31.1984   YY=            -30.1599   ZZ=            -28.7612
   XY=              0.7147   XZ=             -0.9266   YZ=              0.1316

 Normal termination of Gaussian 09 at Wed Aug 26 10:20:16 2020.
