 Gaussian 09, Revision D.01,
 Gaussian 09:  ES64L-G09RevD.01 24-Apr-2013

 --------------------
 #p B2PLYPD3/Def2QZVP
 --------------------

 ----------
 butane_opt
 ----------
 Symbolic Z-matrix:
 Charge =  0 Multiplicity = 1

                         Standard orientation:
 ---------------------------------------------------------------------
 Center     Atomic      Atomic             Coordinates (Angstroms)
 Number     Number       Type             X           Y           Z
 ---------------------------------------------------------------------
      1          6           0       -2.028540    0.155989   -0.061492
      2          6           0       -0.490272   -0.605221    0.071804
      3          1           0       -2.631197   -0.576523    0.401612
      4          1           0       -2.767807    1.124459   -1.084367
      5          1           0       -2.079526    0.227205    0.455883
      6          6           0        0.632379    0.486932    0.018273
      7          1           0       -0.234953   -1.214658   -0.733570
      8          1           0       -0.489273   -1.200655    0.946580
      9          6           0        1.920091   -0.041155   -0.109103
     10          1           0        0.556905    1.541255    1.183348
     11          1           0        0.483094    0.858620   -0.511899
     12          1           0        2.073834   -0.573401    0.718825
     13          1           0        2.636668    0.591163    0.135471
     14          1           0        2.250310   -0.756737   -1.028771
 ---------------------------------------------------------------------

 SCF Done:  E(RB2PLYPD3) =  -156.796289007     A.U. after   12 cycles
 E2(B2PLYPD3) =    -0.2538581458D+00 E(B2PLYPD3) =    -0.15705014715258D+03

 The electronic state is 1-A.
 Alpha  occ. eigenvalues --  -10.63383 -10.62526 -10.60154 -10.58134  -0.96281
 Alpha  occ. eigenvalues --   -0.93059  -0.79267  -0.73556  -0.53514  -0.51407
 Alpha  occ. eigenvalues --   -0.48565  -0.47096  -0.43062  -0.41781  -0.38232
 Alpha  occ. eigenvalues --   -0.36917  -0.34180
 Alpha virt. eigenvalues --    0.02816   0.04266   0.06221   0.07303   0.10442
 Alpha virt. eigenvalues --    0.10847   0.12476   0.13066   0.14533   0.15695
 Alpha virt. eigenvalues --    0.16241   0.16896   0.18334   0.18897   0.20281

 Mulliken charges:
               1
     1  C   -0.968899
     2  C    0.019482
     3  H    0.009917
     4  H    0.082983
     5  H    0.805745
     6  C   -0.569464
     7  H    0.058826
     8  H    0.041562
     9  C   -0.079126
    10  H   -0.044435
    11  H    0.517118
    12  H    0.043411
    13  H    0.049810
    14  H    0.033071
 Sum of Mulliken charges =   0.00000

 Dipole moment (field-independent basis, Debye):
    X=              0.2035    Y=             -0.5312    Z=              0.1117  Tot=              0.5797
 Quadrupole moment (field-independent basis, Debye-Ang):
   XX=            -27.8831   YY=            -29.1811   ZZ=            -27.7633
   XY=             -0.9308   XZ=             -0.8291   YZ=             -1.4527

 Normal termination of Gaussian 09 at Wed Aug 26 22:16:42 2020.
