 Gaussian 09, Revision D.01,
 Gaussian 09:  ES64L-G09RevD.01 24-Apr-2013

 --------------------
 #p B2PLYPD3/Def2QZVP
 --------------------

 ----------
 butane_opt
 ----------
 Symbolic Z-matrix:
 Charge =  0 Multiplicity = 1

                         Standard orientation:
 ---------------------------------------------------------------------
 Center     Atomic      Atomic             Coordinates (Angstroms)
 Number     Number       Type             X           Y           Z
 ---------------------------------------------------------------------
      1          6           0       -1.902393   -0.188769    0.152336
      2          6           0       -0.516614    0.657397   -0.230678
      3          1           0       -2.644934    0.327493    1.167069
      4          1           0       -1.634755   -0.837509    0.943762
      5          1           0       -2.657942   -0.801949   -0.998859
      6          6           0        0.573176   -0.426094   -0.261082
      7          1           0       -0.207539    1.044875    0.664890
      8          1           0       -0.593169    1.720305   -1.090596
      9          6           0        1.933475    0.002218    0.194171
     10          1           0        0.447324   -1.088856   -1.209860
     11          1           0        0.209690   -1.244719    0.554301
     12          1           0        1.918927    0.622058   -0.438341
     13          1           0        2.723586   -0.617520   -0.056638
     14          1           0        1.912950    0.607312    1.335792
 ---------------------------------------------------------------------

 SCF Done:  E(RB2PLYPD3) =  -157.854035524     A.U. after   11 cycles
 E2(B2PLYPD3) =    -0.2569044837D+00 E(B2PLYPD3) =    -0.15811094000799D+03

 The electronic state is 1-A.
 Alpha  occ. eigenvalues --  -10.66866 -10.64715 -10.63141 -10.59294  -0.92583
 Alpha  occ. eigenvalues --   -0.82929  -0.71605  -0.65580  -0.52728  -0.52281
 Alpha  occ. eigenvalues --   -0.45934  -0.44914  -0.41446  -0.39585  -0.38099
 Alpha  occ. eigenvalues --   -0.36472  -0.33395
 Alpha virt. eigenvalues --    0.03474   0.05637   0.06122   0.07734   0.09102
 Alpha virt. eigenvalues --    0.10328   0.11738   0.13456   0.14021   0.14740
 Alpha virt. eigenvalues --    0.15798   0.16040   0.17975   0.18829   0.19670

 Mulliken charges:
               1
     1  C   -0.198349
     2  C   -0.104329
     3  H    0.011474
     4  H    0.096690
     5  H    0.047601
     6  C   -0.017119
     7  H    0.096017
     8  H    0.036745
     9  C   -0.242725
    10  H    0.027026
    11  H    0.002641
    12  H    0.154558
    13  H    0.058595
    14  H    0.031175
 Sum of Mulliken charges =   0.00000

 Dipole moment (field-independent basis, Debye):
    X=              0.7350    Y=             -0.1005    Z=              0.1583  Tot=              0.7586
 Quadrupole moment (field-independent basis, Debye-Ang):
   XX=            -32.0667   YY=            -30.1119   ZZ=            -28.1771
   XY=              0.5908   XZ=             -0.6635   YZ=              0.0900

 Normal termination of Gaussian 09 at Wed Aug 26 23:43:58 2020.
