 Gaussian 09, Revision D.01,
 Gaussian 09:  ES64L-G09RevD.01 24-Apr-2013

 --------------------
 #p B2PLYPD3/Def2QZVP
 --------------------

 ----------
 butane_opt
 ----------
 Symbolic Z-matrix:
 Charge =  0 Multiplicity = 1

                         Standard orientation:
 ---------------------------------------------------------------------
 Center     Atomic      Atomic             Coordinates (Angstroms)
 Number     Number       Type             X           Y           Z
 ---------------------------------------------------------------------
      1          6           0        1.963540    0.149971   -0.001467
      2          6           0        0.537423   -0.587615    0.023299
      3          1           0        2.634093   -0.565647   -0.389967
      4          1           0        2.350678    1.241472    1.089870
      5          1           0        1.869279    0.375271   -0.654586
      6          6           0       -0.602381    0.488736   -0.081915
      7          1           0        0.366044   -1.235610    0.937795
      8          1           0        0.425310   -1.163505   -0.771307
      9          6           0       -1.907421   -0.092330    0.056745
     10          1           0       -0.545846    1.119411   -1.075217
     11          1           0       -0.351867    1.064439    0.697005
     12          1           0       -1.958185   -0.614045   -0.750220
     13          1           0       -2.729641    0.706079   -0.052782
     14          1           0       -2.006830   -0.680435    0.989439
 ---------------------------------------------------------------------

 SCF Done:  E(RB2PLYPD3) =  -157.746939213     A.U. after   11 cycles
 E2(B2PLYPD3) =    -0.2494653285D+00 E(B2PLYPD3) =    -0.15799640454110D+03

 The electronic state is 1-A.
 Alpha  occ. eigenvalues --  -10.60774 -10.60040 -10.59431 -10.58377  -0.93526
 Alpha  occ. eigenvalues --   -0.88001  -0.75510  -0.67602  -0.55419  -0.49426
 Alpha  occ. eigenvalues --   -0.48492  -0.48284  -0.42773  -0.40381  -0.38928
 Alpha  occ. eigenvalues --   -0.38224  -0.35934
 Alpha virt. eigenvalues --    0.03535   0.06127   0.07806   0.08003   0.10708
 Alpha virt. eigenvalues --    0.11038   0.12491   0.13083   0.14832   0.15668
 Alpha virt. eigenvalues --    0.16059   0.16646   0.18702   0.19407   0.20887

 Mulliken charges:
               1
     1  C   -0.659711
     2  C   -0.036091
     3  H    0.062609
     4  H    0.045596
     5  H    0.503645
     6  C   -0.056577
     7  H    0.026017
     8  H    0.057375
     9  C   -0.158377
    10  H    0.008412
    11  H    0.060538
    12  H    0.065704
    13  H    0.033548
    14  H    0.047311
 Sum of Mulliken charges =   0.00000

 Dipole moment (field-independent basis, Debye):
    X=             -0.1491    Y=             -0.1658    Z=             -0.5430  Tot=              0.5870
 Quadrupole moment (field-independent basis, Debye-Ang):
   XX=            -30.7013   YY=            -28.8902   ZZ=            -27.4140
   XY=             -0.1829   XZ=             -0.7907   YZ=              0.6307

 Normal termination of Gaussian 09 at Wed Aug 26 11:26:16 2020.
