 Gaussian 09, Revision D.01,
 Gaussian 09:  ES64L-G09RevD.01 24-Apr-2013

 --------------------
 #p B2PLYPD3/Def2QZVP
 --------------------

 ----------
 butane_opt
 ----------
 Symbolic Z-matrix:
 Charge =  0 Multiplicity = 1

                         Standard orientation:
 ---------------------------------------------------------------------
 Center     Atomic      Atomic             Coordinates (Angstroms)
 Number     Number       Type             X           Y           Z
 ---------------------------------------------------------------------
      1          6           0        1.934506   -0.152907   -0.192138
      2          6           0        0.521394    0.629281    0.198094
      3          1           0        2.439564    0.274572   -0.782061
      4          1           0        1.629537   -0.507342   -0.846121
      5          1           0        2.653946   -1.202711    1.038595
      6          6           0       -0.544292   -0.412889    0.133375
      7          1           0        0.359717    0.849115   -0.594935
      8          1           0        0.453939    1.727822    1.259432
      9          6           0       -1.869282    0.028063   -0.114556
     10          1           0       -0.435649   -1.160905    1.133430
     11          1           0       -0.715917   -1.055994   -0.646336
     12          1           0       -2.233596    0.619186    0.694064
     13          1           0       -2.708620   -0.983459   -0.129942
     14          1           0       -1.696881    0.890433   -1.274772
 ---------------------------------------------------------------------

 SCF Done:  E(RB2PLYPD3) =  -157.569711049     A.U. after   12 cycles
 E2(B2PLYPD3) =    -0.2590476302D+00 E(B2PLYPD3) =    -0.15782875867920D+03

 The electronic state is 1-A.
 Alpha  occ. eigenvalues --  -10.65391 -10.63808 -10.61318 -10.61179  -0.96692
 Alpha  occ. eigenvalues --   -0.89223  -0.78074  -0.65661  -0.55953  -0.50179
 Alpha  occ. eigenvalues --   -0.49444  -0.44696  -0.41188  -0.39723  -0.37245
 Alpha  occ. eigenvalues --   -0.34814  -0.34526
 Alpha virt. eigenvalues --    0.01031   0.03673   0.04765   0.06731   0.08206
 Alpha virt. eigenvalues --    0.10278   0.11174   0.11806   0.13541   0.14618
 Alpha virt. eigenvalues --    0.15820   0.16616   0.17471   0.18803   0.19894

 Mulliken charges:
               1
     1  C   -0.409754
     2  C   -0.325416
     3  H    0.108868
     4  H    0.284515
     5  H    0.011224
     6  C   -0.035632
     7  H    0.301937
     8  H    0.041390
     9  C   -0.164030
    10  H    0.010271
    11  H    0.067971
    12  H    0.059411
    13  H    0.046946
    14  H    0.002300
 Sum of Mulliken charges =   0.00000

 Dipole moment (field-independent basis, Debye):
    X=             -0.3703    Y=              0.0189    Z=             -0.7416  Tot=              0.8291
 Quadrupole moment (field-independent basis, Debye-Ang):
   XX=            -32.3672   YY=            -30.1356   ZZ=            -28.3312
   XY=              1.2758   XZ=             -2.2631   YZ=              0.1877

 Normal termination of Gaussian 09 at Wed Aug 26 14:14:26 2020.
