 Gaussian 09, Revision D.01,
 Gaussian 09:  ES64L-G09RevD.01 24-Apr-2013

 --------------------
 #p B2PLYPD3/Def2QZVP
 --------------------

 ----------
 butane_opt
 ----------
 Symbolic Z-matrix:
 Charge =  0 Multiplicity = 1

                         Standard orientation:
 ---------------------------------------------------------------------
 Center     Atomic      Atomic             Coordinates (Angstroms)
 Number     Number       Type             X           Y           Z
 ---------------------------------------------------------------------
      1          6           0        1.866818    0.101366   -0.237863
      2          6           0        0.608825   -0.407748    0.276449
      3          1           0        2.651544   -0.777233   -0.464723
      4          1           0        2.356363    1.030470    0.583727
      5          1           0        1.480810    0.229257   -0.701228
      6          6           0       -0.485582    0.498988    0.052893
      7          1           0        0.538827   -1.076797    1.423163
      8          1           0        0.511540   -0.877118   -0.458829
      9          6           0       -1.916776   -0.181979   -0.126961
     10          1           0       -0.222412    0.809906   -0.620251
     11          1           0       -0.703026    1.442490    0.960455
     12          1           0       -2.065396   -0.793436   -0.928418
     13          1           0       -2.858679    0.708308   -0.306143
     14          1           0       -2.129283   -0.759609    0.725142
 ---------------------------------------------------------------------

 SCF Done:  E(RB2PLYPD3) =  -157.389695740     A.U. after   11 cycles
 E2(B2PLYPD3) =    -0.2508221235D+00 E(B2PLYPD3) =    -0.15764051786352D+03

 The electronic state is 1-A.
 Alpha  occ. eigenvalues --  -10.61631 -10.60375 -10.60313 -10.60193  -1.02979
 Alpha  occ. eigenvalues --   -0.87530  -0.76065  -0.69321  -0.57598  -0.53121
 Alpha  occ. eigenvalues --   -0.50746  -0.46218  -0.44703  -0.40537  -0.38895
 Alpha  occ. eigenvalues --   -0.37733  -0.35038
 Alpha virt. eigenvalues --    0.05098   0.06323   0.07798   0.08389   0.10495
 Alpha virt. eigenvalues --    0.10754   0.12218   0.12944   0.13952   0.15167
 Alpha virt. eigenvalues --    0.16128   0.17001   0.18399   0.19643   0.21340

 Mulliken charges:
               1
     1  C   -0.799878
     2  C   -0.106146
     3  H    0.079682
     4  H    0.043472
     5  H    0.618386
     6  C   -0.333841
     7  H    0.012347
     8  H    0.179643
     9  C   -0.132747
    10  H    0.297229
    11  H    0.012204
    12  H    0.040039
    13  H    0.021022
    14  H    0.068588
 Sum of Mulliken charges =   0.00000

 Dipole moment (field-independent basis, Debye):
    X=             -0.0509    Y=             -0.4895    Z=             -0.6242  Tot=              0.7949
 Quadrupole moment (field-independent basis, Debye-Ang):
   XX=            -30.0401   YY=            -29.4188   ZZ=            -28.2890
   XY=             -0.4193   XZ=              0.1150   YZ=              0.6594

 Normal termination of Gaussian 09 at Wed Aug 26 09:53:26 2020.
