 Gaussian 09, Revision D.01,
 Gaussian 09:  ES64L-G09RevD.01 24-Apr-2013

 --------------------
 #p B2PLYPD3/Def2QZVP
 --------------------

 ----------
 butane_opt
 ----------
 Symbolic Z-matrix:
 Charge =  0 Multiplicity = 1

                         Standard orientation:
 ---------------------------------------------------------------------
 Center     Atomic      Atomic             Coordinates (Angstroms)
 Number     Number       Type             X           Y           Z
 ---------------------------------------------------------------------
      1          6           0        1.945580    0.179186   -0.171715
      2          6           0        0.523839   -0.512870    0.113497
      3          1           0        2.723400   -0.687792   -0.025957
      4          1           0        1.981052    0.493888    0.524254
      5          1           0        1.914881    0.897142   -1.145805
      6          6           0       -0.603766    0.447686    0.212151
      7          1           0        0.529140   -1.350321    1.217385
      8          1           0        0.406953   -0.755223   -0.440262
      9          6           0       -1.856456   -0.176752   -0.156794
     10          1           0       -0.329475    0.870759   -0.517043
     11          1           0       -0.513650    1.474332    1.504945
     12          1           0       -1.597692   -0.794304   -1.103045
     13          1           0       -2.801097    0.723575   -0.642363
     14          1           0       -2.368695   -0.495555    0.645055
 ---------------------------------------------------------------------

 SCF Done:  E(RB2PLYPD3) =  -157.329852705     A.U. after   12 cycles
 E2(B2PLYPD3) =    -0.2534130308D+00 E(B2PLYPD3) =    -0.15758326573611D+03

 The electronic state is 1-A.
 Alpha  occ. eigenvalues --  -10.63370 -10.62482 -10.60631 -10.59372  -0.98523
 Alpha  occ. eigenvalues --   -0.86528  -0.78630  -0.70163  -0.56319  -0.51642
 Alpha  occ. eigenvalues --   -0.49248  -0.47643  -0.45821  -0.41839  -0.37401
 Alpha  occ. eigenvalues --   -0.35394  -0.34221
 Alpha virt. eigenvalues --    0.03165   0.05294   0.06505   0.07327   0.09676
 Alpha virt. eigenvalues --    0.11222   0.11303   0.13397   0.13793   0.15064
 Alpha virt. eigenvalues --    0.15710   0.16212   0.17694   0.18976   0.20912

 Mulliken charges:
               1
     1  C   -0.419225
     2  C   -0.836395
     3  H    0.057954
     4  H    0.344688
     5  H    0.062216
     6  C   -0.109681
     7  H    0.020254
     8  H    0.727485
     9  C   -0.144967
    10  H    0.186958
    11  H   -0.033320
    12  H    0.064483
    13  H   -0.002206
    14  H    0.081757
 Sum of Mulliken charges =   0.00000

 Dipole moment (field-independent basis, Debye):
    X=              0.1761    Y=             -0.3909    Z=             -0.6445  Tot=              0.7741
 Quadrupole moment (field-independent basis, Debye-Ang):
   XX=            -30.2899   YY=            -30.5680   ZZ=            -28.1665
   XY=              0.6335   XZ=              0.0114   YZ=             -0.7441

 Normal termination of Gaussian 09 at Wed Aug 26 14:07:09 2020.
