 Gaussian 09, Revision D.01,
 Gaussian 09:  ES64L-G09RevD.01 24-Apr-2013

 --------------------
 #p B2PLYPD3/Def2QZVP
 --------------------

 ----------
 butane_opt
 ----------
 Symbolic Z-matrix:
 Charge =  0 Multiplicity = 1

                         Standard orientation:
 ---------------------------------------------------------------------
 Center     Atomic      Atomic             Coordinates (Angstroms)
 Number     Number       Type             X           Y           Z
 ---------------------------------------------------------------------
      1          6           0       -1.978021    0.148332    0.070635
      2          6           0       -0.463048   -0.555155   -0.030196
      3          1           0       -2.788047   -0.733864   -0.571769
      4          1           0       -1.982520    0.010393   -0.413134
      5          1           0       -2.491310    1.616821    1.276844
      6          6           0        0.619623    0.387862   -0.314136
      7          1           0       -0.302011   -1.069842   -0.673780
      8          1           0       -0.284955   -1.135008    0.970785
      9          6           0        1.900646   -0.004990    0.221143
     10          1           0        0.170863    1.053928    0.317417
     11          1           0        0.724048    1.059860   -1.315480
     12          1           0        1.824047   -0.603009    1.338129
     13          1           0        2.630699    0.748217   -0.097412
     14          1           0        2.023990   -0.803796   -0.516271
 ---------------------------------------------------------------------

 SCF Done:  E(RB2PLYPD3) =  -156.755063448     A.U. after   14 cycles
 E2(B2PLYPD3) =    -0.2654014454D+00 E(B2PLYPD3) =    -0.15702046489290D+03

 The electronic state is 1-A.
 Alpha  occ. eigenvalues --  -10.68327 -10.61509 -10.60710 -10.59701  -0.97470
 Alpha  occ. eigenvalues --   -0.91039  -0.78879  -0.67671  -0.56230  -0.51007
 Alpha  occ. eigenvalues --   -0.46577  -0.46103  -0.40982  -0.39420  -0.37482
 Alpha  occ. eigenvalues --   -0.34001  -0.30988
 Alpha virt. eigenvalues --   -0.05622   0.02990   0.05892   0.06841   0.09979
 Alpha virt. eigenvalues --    0.10657   0.12026   0.12533   0.14000   0.15390
 Alpha virt. eigenvalues --    0.15680   0.16520   0.18116   0.18965   0.19413

 Mulliken charges:
               1
     1  C   -1.123664
     2  C   -0.211846
     3  H    0.014824
     4  H    0.970675
     5  H    0.093055
     6  C   -0.042098
     7  H    0.209385
     8  H    0.047455
     9  C   -0.150310
    10  H    0.037841
    11  H    0.021337
    12  H    0.047756
    13  H    0.053462
    14  H    0.032126
 Sum of Mulliken charges =   0.00000

 Dipole moment (field-independent basis, Debye):
    X=              0.3653    Y=              0.3334    Z=             -0.6523  Tot=              0.8186
 Quadrupole moment (field-independent basis, Debye-Ang):
   XX=            -32.0778   YY=            -29.0457   ZZ=            -27.5371
   XY=             -1.0196   XZ=              0.2395   YZ=              1.3436

 Normal termination of Gaussian 09 at Wed Aug 26 14:25:59 2020.
