 Gaussian 09, Revision D.01,
 Gaussian 09:  ES64L-G09RevD.01 24-Apr-2013

 ------------------------------------
 #p B2PLYPD3/6-31G** opt freq=NoRaman
 ------------------------------------

 ------------
 methanol_opt
 ------------
 Symbolic Z-matrix:
 Charge =  0 Multiplicity = 1

 SCF Done:  E(RB2PLYPD3) =  -115.493769083     A.U. after   11 cycles
 E2(B2PLYPD3) =    -0.1091689196D+00 E(B2PLYPD3) =    -0.11560293800238D+03
 SCF Done:  E(RB2PLYPD3) =  -115.494550707     A.U. after   11 cycles
 E2(B2PLYPD3) =    -0.1093331835D+00 E(B2PLYPD3) =    -0.11560388389059D+03
 SCF Done:  E(RB2PLYPD3) =  -115.494729956     A.U. after    8 cycles
 E2(B2PLYPD3) =    -0.1092362016D+00 E(B2PLYPD3) =    -0.11560396615760D+03
 SCF Done:  E(RB2PLYPD3) =  -115.494756162     A.U. after    8 cycles
 E2(B2PLYPD3) =    -0.1092126786D+00 E(B2PLYPD3) =    -0.11560396884012D+03
 Optimization completed.
    -- Stationary point found.
 Normal termination of Gaussian 09 at Wed Aug 19 17:46:27 2020.

 ----------------------------------------------------------------------
 #P Geom=AllCheck Guess=TCheck SCRF=Check GenChk RB2PLYPD3(FC)/6-31G(d,
 p) Freq
 ----------------------------------------------------------------------

 Structure from the checkpoint file:  "methanol_opt.chk"
 ------------
 methanol_opt
 ------------
 Charge =  0 Multiplicity = 1

                         Standard orientation:
 ---------------------------------------------------------------------
 Center     Atomic      Atomic             Coordinates (Angstroms)
 Number     Number       Type             X           Y           Z
 ---------------------------------------------------------------------
      1          6           0       -0.662769   -0.019206    0.000000
      2          8           0        0.749071    0.121812    0.000000
      3          1           0       -1.033348   -0.541964    0.889506
      4          1           0       -1.033348   -0.541972   -0.889502
      5          1           0       -1.078360    0.987605   -0.000005
      6          1           0        1.129104   -0.762930    0.000000
 ---------------------------------------------------------------------

 SCF Done:  E(RB2PLYPD3) =  -115.494756162     A.U. after    1 cycles
 E2(B2PLYPD3) =    -0.1092126785D+00 E(B2PLYPD3) =    -0.11560396884008D+03
 E2(B2PLYPD3) =    -0.1092126785D+00 E(B2PLYPD3) =    -0.11560396884008D+03

 The electronic state is 1-A.
 Alpha  occ. eigenvalues --  -19.73289 -10.66187  -1.15124  -0.78020  -0.57696
 Alpha  occ. eigenvalues --   -0.50881  -0.48889  -0.40028  -0.34006
 Alpha virt. eigenvalues --    0.13784   0.19150   0.23101   0.23863   0.27931
 Alpha virt. eigenvalues --    0.62971   0.64215   0.65211   0.86879   0.93898
 Alpha virt. eigenvalues --    0.95485   0.99549   1.04032   1.07837   1.10794

 Mulliken charges:
               1
     1  C   -0.052754
     2  O   -0.578677
     3  H    0.093604
     4  H    0.093604
     5  H    0.124909
     6  H    0.319314
 Sum of Mulliken charges =   0.00000

 Dipole moment (field-independent basis, Debye):
    X=             -0.8535    Y=             -1.5622    Z=              0.0000  Tot=              1.7801
 Quadrupole moment (field-independent basis, Debye-Ang):
   XX=            -12.5955   YY=            -11.9679   ZZ=            -13.5558
   XY=             -2.2387   XZ=              0.0000   YZ=              0.0000

  Exact polarizability:  17.200  -0.964  16.005   0.000   0.000  14.089
 Approx polarizability:  16.951  -0.658  16.891   0.000   0.000  14.283

                      1                      2                      3
                      A                      A                      A
 Frequencies --    340.9787              1072.0375              1104.0929
 Red. masses --      1.0690                 1.9389                 1.8338
 Frc consts  --      0.0732                 1.3129                 1.3171
 IR Inten    --    126.6879               118.5799                 3.0041

                      4                      5                      6
                      A                      A                      A
 Frequencies --   1193.7969              1400.1262              1519.0773
 Red. masses --      1.2661                 1.2814                 1.1437
 Frc consts  --      1.0631                 1.4800                 1.5549
 IR Inten    --      0.8387                27.2254                 8.0414

                      7                      8                      9
                      A                      A                      A
 Frequencies --   1535.1395              1551.2150              3039.3445
 Red. masses --      1.0503                 1.0495                 1.0364
 Frc consts  --      1.4584                 1.4880                 5.6406
 IR Inten    --      1.3927                 3.6540                59.1851

                     10                     11                     12
                      A                      A                      A
 Frequencies --   3094.5161              3176.1426              3870.9933
 Red. masses --      1.1056                 1.0983                 1.0665
 Frc consts  --      6.2377                 6.5276                 9.4161
 IR Inten    --     77.5080                33.1998                16.3328

 - Thermochemistry -
 -------------------
 Temperature   298.150 Kelvin.  Pressure   1.00000 Atm.
 Atom     1 has atomic number  6 and mass  12.00000

 Molecular mass:    32.02621 amu.
 Principal axes and moments of inertia in atomic units:
                           1         2         3
     Eigenvalues --    14.07562  72.70517  75.39040
           X            0.99896  -0.04551   0.00000
           Y            0.04551   0.99896   0.00000
           Z            0.00000   0.00000   1.00000
 This molecule is an asymmetric top.
 Rotational symmetry number  1.
 Rotational temperatures (Kelvin)      6.15346     1.19130     1.14887
 Rotational constants (GHZ):         128.21754    24.82274    23.93861
 Zero-point vibrational energy     136957.2 (Joules/Mol)
                                   32.73356 (Kcal/Mol)
 Warning -- explicit consideration of   1 degrees of freedom as
           vibrations may cause significant error
 Vibrational temperatures:    490.59  1542.42  1588.54  1717.61  2014.47
          (Kelvin)           2185.61  2208.72  2231.85  4372.93  4452.31
                             4569.76  5569.49

 Zero-point correction=                           0.052164 (Hartree/Particle)
 Thermal correction to Energy=                    0.055458
 Thermal correction to Enthalpy=                  0.056402
 Thermal correction to Gibbs Free Energy=         0.029444
 Sum of electronic and zero-point Energies=           -115.551805
 Sum of electronic and thermal Energies=              -115.548511
 Sum of electronic and thermal Enthalpies=            -115.547567
 Sum of electronic and thermal Free Energies=         -115.574525

                     E (Thermal)             CV                S
                      KCal/Mol        Cal/Mol-Kelvin    Cal/Mol-Kelvin
 Total                   34.800              8.650             56.738
 Electronic               0.000              0.000              0.000
 Translational            0.889              2.981             36.324
 Rotational               0.889              2.981             18.984
 Vibrational             33.023              2.689              1.430
 Vibration     1          0.720              1.594              1.208

 Optimization completed.
    -- Stationary point found.
 Normal termination of Gaussian 09 at Wed Aug 19 17:46:38 2020.
