 Gaussian 09, Revision D.01,
 Gaussian 09:  ES64L-G09RevD.01 24-Apr-2013

 -------------------------------------
 #p B2PLYPD3/Def2QZVP opt freq=NoRaman
 -------------------------------------

 ----------------
 cyanomethane_opt
 ----------------
 Symbolic Z-matrix:
 Charge =  0 Multiplicity = 1

 SCF Done:  E(RB2PLYPD3) =  -132.514309067     A.U. after   13 cycles
 E2(B2PLYPD3) =    -0.1806718657D+00 E(B2PLYPD3) =    -0.13269498093224D+03
 SCF Done:  E(RB2PLYPD3) =  -132.527385701     A.U. after   12 cycles
 E2(B2PLYPD3) =    -0.1814428183D+00 E(B2PLYPD3) =    -0.13270882851916D+03
 SCF Done:  E(RB2PLYPD3) =  -132.534022058     A.U. after   12 cycles
 E2(B2PLYPD3) =    -0.1812322274D+00 E(B2PLYPD3) =    -0.13271525428503D+03
 SCF Done:  E(RB2PLYPD3) =  -132.535502662     A.U. after   10 cycles
 E2(B2PLYPD3) =    -0.1807532862D+00 E(B2PLYPD3) =    -0.13271625594836D+03
 SCF Done:  E(RB2PLYPD3) =  -132.535792326     A.U. after    8 cycles
 E2(B2PLYPD3) =    -0.1805574064D+00 E(B2PLYPD3) =    -0.13271634973221D+03
 SCF Done:  E(RB2PLYPD3) =  -132.535794795     A.U. after    7 cycles
 E2(B2PLYPD3) =    -0.1805619117D+00 E(B2PLYPD3) =    -0.13271635670656D+03
 SCF Done:  E(RB2PLYPD3) =  -132.535795485     A.U. after    4 cycles
 E2(B2PLYPD3) =    -0.1805616801D+00 E(B2PLYPD3) =    -0.13271635716482D+03
 SCF Done:  E(RB2PLYPD3) =  -132.535795068     A.U. after    5 cycles
 E2(B2PLYPD3) =    -0.1805617196D+00 E(B2PLYPD3) =    -0.13271635678776D+03
 SCF Done:  E(RB2PLYPD3) =  -132.535795156     A.U. after    4 cycles
 E2(B2PLYPD3) =    -0.1805614785D+00 E(B2PLYPD3) =    -0.13271635663466D+03
 SCF Done:  E(RB2PLYPD3) =  -132.535795501     A.U. after    3 cycles
 E2(B2PLYPD3) =    -0.1805616041D+00 E(B2PLYPD3) =    -0.13271635710518D+03
 E2(B2PLYPD3) =    -0.1805617646D+00 E(B2PLYPD3) =    -0.13271635675296D+03
 E2(B2PLYPD3) =    -0.1805620508D+00 E(B2PLYPD3) =    -0.13271635657574D+03
 SCF Done:  E(RB2PLYPD3) =  -132.535794534     A.U. after    4 cycles
 E2(B2PLYPD3) =    -0.1805619965D+00 E(B2PLYPD3) =    -0.13271635653007D+03
 SCF Done:  E(RB2PLYPD3) =  -132.535794761     A.U. after    4 cycles
 E2(B2PLYPD3) =    -0.1805618996D+00 E(B2PLYPD3) =    -0.13271635666074D+03
 SCF Done:  E(RB2PLYPD3) =  -132.535795601     A.U. after    5 cycles
 E2(B2PLYPD3) =    -0.1805614957D+00 E(B2PLYPD3) =    -0.13271635709627D+03
 SCF Done:  E(RB2PLYPD3) =  -132.535794863     A.U. after    5 cycles
 E2(B2PLYPD3) =    -0.1805622779D+00 E(B2PLYPD3) =    -0.13271635714061D+03
 SCF Done:  E(RB2PLYPD3) =  -132.535794564     A.U. after    4 cycles
 E2(B2PLYPD3) =    -0.1805626491D+00 E(B2PLYPD3) =    -0.13271635721306D+03
 SCF Done:  E(RB2PLYPD3) =  -132.535873874     A.U. after    6 cycles
 E2(B2PLYPD3) =    -0.1804879926D+00 E(B2PLYPD3) =    -0.13271636186661D+03
 SCF Done:  E(RB2PLYPD3) =  -132.535872852     A.U. after    5 cycles
 E2(B2PLYPD3) =    -0.1804890234D+00 E(B2PLYPD3) =    -0.13271636187537D+03
 SCF Done:  E(RB2PLYPD3) =  -132.535873458     A.U. after    4 cycles
 E2(B2PLYPD3) =    -0.1804884665D+00 E(B2PLYPD3) =    -0.13271636192447D+03
 SCF Done:  E(RB2PLYPD3) =  -132.535901098     A.U. after    6 cycles
 E2(B2PLYPD3) =    -0.1804614411D+00 E(B2PLYPD3) =    -0.13271636253935D+03
 Optimization completed.
    -- Stationary point found.
 Normal termination of Gaussian 09 at Thu Aug 20 13:10:12 2020.

 ----------------------------------------------------------------------
 #P Geom=AllCheck Guess=TCheck SCRF=Check GenChk RB2PLYPD3(FC)/def2QZVP
  Freq
 ----------------------------------------------------------------------

 Structure from the checkpoint file:  "cyanomethane_opt.chk"
 ----------------
 cyanomethane_opt
 ----------------
 Charge =  0 Multiplicity = 1

                         Standard orientation:
 ---------------------------------------------------------------------
 Center     Atomic      Atomic             Coordinates (Angstroms)
 Number     Number       Type             X           Y           Z
 ---------------------------------------------------------------------
      1          6           0        1.176909   -0.000001   -0.000009
      2          6           0       -0.278714   -0.000026   -0.000007
      3          7           0       -1.433880    0.000011    0.000003
      4          1           0        1.549311    0.110845    1.014626
      5          1           0        1.549312    0.823331   -0.603246
      6          1           0        1.549367   -0.934095   -0.411312
 ---------------------------------------------------------------------

 SCF Done:  E(RB2PLYPD3) =  -132.535901098     A.U. after    1 cycles
 E2(B2PLYPD3) =    -0.1804614413D+00 E(B2PLYPD3) =    -0.13271636253960D+03
 E2(B2PLYPD3) =    -0.1804614413D+00 E(B2PLYPD3) =    -0.13271636253960D+03

 The electronic state is 1-A.
 Alpha  occ. eigenvalues --  -14.84200 -10.67018 -10.66257  -1.04089  -0.89316
 Alpha  occ. eigenvalues --   -0.59775  -0.53998  -0.53996  -0.44786  -0.39044
 Alpha  occ. eigenvalues --   -0.39043
 Alpha virt. eigenvalues --    0.03781   0.07940   0.07940   0.10181   0.11454
 Alpha virt. eigenvalues --    0.11455   0.15423   0.16337   0.16338   0.20095
 Alpha virt. eigenvalues --    0.20098   0.25369   0.32770   0.34686   0.34687

 Mulliken charges:
               1
     1  C   -0.082495
     2  C   -0.001620
     3  N   -0.206551
     4  H    0.096843
     5  H    0.096917
     6  H    0.096906
 Sum of Mulliken charges =   0.00000

 Dipole moment (field-independent basis, Debye):
    X=              4.1303    Y=              0.0000    Z=              0.0000  Tot=              4.1303
 Quadrupole moment (field-independent basis, Debye-Ang):
   XX=            -20.9942   YY=            -17.7472   ZZ=            -17.7474
   XY=              0.0001   XZ=              0.0001   YZ=              0.0000

  Exact polarizability:  38.999   0.000  22.983   0.000   0.000  22.983
 Approx polarizability:  46.274   0.000  26.233   0.000   0.000  26.232

                      1                      2                      3
                      A                      A                      A
 Frequencies --    372.3325               372.3787               930.6605
 Red. masses --      3.8948                 3.8943                 4.6116
 Frc consts  --      0.3181                 0.3182                 2.3533
 IR Inten    --      0.5441                 0.5443                 1.3013

                      4                      5                      6
                      A                      A                      A
 Frequencies --   1068.8957              1069.0099              1423.8874
 Red. masses --      1.4319                 1.4319                 1.2315
 Frc consts  --      0.9639                 0.9641                 1.4711
 IR Inten    --      1.5883                 1.5886                 1.3544

                      7                      8                      9
                      A                      A                      A
 Frequencies --   1490.5497              1490.6999              2302.2972
 Red. masses --      1.0383                 1.0382                12.5124
 Frc consts  --      1.3591                 1.3593                39.0762
 IR Inten    --     10.2666                10.2682                 4.0388

                     10                     11                     12
                      A                      A                      A
 Frequencies --   3076.2811              3153.9525              3154.0567
 Red. masses --      1.0336                 1.1023                 1.1023
 Frc consts  --      5.7628                 6.4603                 6.4607
 IR Inten    --      2.6890                 0.6391                 0.6390

 - Thermochemistry -
 -------------------
 Temperature   298.150 Kelvin.  Pressure   1.00000 Atm.
 Atom     1 has atomic number  6 and mass  12.00000

 Molecular mass:    41.02655 amu.
 Principal axes and moments of inertia in atomic units:
                           1         2         3
     Eigenvalues --    11.24778 195.18397 195.18449
           X            1.00000   0.00000   0.00000
           Y            0.00000   1.00000  -0.00001
           Z            0.00000   0.00001   1.00000
 This molecule is an asymmetric top.
 Rotational symmetry number  1.
 Rotational temperatures (Kelvin)      7.70053     0.44375     0.44375
 Rotational constants (GHZ):         160.45312     9.24636     9.24634
 Zero-point vibrational energy     119058.3 (Joules/Mol)
                                   28.45563 (Kcal/Mol)
 Warning -- explicit consideration of   2 degrees of freedom as
           vibrations may cause significant error
 Vibrational temperatures:    535.70   535.77  1339.01  1537.90  1538.06
          (Kelvin)           2048.65  2144.57  2144.78  3312.49  4426.08
                             4537.83  4537.98

 Zero-point correction=                           0.045347 (Hartree/Particle)
 Thermal correction to Energy=                    0.048976
 Thermal correction to Enthalpy=                  0.049920
 Thermal correction to Gibbs Free Energy=         0.021318
 Sum of electronic and zero-point Energies=           -132.671016
 Sum of electronic and thermal Energies=              -132.667387
 Sum of electronic and thermal Enthalpies=            -132.666443
 Sum of electronic and thermal Free Energies=         -132.695044

                     E (Thermal)             CV                S
                      KCal/Mol        Cal/Mol-Kelvin    Cal/Mol-Kelvin
 Total                   30.733             10.351             60.197
 Electronic               0.000              0.000              0.000
 Translational            0.889              2.981             37.062
 Rotational               0.889              2.981             20.688
 Vibrational             28.955              4.389              2.446
 Vibration     1          0.744              1.529              1.070
 Vibration     2          0.744              1.529              1.070

 Optimization completed.
    -- Stationary point found.
 Normal termination of Gaussian 09 at Thu Aug 20 13:50:34 2020.
