 Gaussian 09, Revision D.01,
 Gaussian 09:  ES64L-G09RevD.01 24-Apr-2013

 --------------------
 #p B2PLYPD3/Def2QZVP
 --------------------

 ---
 h2o
 ---
 Symbolic Z-matrix:
 Charge =  0 Multiplicity = 1

                         Standard orientation:
 ---------------------------------------------------------------------
 Center     Atomic      Atomic             Coordinates (Angstroms)
 Number     Number       Type             X           Y           Z
 ---------------------------------------------------------------------
      1          8           0        0.000000    0.120097    0.000000
      2          1           0        0.773392   -0.460082    0.000000
      3          1           0       -0.773392   -0.500694    0.000000
 ---------------------------------------------------------------------

 SCF Done:  E(RB2PLYPD3) =  -76.3334089478     A.U. after   10 cycles
 E2(B2PLYPD3) =    -0.9068425323D-01 E(B2PLYPD3) =    -0.76424093201038D+02

 The electronic state is 1-A'.
 Alpha  occ. eigenvalues --  -19.73463  -1.14760  -0.60300  -0.47240  -0.39803
 Alpha virt. eigenvalues --    0.04289   0.10012   0.27646   0.30460   0.30493
 Alpha virt. eigenvalues --    0.35075   0.43431   0.50014   0.56037   0.61932
 Alpha virt. eigenvalues --    0.66143   0.80638   0.93172   0.96326   1.02296

 Mulliken charges:
               1
     1  O   -0.457275
     2  H    0.223728
     3  H    0.233547
 Sum of Mulliken charges =   0.00000

 Dipole moment (field-independent basis, Debye):
    X=              0.0128    Y=             -1.9795    Z=              0.0000  Tot=              1.9795
 Quadrupole moment (field-independent basis, Debye-Ang):
   XX=             -4.3062   YY=             -6.3269   ZZ=             -7.6393
   XY=              0.0672   XZ=              0.0000   YZ=              0.0000

 1\1\GINC-NODE40\SP\RB2PLYPD3-FC\def2QZVP\H2O1\BOITTIER\26-Aug-2020\0\\
 #p B2PLYPD3/Def2QZVP\\h2o\\0,1\O,0,-5.326605,-0.767097,0.908272\H,0,-4
 .368927,-0.723327,1.033492\H,0,-5.609308,0.180924,0.838617\\Version=ES
 64L-G09RevD.01\State=1-A'\HF=-76.3334089\MP2=-76.4240932\RMSD=4.213e-0
 9\PG=CS [SG(H2O1)]\\@

 SIC AS THE CAWSE OF EWERY THING IS, SIC WILBE THE EFFECT.

 Normal termination of Gaussian 09 at Wed Aug 26 09:23:02 2020.
