 Gaussian 09, Revision D.01,
 Gaussian 09:  ES64L-G09RevD.01 24-Apr-2013

 --------------------
 #p B2PLYPD3/Def2QZVP
 --------------------

 ---
 h2o
 ---
 Symbolic Z-matrix:
 Charge =  0 Multiplicity = 1

                         Standard orientation:
 ---------------------------------------------------------------------
 Center     Atomic      Atomic             Coordinates (Angstroms)
 Number     Number       Type             X           Y           Z
 ---------------------------------------------------------------------
      1          8           0        0.000000    0.113061    0.000000
      2          1           0        0.776627   -0.447483    0.000000
      3          1           0       -0.776627   -0.457006    0.000000
 ---------------------------------------------------------------------

 SCF Done:  E(RB2PLYPD3) =  -76.3348987857     A.U. after   10 cycles
 E2(B2PLYPD3) =    -0.8996736452D-01 E(B2PLYPD3) =    -0.76424866150254D+02

 The electronic state is 1-A'.
 Alpha  occ. eigenvalues --  -19.73024  -1.15361  -0.61777  -0.46825  -0.39869
 Alpha virt. eigenvalues --    0.04572   0.10134   0.27472   0.30427   0.31276
 Alpha virt. eigenvalues --    0.35268   0.43904   0.50897   0.55753   0.63149
 Alpha virt. eigenvalues --    0.65612   0.80858   0.93496   0.96068   1.04441

 Mulliken charges:
               1
     1  O   -0.451917
     2  H    0.224702
     3  H    0.227215
 Sum of Mulliken charges =   0.00000

 Dipole moment (field-independent basis, Debye):
    X=              0.0026    Y=             -1.9110    Z=              0.0000  Tot=              1.9110
 Quadrupole moment (field-independent basis, Debye-Ang):
   XX=             -4.1935   YY=             -6.4226   ZZ=             -7.6041
   XY=              0.0164   XZ=              0.0000   YZ=              0.0000

 1\1\GINC-NODE28\SP\RB2PLYPD3-FC\def2QZVP\H2O1\BOITTIER\26-Aug-2020\0\\
 #p B2PLYPD3/Def2QZVP\\h2o\\0,1\O,0,-5.326605,-0.761833,0.918908\H,0,-4
 .368927,-0.776237,0.916904\H,0,-5.609308,0.149609,0.786702\\Version=ES
 64L-G09RevD.01\State=1-A'\HF=-76.3348988\MP2=-76.4248662\RMSD=3.809e-0
 9\PG=CS [SG(H2O1)]\\@

 CHINESE FORTUNE COOKIE OF JAN 1 1967 SAY....

 Normal termination of Gaussian 09 at Wed Aug 26 11:27:00 2020.
