 Gaussian 09, Revision D.01,
 Gaussian 09:  ES64L-G09RevD.01 24-Apr-2013

 --------------------
 #p B2PLYPD3/Def2QZVP
 --------------------

 ---
 h2o
 ---
 Symbolic Z-matrix:
 Charge =  0 Multiplicity = 1

                         Standard orientation:
 ---------------------------------------------------------------------
 Center     Atomic      Atomic             Coordinates (Angstroms)
 Number     Number       Type             X           Y           Z
 ---------------------------------------------------------------------
      1          8           0        0.000000    0.120316    0.000000
      2          1           0        0.739383   -0.495758    0.000000
      3          1           0       -0.739383   -0.466769    0.000000
 ---------------------------------------------------------------------

 SCF Done:  E(RB2PLYPD3) =  -76.3347276490     A.U. after   10 cycles
 E2(B2PLYPD3) =    -0.8990849846D-01 E(B2PLYPD3) =    -0.76424636147470D+02

 The electronic state is 1-A'.
 Alpha  occ. eigenvalues --  -19.73158  -1.16162  -0.60973  -0.48091  -0.40084
 Alpha virt. eigenvalues --    0.04532   0.10313   0.27524   0.30389   0.30816
 Alpha virt. eigenvalues --    0.36610   0.44154   0.49819   0.56766   0.61387
 Alpha virt. eigenvalues --    0.65549   0.81407   0.94304   0.95780   1.03673

 Mulliken charges:
               1
     1  O   -0.432531
     2  H    0.220430
     3  H    0.212101
 Sum of Mulliken charges =   0.00000

 Dipole moment (field-independent basis, Debye):
    X=             -0.0099    Y=             -2.0016    Z=              0.0000  Tot=              2.0016
 Quadrupole moment (field-independent basis, Debye-Ang):
   XX=             -4.4736   YY=             -6.2367   ZZ=             -7.5758
   XY=             -0.0454   XZ=              0.0000   YZ=              0.0000

 1\1\GINC-NODE03\SP\RB2PLYPD3-FC\def2QZVP\H2O1\BOITTIER\26-Aug-2020\0\\
 #p B2PLYPD3/Def2QZVP\\h2o\\0,1\O,0,-5.326605,-0.765801,0.924326\H,0,-4
 .368927,-0.674327,0.897509\H,0,-5.609308,0.11118,0.718563\\Version=ES6
 4L-G09RevD.01\State=1-A'\HF=-76.3347276\MP2=-76.4246361\RMSD=4.605e-09
 \PG=CS [SG(H2O1)]\\@

 THE WORLD OF CHEMICAL REACTIONS IS LIKE A STAGE,

 Normal termination of Gaussian 09 at Wed Aug 26 11:58:00 2020.
