 Gaussian 09, Revision D.01,
 Gaussian 09:  ES64L-G09RevD.01 24-Apr-2013

 --------------------
 #p B2PLYPD3/Def2QZVP
 --------------------

 ---
 h2o
 ---
 Symbolic Z-matrix:
 Charge =  0 Multiplicity = 1

                         Standard orientation:
 ---------------------------------------------------------------------
 Center     Atomic      Atomic             Coordinates (Angstroms)
 Number     Number       Type             X           Y           Z
 ---------------------------------------------------------------------
      1          8           0        0.000000    0.119553    0.000000
      2          1           0        0.759133   -0.467734    0.000000
      3          1           0       -0.759133   -0.488691    0.000000
 ---------------------------------------------------------------------

 SCF Done:  E(RB2PLYPD3) =  -76.3346428688     A.U. after   10 cycles
 E2(B2PLYPD3) =    -0.9027668697D-01 E(B2PLYPD3) =    -0.76424919555774D+02

 The electronic state is 1-A'.
 Alpha  occ. eigenvalues --  -19.73295  -1.15404  -0.60734  -0.47567  -0.39929
 Alpha virt. eigenvalues --    0.04430   0.10155   0.27582   0.30427   0.30723
 Alpha virt. eigenvalues --    0.35752   0.43772   0.49993   0.56328   0.61805
 Alpha virt. eigenvalues --    0.65843   0.81029   0.93714   0.96069   1.03075

 Mulliken charges:
               1
     1  O   -0.446450
     2  H    0.220476
     3  H    0.225975
 Sum of Mulliken charges =   0.00000

 Dipole moment (field-independent basis, Debye):
    X=              0.0068    Y=             -1.9830    Z=              0.0000  Tot=              1.9830
 Quadrupole moment (field-independent basis, Debye-Ang):
   XX=             -4.3685   YY=             -6.2977   ZZ=             -7.6086
   XY=              0.0340   XZ=              0.0000   YZ=              0.0000

 1\1\GINC-NODE19\SP\RB2PLYPD3-FC\def2QZVP\H2O1\BOITTIER\26-Aug-2020\0\\
 #p B2PLYPD3/Def2QZVP\\h2o\\0,1\O,0,-5.326605,-0.76624,0.919347\H,0,-4.
 368927,-0.706143,0.940102\H,0,-5.609308,0.150035,0.755752\\Version=ES6
 4L-G09RevD.01\State=1-A'\HF=-76.3346429\MP2=-76.4249196\RMSD=4.177e-09
 \PG=CS [SG(H2O1)]\\@

 WHEN YOU'VE SEEN ONE NUCLEAR WAR YOU'VE SEEN THEM ALL.

 Normal termination of Gaussian 09 at Wed Aug 26 11:41:39 2020.
