 Gaussian 09, Revision D.01,
 Gaussian 09:  ES64L-G09RevD.01 24-Apr-2013

 --------------------
 #p B2PLYPD3/Def2QZVP
 --------------------

 ---
 h2o
 ---
 Symbolic Z-matrix:
 Charge =  0 Multiplicity = 1

                         Standard orientation:
 ---------------------------------------------------------------------
 Center     Atomic      Atomic             Coordinates (Angstroms)
 Number     Number       Type             X           Y           Z
 ---------------------------------------------------------------------
      1          8           0        0.000000    0.116121    0.000000
      2          1           0        0.752537   -0.478838    0.000000
      3          1           0       -0.752537   -0.450132    0.000000
 ---------------------------------------------------------------------

 SCF Done:  E(RB2PLYPD3) =  -76.3351156388     A.U. after   10 cycles
 E2(B2PLYPD3) =    -0.8972607143D-01 E(B2PLYPD3) =    -0.76424841710198D+02

 The electronic state is 1-A'.
 Alpha  occ. eigenvalues --  -19.72996  -1.16072  -0.61664  -0.47561  -0.40036
 Alpha virt. eigenvalues --    0.04624   0.10284   0.27458   0.30391   0.31138
 Alpha virt. eigenvalues --    0.36264   0.44217   0.50342   0.56349   0.62269
 Alpha virt. eigenvalues --    0.65423   0.81355   0.94043   0.95769   1.04425

 Mulliken charges:
               1
     1  O   -0.436432
     2  H    0.222324
     3  H    0.214108
 Sum of Mulliken charges =   0.00000

 Dipole moment (field-independent basis, Debye):
    X=             -0.0089    Y=             -1.9546    Z=              0.0000  Tot=              1.9546
 Quadrupole moment (field-independent basis, Debye-Ang):
   XX=             -4.3529   YY=             -6.3220   ZZ=             -7.5748
   XY=             -0.0470   XZ=              0.0000   YZ=              0.0000

 1\1\GINC-NODE19\SP\RB2PLYPD3-FC\def2QZVP\H2O1\BOITTIER\26-Aug-2020\0\\
 #p B2PLYPD3/Def2QZVP\\h2o\\0,1\O,0,-5.326605,-0.762971,0.923979\H,0,-4
 .368927,-0.724546,0.883188\H,0,-5.609308,0.116129,0.739002\\Version=ES
 64L-G09RevD.01\State=1-A'\HF=-76.3351156\MP2=-76.4248417\RMSD=4.328e-0
 9\PG=CS [SG(H2O1)]\\@

 LIFE CAN ONLY BE UNDERSTOOD BACKWARD, BUT MUST

 Normal termination of Gaussian 09 at Wed Aug 26 10:59:34 2020.
