 Gaussian 09, Revision D.01,
 Gaussian 09:  ES64L-G09RevD.01 24-Apr-2013

 --------------------
 #p B2PLYPD3/Def2QZVP
 --------------------

 ---
 h2o
 ---
 Symbolic Z-matrix:
 Charge =  0 Multiplicity = 1

                         Standard orientation:
 ---------------------------------------------------------------------
 Center     Atomic      Atomic             Coordinates (Angstroms)
 Number     Number       Type             X           Y           Z
 ---------------------------------------------------------------------
      1          8           0        0.000000    0.115866    0.000000
      2          1           0        0.747697   -0.485048    0.000000
      3          1           0       -0.747697   -0.441877    0.000000
 ---------------------------------------------------------------------

 SCF Done:  E(RB2PLYPD3) =  -76.3348478955     A.U. after   10 cycles
 E2(B2PLYPD3) =    -0.8958591311D-01 E(B2PLYPD3) =    -0.76424433808558D+02

 The electronic state is 1-A'.
 Alpha  occ. eigenvalues --  -19.72929  -1.16317  -0.61834  -0.47662  -0.40081
 Alpha virt. eigenvalues --    0.04664   0.10330   0.27429   0.30379   0.31184
 Alpha virt. eigenvalues --    0.36506   0.44363   0.50343   0.56433   0.62242
 Alpha virt. eigenvalues --    0.65309   0.81473   0.94157   0.95678   1.04642

 Mulliken charges:
               1
     1  O   -0.431865
     2  H    0.222295
     3  H    0.209570
 Sum of Mulliken charges =   0.00000

 Dipole moment (field-independent basis, Debye):
    X=             -0.0135    Y=             -1.9548    Z=              0.0000  Tot=              1.9549
 Quadrupole moment (field-independent basis, Debye-Ang):
   XX=             -4.3725   YY=             -6.3115   ZZ=             -7.5639
   XY=             -0.0702   XZ=              0.0000   YZ=              0.0000

 1\1\GINC-NODE11\SP\RB2PLYPD3-FC\def2QZVP\H2O1\BOITTIER\26-Aug-2020\0\\
 #p B2PLYPD3/Def2QZVP\\h2o\\0,1\O,0,-5.326605,-0.763168,0.922318\H,0,-4
 .368927,-0.714346,0.897481\H,0,-5.609308,0.109079,0.750877\\Version=ES
 64L-G09RevD.01\State=1-A'\HF=-76.3348479\MP2=-76.4244338\RMSD=4.627e-0
 9\PG=CS [SG(H2O1)]\\@

 IF YOU GIVE EVERYONE A PIECE OF YOUR MIND,

 Normal termination of Gaussian 09 at Wed Aug 26 09:45:09 2020.
