 Gaussian 09, Revision D.01,
 Gaussian 09:  ES64L-G09RevD.01 24-Apr-2013

 --------------------
 #p B2PLYPD3/Def2QZVP
 --------------------

 ---
 h2o
 ---
 Symbolic Z-matrix:
 Charge =  0 Multiplicity = 1

                         Standard orientation:
 ---------------------------------------------------------------------
 Center     Atomic      Atomic             Coordinates (Angstroms)
 Number     Number       Type             X           Y           Z
 ---------------------------------------------------------------------
      1          8           0        0.000000    0.116076    0.000000
      2          1           0        0.747290   -0.485664    0.000000
      3          1           0       -0.747290   -0.442948    0.000000
 ---------------------------------------------------------------------

 SCF Done:  E(RB2PLYPD3) =  -76.3348514957     A.U. after   10 cycles
 E2(B2PLYPD3) =    -0.8960011942D-01 E(B2PLYPD3) =    -0.76424451615123D+02

 The electronic state is 1-A'.
 Alpha  occ. eigenvalues --  -19.72939  -1.16311  -0.61794  -0.47683  -0.40081
 Alpha virt. eigenvalues --    0.04658   0.10330   0.27433   0.30379   0.31166
 Alpha virt. eigenvalues --    0.36514   0.44353   0.50316   0.56450   0.62201
 Alpha virt. eigenvalues --    0.65320   0.81471   0.94163   0.95682   1.04597

 Mulliken charges:
               1
     1  O   -0.431879
     2  H    0.222229
     3  H    0.209651
 Sum of Mulliken charges =   0.00000

 Dipole moment (field-independent basis, Debye):
    X=             -0.0134    Y=             -1.9571    Z=              0.0000  Tot=              1.9571
 Quadrupole moment (field-independent basis, Debye-Ang):
   XX=             -4.3773   YY=             -6.3080   ZZ=             -7.5644
   XY=             -0.0693   XZ=              0.0000   YZ=              0.0000

 1\1\GINC-NODE06\SP\RB2PLYPD3-FC\def2QZVP\H2O1\BOITTIER\26-Aug-2020\0\\
 #p B2PLYPD3/Def2QZVP\\h2o\\0,1\O,0,-5.326605,-0.763181,0.922935\H,0,-4
 .368927,-0.713477,0.892654\H,0,-5.609308,0.108418,0.74589\\Version=ES6
 4L-G09RevD.01\State=1-A'\HF=-76.3348515\MP2=-76.4244516\RMSD=4.625e-09
 \PG=CS [SG(H2O1)]\\@

 ... A MOLECULAR SYSTEM ... (PASSES) ... FROM ONE STATE OF EQUILIBRIUM

 Normal termination of Gaussian 09 at Wed Aug 26 09:41:35 2020.
