 Gaussian 09, Revision D.01,
 Gaussian 09:  ES64L-G09RevD.01 24-Apr-2013

 --------------------
 #p B2PLYPD3/Def2QZVP
 --------------------

 ---
 h2o
 ---
 Symbolic Z-matrix:
 Charge =  0 Multiplicity = 1

                         Standard orientation:
 ---------------------------------------------------------------------
 Center     Atomic      Atomic             Coordinates (Angstroms)
 Number     Number       Type             X           Y           Z
 ---------------------------------------------------------------------
      1          8           0        0.000000    0.125473    0.000000
      2          1           0        0.753630   -0.475499    0.000000
      3          1           0       -0.753630   -0.528285    0.000000
 ---------------------------------------------------------------------

 SCF Done:  E(RB2PLYPD3) =  -76.3326074473     A.U. after   10 cycles
 E2(B2PLYPD3) =    -0.9087483691D-01 E(B2PLYPD3) =    -0.76423482284198D+02

 The electronic state is 1-A'.
 Alpha  occ. eigenvalues --  -19.73645  -1.14976  -0.59525  -0.47957  -0.39891
 Alpha virt. eigenvalues --    0.04190   0.10061   0.27732   0.30063   0.30447
 Alpha virt. eigenvalues --    0.35585   0.43428   0.49356   0.56601   0.60811
 Alpha virt. eigenvalues --    0.66244   0.80820   0.93550   0.96340   1.01511

 Mulliken charges:
               1
     1  O   -0.449372
     2  H    0.218218
     3  H    0.231154
 Sum of Mulliken charges =   0.00000

 Dipole moment (field-independent basis, Debye):
    X=              0.0188    Y=             -2.0400    Z=              0.0000  Tot=              2.0401
 Quadrupole moment (field-independent basis, Debye-Ang):
   XX=             -4.4783   YY=             -6.2079   ZZ=             -7.6354
   XY=              0.0822   XZ=              0.0000   YZ=              0.0000

 1\1\GINC-NODE24\SP\RB2PLYPD3-FC\def2QZVP\H2O1\BOITTIER\26-Aug-2020\0\\
 #p B2PLYPD3/Def2QZVP\\h2o\\0,1\O,0,-5.326605,-0.767584,0.930538\H,0,-4
 .368927,-0.684362,0.859461\H,0,-5.609308,0.149744,0.658609\\Version=ES
 64L-G09RevD.01\State=1-A'\HF=-76.3326074\MP2=-76.4234823\RMSD=4.653e-0
 9\PG=CS [SG(H2O1)]\\@

 TO DETECT ERRORS, THE PROGRAMMER MUST HAVE A CONNIVING MIND,

 Normal termination of Gaussian 09 at Wed Aug 26 08:35:54 2020.
