 Gaussian 09, Revision D.01,
 Gaussian 09:  ES64L-G09RevD.01 24-Apr-2013

 --------------------
 #p B2PLYPD3/Def2QZVP
 --------------------

 ---
 h2o
 ---
 Symbolic Z-matrix:
 Charge =  0 Multiplicity = 1

                         Standard orientation:
 ---------------------------------------------------------------------
 Center     Atomic      Atomic             Coordinates (Angstroms)
 Number     Number       Type             X           Y           Z
 ---------------------------------------------------------------------
      1          8           0        0.000000    0.115495    0.000000
      2          1           0        0.751780   -0.479362    0.000000
      3          1           0       -0.751780   -0.444597    0.000000
 ---------------------------------------------------------------------

 SCF Done:  E(RB2PLYPD3) =  -76.3350399857     A.U. after   10 cycles
 E2(B2PLYPD3) =    -0.8963866550D-01 E(B2PLYPD3) =    -0.76424678651208D+02

 The electronic state is 1-A'.
 Alpha  occ. eigenvalues --  -19.72945  -1.16177  -0.61827  -0.47546  -0.40051
 Alpha virt. eigenvalues --    0.04654   0.10303   0.27437   0.30386   0.31201
 Alpha virt. eigenvalues --    0.36334   0.44292   0.50411   0.56341   0.62364
 Alpha virt. eigenvalues --    0.65354   0.81402   0.94075   0.95725   1.04630

 Mulliken charges:
               1
     1  O   -0.434770
     2  H    0.222427
     3  H    0.212343
 Sum of Mulliken charges =   0.00000

 Dipole moment (field-independent basis, Debye):
    X=             -0.0107    Y=             -1.9490    Z=              0.0000  Tot=              1.9490
 Quadrupole moment (field-independent basis, Debye-Ang):
   XX=             -4.3479   YY=             -6.3272   ZZ=             -7.5695
   XY=             -0.0570   XZ=              0.0000   YZ=              0.0000

 1\1\GINC-NODE24\SP\RB2PLYPD3-FC\def2QZVP\H2O1\BOITTIER\26-Aug-2020\0\\
 #p B2PLYPD3/Def2QZVP\\h2o\\0,1\O,0,-5.326605,-0.763301,0.920283\H,0,-4
 .368927,-0.72031,0.91452\H,0,-5.609308,0.117175,0.766278\\Version=ES64
 L-G09RevD.01\State=1-A'\HF=-76.33504\MP2=-76.4246787\RMSD=4.423e-09\PG
 =CS [SG(H2O1)]\\@

 THE ENLIGHTENED ONE, BECAUSE HE SAW MANKIND DROWNING

 Normal termination of Gaussian 09 at Wed Aug 26 11:02:37 2020.
