 Gaussian 09, Revision D.01,
 Gaussian 09:  ES64L-G09RevD.01 24-Apr-2013

 --------------------
 #p B2PLYPD3/Def2QZVP
 --------------------

 ---
 h2o
 ---
 Symbolic Z-matrix:
 Charge =  0 Multiplicity = 1

                         Standard orientation:
 ---------------------------------------------------------------------
 Center     Atomic      Atomic             Coordinates (Angstroms)
 Number     Number       Type             X           Y           Z
 ---------------------------------------------------------------------
      1          8           0        0.000000    0.120600    0.000000
      2          1           0        0.759430   -0.467114    0.000000
      3          1           0       -0.759430   -0.497690    0.000000
 ---------------------------------------------------------------------

 SCF Done:  E(RB2PLYPD3) =  -76.3342875938     A.U. after   10 cycles
 E2(B2PLYPD3) =    -0.9040875655D-01 E(B2PLYPD3) =    -0.76424696350350D+02

 The electronic state is 1-A'.
 Alpha  occ. eigenvalues --  -19.73369  -1.15277  -0.60492  -0.47607  -0.39912
 Alpha virt. eigenvalues --    0.04379   0.10128   0.27612   0.30433   0.30594
 Alpha virt. eigenvalues --    0.35673   0.43684   0.49880   0.56351   0.61644
 Alpha virt. eigenvalues --    0.65937   0.80965   0.93641   0.96135   1.02721

 Mulliken charges:
               1
     1  O   -0.447909
     2  H    0.220015
     3  H    0.227894
 Sum of Mulliken charges =   0.00000

 Dipole moment (field-independent basis, Debye):
    X=              0.0100    Y=             -1.9925    Z=              0.0000  Tot=              1.9925
 Quadrupole moment (field-independent basis, Debye-Ang):
   XX=             -4.3816   YY=             -6.2852   ZZ=             -7.6157
   XY=              0.0494   XZ=              0.0000   YZ=              0.0000

 1\1\GINC-NODE24\SP\RB2PLYPD3-FC\def2QZVP\H2O1\BOITTIER\26-Aug-2020\0\\
 #p B2PLYPD3/Def2QZVP\\h2o\\0,1\O,0,-5.326605,-0.765424,0.926586\H,0,-4
 .368927,-0.714397,0.877686\H,0,-5.609308,0.145219,0.703371\\Version=ES
 64L-G09RevD.01\State=1-A'\HF=-76.3342876\MP2=-76.4246964\RMSD=4.273e-0
 9\PG=CS [SG(H2O1)]\\@

 IT IS BY EATING THE LIGHT OF A STAR THAT WE EXIST,

 Normal termination of Gaussian 09 at Wed Aug 26 12:14:19 2020.
