 Gaussian 09, Revision D.01,
 Gaussian 09:  ES64L-G09RevD.01 24-Apr-2013

 --------------------
 #p B2PLYPD3/Def2QZVP
 --------------------

 ---
 h2o
 ---
 Symbolic Z-matrix:
 Charge =  0 Multiplicity = 1

                         Standard orientation:
 ---------------------------------------------------------------------
 Center     Atomic      Atomic             Coordinates (Angstroms)
 Number     Number       Type             X           Y           Z
 ---------------------------------------------------------------------
      1          8           0        0.000000    0.122759    0.000000
      2          1           0        0.770643   -0.448333    0.000000
      3          1           0       -0.770643   -0.533736    0.000000
 ---------------------------------------------------------------------

 SCF Done:  E(RB2PLYPD3) =  -76.3317133511     A.U. after   10 cycles
 E2(B2PLYPD3) =    -0.9094842846D-01 E(B2PLYPD3) =    -0.76422661779584D+02

 The electronic state is 1-A'.
 Alpha  occ. eigenvalues --  -19.73608  -1.14608  -0.59783  -0.47399  -0.39790
 Alpha virt. eigenvalues --    0.04159   0.09973   0.27704   0.30075   0.30467
 Alpha virt. eigenvalues --    0.35083   0.43331   0.49706   0.56130   0.61504
 Alpha virt. eigenvalues --    0.66293   0.80551   0.92898   0.96458   1.01515

 Mulliken charges:
               1
     1  O   -0.457312
     2  H    0.218621
     3  H    0.238691
 Sum of Mulliken charges =   0.00000

 Dipole moment (field-independent basis, Debye):
    X=              0.0281    Y=             -2.0049    Z=              0.0000  Tot=              2.0051
 Quadrupole moment (field-independent basis, Debye-Ang):
   XX=             -4.3568   YY=             -6.2826   ZZ=             -7.6508
   XY=              0.1387   XZ=              0.0000   YZ=              0.0000

 1\1\GINC-NODE39\SP\RB2PLYPD3-FC\def2QZVP\H2O1\BOITTIER\26-Aug-2020\0\\
 #p B2PLYPD3/Def2QZVP\\h2o\\0,1\O,0,-5.326605,-0.767421,0.924639\H,0,-4
 .368927,-0.717154,0.905611\H,0,-5.609308,0.179934,0.706756\\Version=ES
 64L-G09RevD.01\State=1-A'\HF=-76.3317134\MP2=-76.4226618\RMSD=4.994e-0
 9\PG=CS [SG(H2O1)]\\@

 BRING ME INTO THE COMPANY OF THOSE WHO SEEK TRUTH,

 Normal termination of Gaussian 09 at Wed Aug 26 09:06:35 2020.
