 Gaussian 09, Revision D.01,
 Gaussian 09:  ES64L-G09RevD.01 24-Apr-2013

 --------------------
 #p B2PLYPD3/Def2QZVP
 --------------------

 ---
 h2o
 ---
 Symbolic Z-matrix:
 Charge =  0 Multiplicity = 1

                         Standard orientation:
 ---------------------------------------------------------------------
 Center     Atomic      Atomic             Coordinates (Angstroms)
 Number     Number       Type             X           Y           Z
 ---------------------------------------------------------------------
      1          8           0        0.000000    0.124552    0.000000
      2          1           0        0.759137   -0.466167    0.000000
      3          1           0       -0.759137   -0.530245    0.000000
 ---------------------------------------------------------------------

 SCF Done:  E(RB2PLYPD3) =  -76.3324037489     A.U. after   10 cycles
 E2(B2PLYPD3) =    -0.9089005836D-01 E(B2PLYPD3) =    -0.76423293807306D+02

 The electronic state is 1-A'.
 Alpha  occ. eigenvalues --  -19.73630  -1.14862  -0.59623  -0.47774  -0.39859
 Alpha virt. eigenvalues --    0.04184   0.10034   0.27722   0.30076   0.30453
 Alpha virt. eigenvalues --    0.35428   0.43401   0.49465   0.56447   0.61041
 Alpha virt. eigenvalues --    0.66257   0.80746   0.93338   0.96375   1.01528

 Mulliken charges:
               1
     1  O   -0.451835
     2  H    0.218165
     3  H    0.233671
 Sum of Mulliken charges =   0.00000

 Dipole moment (field-independent basis, Debye):
    X=              0.0222    Y=             -2.0283    Z=              0.0000  Tot=              2.0284
 Quadrupole moment (field-independent basis, Debye-Ang):
   XX=             -4.4385   YY=             -6.2327   ZZ=             -7.6400
   XY=              0.1012   XZ=              0.0000   YZ=              0.0000

 1\1\GINC-NODE08\SP\RB2PLYPD3-FC\def2QZVP\H2O1\BOITTIER\26-Aug-2020\0\\
 #p B2PLYPD3/Def2QZVP\\h2o\\0,1\O,0,-5.326605,-0.767621,0.928446\H,0,-4
 .368927,-0.694269,0.876392\H,0,-5.609308,0.160245,0.675084\\Version=ES
 64L-G09RevD.01\State=1-A'\HF=-76.3324037\MP2=-76.4232938\RMSD=4.735e-0
 9\PG=CS [SG(H2O1)]\\@

 NOTHING MAKES A PERSON MORE PRODUCTIVE THAN THE LAST MINUTE.

 Normal termination of Gaussian 09 at Wed Aug 26 09:05:39 2020.
