 Gaussian 09, Revision D.01,
 Gaussian 09:  ES64L-G09RevD.01 24-Apr-2013

 --------------------
 #p B2PLYPD3/Def2QZVP
 --------------------

 ---
 h2o
 ---
 Symbolic Z-matrix:
 Charge =  0 Multiplicity = 1

                         Standard orientation:
 ---------------------------------------------------------------------
 Center     Atomic      Atomic             Coordinates (Angstroms)
 Number     Number       Type             X           Y           Z
 ---------------------------------------------------------------------
      1          8           0        0.000000    0.116408    0.000000
      2          1           0        0.772702   -0.449736    0.000000
      3          1           0       -0.772702   -0.481530    0.000000
 ---------------------------------------------------------------------

 SCF Done:  E(RB2PLYPD3) =  -76.3345105375     A.U. after   10 cycles
 E2(B2PLYPD3) =    -0.9024154728D-01 E(B2PLYPD3) =    -0.76424752084738D+02

 The electronic state is 1-A'.
 Alpha  occ. eigenvalues --  -19.73209  -1.15178  -0.61129  -0.47083  -0.39858
 Alpha virt. eigenvalues --    0.04458   0.10102   0.27544   0.30438   0.30927
 Alpha virt. eigenvalues --    0.35305   0.43732   0.50447   0.55940   0.62526
 Alpha virt. eigenvalues --    0.65816   0.80829   0.93411   0.96146   1.03453

 Mulliken charges:
               1
     1  O   -0.452749
     2  H    0.222295
     3  H    0.230454
 Sum of Mulliken charges =   0.00000

 Dipole moment (field-independent basis, Debye):
    X=              0.0094    Y=             -1.9454    Z=              0.0000  Tot=              1.9454
 Quadrupole moment (field-independent basis, Debye-Ang):
   XX=             -4.2585   YY=             -6.3711   ZZ=             -7.6160
   XY=              0.0536   XZ=              0.0000   YZ=              0.0000

 1\1\GINC-NODE33\SP\RB2PLYPD3-FC\def2QZVP\H2O1\BOITTIER\26-Aug-2020\0\\
 #p B2PLYPD3/Def2QZVP\\h2o\\0,1\O,0,-5.326605,-0.764186,0.918693\H,0,-4
 .368927,-0.748757,0.932962\H,0,-5.609308,0.159773,0.773854\\Version=ES
 64L-G09RevD.01\State=1-A'\HF=-76.3345105\MP2=-76.4247521\RMSD=4.088e-0
 9\PG=CS [SG(H2O1)]\\@

 IBM COMPATIBILITY IS LIKE PREGNANCY. YOU ARE OR

 Normal termination of Gaussian 09 at Wed Aug 26 10:31:36 2020.
