 Gaussian 09, Revision D.01,
 Gaussian 09:  ES64L-G09RevD.01 24-Apr-2013

 --------------------
 #p B2PLYPD3/Def2QZVP
 --------------------

 ---
 h2o
 ---
 Symbolic Z-matrix:
 Charge =  0 Multiplicity = 1

                         Standard orientation:
 ---------------------------------------------------------------------
 Center     Atomic      Atomic             Coordinates (Angstroms)
 Number     Number       Type             X           Y           Z
 ---------------------------------------------------------------------
      1          8           0        0.000000    0.118023    0.000000
      2          1           0        0.753020   -0.476414    0.000000
      3          1           0       -0.753020   -0.467768    0.000000
 ---------------------------------------------------------------------

 SCF Done:  E(RB2PLYPD3) =  -76.3351267399     A.U. after   10 cycles
 E2(B2PLYPD3) =    -0.8995317725D-01 E(B2PLYPD3) =    -0.76425079917189D+02

 The electronic state is 1-A'.
 Alpha  occ. eigenvalues --  -19.73132  -1.15834  -0.61215  -0.47646  -0.40003
 Alpha virt. eigenvalues --    0.04543   0.10242   0.27515   0.30404   0.30951
 Alpha virt. eigenvalues --    0.36130   0.44035   0.50129   0.56409   0.61959
 Alpha virt. eigenvalues --    0.65600   0.81251   0.93983   0.95875   1.03842

 Mulliken charges:
               1
     1  O   -0.439774
     2  H    0.221086
     3  H    0.218688
 Sum of Mulliken charges =   0.00000

 Dipole moment (field-independent basis, Debye):
    X=             -0.0028    Y=             -1.9723    Z=              0.0000  Tot=              1.9723
 Quadrupole moment (field-independent basis, Debye-Ang):
   XX=             -4.3768   YY=             -6.3008   ZZ=             -7.5874
   XY=             -0.0140   XZ=              0.0000   YZ=              0.0000

 1\1\GINC-NODE37\SP\RB2PLYPD3-FC\def2QZVP\H2O1\BOITTIER\26-Aug-2020\0\\
 #p B2PLYPD3/Def2QZVP\\h2o\\0,1\O,0,-5.326605,-0.764767,0.921834\H,0,-4
 .368927,-0.708787,0.911222\H,0,-5.609308,0.129096,0.74498\\Version=ES6
 4L-G09RevD.01\State=1-A'\HF=-76.3351267\MP2=-76.4250799\RMSD=4.182e-09
 \PG=CS [SG(H2O1)]\\@

 Make no judgements where you have no compassion.

 Normal termination of Gaussian 09 at Wed Aug 26 09:35:49 2020.
