 Gaussian 09, Revision D.01,
 Gaussian 09:  ES64L-G09RevD.01 24-Apr-2013

 --------------------
 #p B2PLYPD3/Def2QZVP
 --------------------

 ---
 h2o
 ---
 Symbolic Z-matrix:
 Charge =  0 Multiplicity = 1

                         Standard orientation:
 ---------------------------------------------------------------------
 Center     Atomic      Atomic             Coordinates (Angstroms)
 Number     Number       Type             X           Y           Z
 ---------------------------------------------------------------------
      1          8           0        0.000000    0.119067    0.000000
      2          1           0        0.749240   -0.481527    0.000000
      3          1           0       -0.749240   -0.471007    0.000000
 ---------------------------------------------------------------------

 SCF Done:  E(RB2PLYPD3) =  -76.3350340560     A.U. after   10 cycles
 E2(B2PLYPD3) =    -0.8998652476D-01 E(B2PLYPD3) =    -0.76425020580742D+02

 The electronic state is 1-A'.
 Alpha  occ. eigenvalues --  -19.73168  -1.15878  -0.61057  -0.47790  -0.40020
 Alpha virt. eigenvalues --    0.04524   0.10253   0.27529   0.30402   0.30874
 Alpha virt. eigenvalues --    0.36241   0.44031   0.49994   0.56523   0.61732
 Alpha virt. eigenvalues --    0.65622   0.81279   0.94062   0.95869   1.03670

 Mulliken charges:
               1
     1  O   -0.438355
     2  H    0.220642
     3  H    0.217714
 Sum of Mulliken charges =   0.00000

 Dipole moment (field-independent basis, Debye):
    X=             -0.0034    Y=             -1.9843    Z=              0.0000  Tot=              1.9843
 Quadrupole moment (field-independent basis, Debye-Ang):
   XX=             -4.4094   YY=             -6.2782   ZZ=             -7.5866
   XY=             -0.0168   XZ=              0.0000   YZ=              0.0000

 1\1\GINC-NODE07\SP\RB2PLYPD3-FC\def2QZVP\H2O1\BOITTIER\26-Aug-2020\0\\
 #p B2PLYPD3/Def2QZVP\\h2o\\0,1\O,0,-5.326605,-0.765216,0.923133\H,0,-4
 .368927,-0.697801,0.903596\H,0,-5.609308,0.125306,0.731827\\Version=ES
 64L-G09RevD.01\State=1-A'\HF=-76.3350341\MP2=-76.4250206\RMSD=4.268e-0
 9\PG=CS [SG(H2O1)]\\@

 THE CHYMISTS ARE A STRANGE CLASS OF MORTALS IMPELLED

 Normal termination of Gaussian 09 at Wed Aug 26 09:40:29 2020.
