 Gaussian 09, Revision D.01,
 Gaussian 09:  ES64L-G09RevD.01 24-Apr-2013

 --------------------
 #p B2PLYPD3/Def2QZVP
 --------------------

 ---
 h2o
 ---
 Symbolic Z-matrix:
 Charge =  0 Multiplicity = 1

                         Standard orientation:
 ---------------------------------------------------------------------
 Center     Atomic      Atomic             Coordinates (Angstroms)
 Number     Number       Type             X           Y           Z
 ---------------------------------------------------------------------
      1          8           0        0.000000    0.117854    0.000000
      2          1           0        0.765869   -0.458801    0.000000
      3          1           0       -0.765869   -0.484030    0.000000
 ---------------------------------------------------------------------

 SCF Done:  E(RB2PLYPD3) =  -76.3346619979     A.U. after   10 cycles
 E2(B2PLYPD3) =    -0.9023999143D-01 E(B2PLYPD3) =    -0.76424901989333D+02

 The electronic state is 1-A'.
 Alpha  occ. eigenvalues --  -19.73243  -1.15308  -0.60966  -0.47321  -0.39897
 Alpha virt. eigenvalues --    0.04452   0.10132   0.27559   0.30431   0.30841
 Alpha virt. eigenvalues --    0.35542   0.43765   0.50227   0.56131   0.62183
 Alpha virt. eigenvalues --    0.65817   0.80946   0.93567   0.96094   1.03312

 Mulliken charges:
               1
     1  O   -0.449337
     2  H    0.221387
     3  H    0.227950
 Sum of Mulliken charges =   0.00000

 Dipole moment (field-independent basis, Debye):
    X=              0.0078    Y=             -1.9631    Z=              0.0000  Tot=              1.9632
 Quadrupole moment (field-independent basis, Debye-Ang):
   XX=             -4.3121   YY=             -6.3359   ZZ=             -7.6113
   XY=              0.0417   XZ=              0.0000   YZ=              0.0000

 1\1\GINC-NODE35\SP\RB2PLYPD3-FC\def2QZVP\H2O1\BOITTIER\26-Aug-2020\0\\
 #p B2PLYPD3/Def2QZVP\\h2o\\0,1\O,0,-5.326605,-0.765211,0.918426\H,0,-4
 .368927,-0.727546,0.941233\H,0,-5.609308,0.154967,0.769529\\Version=ES
 64L-G09RevD.01\State=1-A'\HF=-76.334662\MP2=-76.424902\RMSD=4.102e-09\
 PG=CS [SG(H2O1)]\\@

 TERRY FORSTER, PORTLY ATLANTA BRAVES RELIEVER,

 Normal termination of Gaussian 09 at Wed Aug 26 08:00:23 2020.
