 Gaussian 09, Revision D.01,
 Gaussian 09:  ES64L-G09RevD.01 24-Apr-2013

 --------------------
 #p B2PLYPD3/Def2QZVP
 --------------------

 ---
 h2o
 ---
 Symbolic Z-matrix:
 Charge =  0 Multiplicity = 1

                         Standard orientation:
 ---------------------------------------------------------------------
 Center     Atomic      Atomic             Coordinates (Angstroms)
 Number     Number       Type             X           Y           Z
 ---------------------------------------------------------------------
      1          8           0        0.000000    0.117829    0.000000
      2          1           0        0.708176   -0.542564    0.000000
      3          1           0       -0.708176   -0.400070    0.000000
 ---------------------------------------------------------------------

 SCF Done:  E(RB2PLYPD3) =  -76.3276066062     A.U. after   10 cycles
 E2(B2PLYPD3) =    -0.8895670299D-01 E(B2PLYPD3) =    -0.76416563309195D+02

 The electronic state is 1-A'.
 Alpha  occ. eigenvalues --  -19.72639  -1.17966  -0.62198  -0.48655  -0.40386
 Alpha virt. eigenvalues --    0.04736   0.10617   0.27264   0.30307   0.31009
 Alpha virt. eigenvalues --    0.38044   0.45369   0.49961   0.57167   0.61420
 Alpha virt. eigenvalues --    0.64712   0.81978   0.94431   0.95417   1.04828

 Mulliken charges:
               1
     1  O   -0.397161
     2  H    0.223794
     3  H    0.173367
 Sum of Mulliken charges =   0.00000

 Dipole moment (field-independent basis, Debye):
    X=             -0.0501    Y=             -1.9938    Z=              0.0000  Tot=              1.9944
 Quadrupole moment (field-independent basis, Debye-Ang):
   XX=             -4.5808   YY=             -6.1711   ZZ=             -7.5020
   XY=             -0.2149   XZ=              0.0000   YZ=              0.0000

 1\1\GINC-NODE12\SP\RB2PLYPD3-FC\def2QZVP\H2O1\BOITTIER\26-Aug-2020\0\\
 #p B2PLYPD3/Def2QZVP\\h2o\\0,1\O,0,-5.326605,-0.762776,0.928711\H,0,-4
 .368927,-0.647721,0.843576\H,0,-5.609308,0.036174,0.701794\\Version=ES
 64L-G09RevD.01\State=1-A'\HF=-76.3276066\MP2=-76.4165633\RMSD=6.736e-0
 9\PG=CS [SG(H2O1)]\\@

 When I told the people of Northern Ireland that I was

 Normal termination of Gaussian 09 at Wed Aug 26 08:21:38 2020.
