 Gaussian 09, Revision D.01,
 Gaussian 09:  ES64L-G09RevD.01 24-Apr-2013

 --------------------
 #p B2PLYPD3/Def2QZVP
 --------------------

 ---
 h2o
 ---
 Symbolic Z-matrix:
 Charge =  0 Multiplicity = 1

                         Standard orientation:
 ---------------------------------------------------------------------
 Center     Atomic      Atomic             Coordinates (Angstroms)
 Number     Number       Type             X           Y           Z
 ---------------------------------------------------------------------
      1          8           0        0.000000    0.113022    0.000000
      2          1           0        0.755720   -0.475939    0.000000
      3          1           0       -0.755720   -0.428241    0.000000
 ---------------------------------------------------------------------

 SCF Done:  E(RB2PLYPD3) =  -76.3347780476     A.U. after   10 cycles
 E2(B2PLYPD3) =    -0.8946232780D-01 E(B2PLYPD3) =    -0.76424240375361D+02

 The electronic state is 1-A'.
 Alpha  occ. eigenvalues --  -19.72813  -1.16282  -0.62307  -0.47317  -0.40053
 Alpha virt. eigenvalues --    0.04724   0.10314   0.27385   0.30378   0.31399
 Alpha virt. eigenvalues --    0.36269   0.44420   0.50737   0.56164   0.62848
 Alpha virt. eigenvalues --    0.65212   0.81420   0.94027   0.95684   1.05144

 Mulliken charges:
               1
     1  O   -0.433964
     2  H    0.224007
     3  H    0.209957
 Sum of Mulliken charges =   0.00000

 Dipole moment (field-independent basis, Debye):
    X=             -0.0140    Y=             -1.9228    Z=              0.0000  Tot=              1.9228
 Quadrupole moment (field-independent basis, Debye-Ang):
   XX=             -4.2954   YY=             -6.3663   ZZ=             -7.5624
   XY=             -0.0797   XZ=              0.0000   YZ=              0.0000

 1\1\GINC-NODE26\SP\RB2PLYPD3-FC\def2QZVP\H2O1\BOITTIER\26-Aug-2020\0\\
 #p B2PLYPD3/Def2QZVP\\h2o\\0,1\O,0,-5.326605,-0.762064,0.916856\H,0,-4
 .368927,-0.73881,0.934202\H,0,-5.609308,0.115873,0.801165\\Version=ES6
 4L-G09RevD.01\State=1-A'\HF=-76.334778\MP2=-76.4242404\RMSD=4.616e-09\
 PG=CS [SG(H2O1)]\\@

 IF YOU GIVE A BOY AND A PIG EVERYTHING THEY WANT,

 Normal termination of Gaussian 09 at Wed Aug 26 12:10:40 2020.
