 Gaussian 09, Revision D.01,
 Gaussian 09:  ES64L-G09RevD.01 24-Apr-2013

 --------------------
 #p B2PLYPD3/Def2QZVP
 --------------------

 ---
 h2o
 ---
 Symbolic Z-matrix:
 Charge =  0 Multiplicity = 1

                         Standard orientation:
 ---------------------------------------------------------------------
 Center     Atomic      Atomic             Coordinates (Angstroms)
 Number     Number       Type             X           Y           Z
 ---------------------------------------------------------------------
      1          8           0        0.000000    0.112721    0.000000
      2          1           0        0.784923   -0.437019    0.000000
      3          1           0       -0.784923   -0.464752    0.000000
 ---------------------------------------------------------------------

 SCF Done:  E(RB2PLYPD3) =  -76.3343456966     A.U. after   10 cycles
 E2(B2PLYPD3) =    -0.9013802179D-01 E(B2PLYPD3) =    -0.76424483718382D+02

 The electronic state is 1-A'.
 Alpha  occ. eigenvalues --  -19.73080  -1.15047  -0.61638  -0.46607  -0.39801
 Alpha virt. eigenvalues --    0.04513   0.10068   0.27492   0.30445   0.31225
 Alpha virt. eigenvalues --    0.34899   0.43744   0.51016   0.55568   0.63333
 Alpha virt. eigenvalues --    0.65742   0.80612   0.93251   0.96219   1.04115

 Mulliken charges:
               1
     1  O   -0.458141
     2  H    0.225549
     3  H    0.232592
 Sum of Mulliken charges =   0.00000

 Dipole moment (field-independent basis, Debye):
    X=              0.0074    Y=             -1.9027    Z=              0.0000  Tot=              1.9027
 Quadrupole moment (field-independent basis, Debye-Ang):
   XX=             -4.1474   YY=             -6.4480   ZZ=             -7.6189
   XY=              0.0485   XZ=              0.0000   YZ=              0.0000

 1\1\GINC-NODE33\SP\RB2PLYPD3-FC\def2QZVP\H2O1\BOITTIER\26-Aug-2020\0\\
 #p B2PLYPD3/Def2QZVP\\h2o\\0,1\O,0,-5.326605,-0.761897,0.916503\H,0,-4
 .368927,-0.789634,0.936533\H,0,-5.609308,0.164033,0.805543\\Version=ES
 64L-G09RevD.01\State=1-A'\HF=-76.3343457\MP2=-76.4244837\RMSD=3.906e-0
 9\PG=CS [SG(H2O1)]\\@

 ... THIS SEEMS PLAINLY ABSURD; BUT WHOEVER WISHES TO BECOME A

 Normal termination of Gaussian 09 at Wed Aug 26 08:30:37 2020.
