 Gaussian 09, Revision D.01,
 Gaussian 09:  ES64L-G09RevD.01 24-Apr-2013

 --------------------
 #p B2PLYPD3/Def2QZVP
 --------------------

 ---
 h2o
 ---
 Symbolic Z-matrix:
 Charge =  0 Multiplicity = 1

                         Standard orientation:
 ---------------------------------------------------------------------
 Center     Atomic      Atomic             Coordinates (Angstroms)
 Number     Number       Type             X           Y           Z
 ---------------------------------------------------------------------
      1          8           0        0.000000    0.122177    0.000000
      2          1           0        0.749412   -0.481575    0.000000
      3          1           0       -0.749412   -0.495839    0.000000
 ---------------------------------------------------------------------

 SCF Done:  E(RB2PLYPD3) =  -76.3344019613     A.U. after   10 cycles
 E2(B2PLYPD3) =    -0.9036291959D-01 E(B2PLYPD3) =    -0.76424764880861D+02

 The electronic state is 1-A'.
 Alpha  occ. eigenvalues --  -19.73384  -1.15514  -0.60343  -0.47930  -0.39972
 Alpha virt. eigenvalues --    0.04385   0.10182   0.27621   0.30421   0.30535
 Alpha virt. eigenvalues --    0.36015   0.43763   0.49669   0.56617   0.61241
 Alpha virt. eigenvalues --    0.65897   0.81105   0.93942   0.96058   1.02689

 Mulliken charges:
               1
     1  O   -0.442794
     2  H    0.219510
     3  H    0.223284
 Sum of Mulliken charges =   0.00000

 Dipole moment (field-independent basis, Debye):
    X=              0.0049    Y=             -2.0130    Z=              0.0000  Tot=              2.0130
 Quadrupole moment (field-independent basis, Debye-Ang):
   XX=             -4.4521   YY=             -6.2403   ZZ=             -7.6065
   XY=              0.0225   XZ=              0.0000   YZ=              0.0000

 1\1\GINC-NODE18\SP\RB2PLYPD3-FC\def2QZVP\H2O1\BOITTIER\26-Aug-2020\0\\
 #p B2PLYPD3/Def2QZVP\\h2o\\0,1\O,0,-5.326605,-0.766157,0.927816\H,0,-4
 .368927,-0.689366,0.872221\H,0,-5.609308,0.131928,0.688891\\Version=ES
 64L-G09RevD.01\State=1-A'\HF=-76.334402\MP2=-76.4247649\RMSD=4.332e-09
 \PG=CS [SG(H2O1)]\\@

 "THE ACADEMIC HIERARCHY"

 Normal termination of Gaussian 09 at Wed Aug 26 12:50:50 2020.
