 Gaussian 09, Revision D.01,
 Gaussian 09:  ES64L-G09RevD.01 24-Apr-2013

 --------------------
 #p B2PLYPD3/Def2QZVP
 --------------------

 ---
 h2o
 ---
 Symbolic Z-matrix:
 Charge =  0 Multiplicity = 1

                         Standard orientation:
 ---------------------------------------------------------------------
 Center     Atomic      Atomic             Coordinates (Angstroms)
 Number     Number       Type             X           Y           Z
 ---------------------------------------------------------------------
      1          8           0        0.000000    0.109920    0.000000
      2          1           0        0.755475   -0.480120    0.000000
      3          1           0       -0.755475   -0.399239    0.000000
 ---------------------------------------------------------------------

 SCF Done:  E(RB2PLYPD3) =  -76.3334485296     A.U. after   10 cycles
 E2(B2PLYPD3) =    -0.8913878272D-01 E(B2PLYPD3) =    -0.76422587312283D+02

 The electronic state is 1-A'.
 Alpha  occ. eigenvalues --  -19.72593  -1.16646  -0.63033  -0.47137  -0.40100
 Alpha virt. eigenvalues --    0.04833   0.10365   0.27298   0.30357   0.31627
 Alpha virt. eigenvalues --    0.36403   0.44721   0.51138   0.56024   0.63405
 Alpha virt. eigenvalues --    0.64945   0.81536   0.94037   0.95585   1.05629

 Mulliken charges:
               1
     1  O   -0.427743
     2  H    0.226327
     3  H    0.201416
 Sum of Mulliken charges =   0.00000

 Dipole moment (field-independent basis, Debye):
    X=             -0.0224    Y=             -1.8921    Z=              0.0000  Tot=              1.8922
 Quadrupole moment (field-independent basis, Debye-Ang):
   XX=             -4.2550   YY=             -6.3988   ZZ=             -7.5440
   XY=             -0.1374   XZ=              0.0000   YZ=              0.0000

 1\1\GINC-NODE29\SP\RB2PLYPD3-FC\def2QZVP\H2O1\BOITTIER\26-Aug-2020\0\\
 #p B2PLYPD3/Def2QZVP\\h2o\\0,1\O,0,-5.326605,-0.760172,0.912846\H,0,-4
 .368927,-0.7564,0.954418\H,0,-5.609308,0.103199,0.844621\\Version=ES64
 L-G09RevD.01\State=1-A'\HF=-76.3334485\MP2=-76.4225873\RMSD=5.518e-09\
 PG=CS [SG(H2O1)]\\@

 A SCIENTIST IS SOMEONE WHOSE CURIOSITY SURVIVES

 Normal termination of Gaussian 09 at Wed Aug 26 09:04:23 2020.
