 Gaussian 09, Revision D.01,
 Gaussian 09:  ES64L-G09RevD.01 24-Apr-2013

 --------------------
 #p B2PLYPD3/Def2QZVP
 --------------------

 ---
 h2o
 ---
 Symbolic Z-matrix:
 Charge =  0 Multiplicity = 1

                         Standard orientation:
 ---------------------------------------------------------------------
 Center     Atomic      Atomic             Coordinates (Angstroms)
 Number     Number       Type             X           Y           Z
 ---------------------------------------------------------------------
      1          8           0        0.000000    0.118809    0.000000
      2          1           0        0.778409   -0.450991    0.000000
      3          1           0       -0.778409   -0.499477    0.000000
 ---------------------------------------------------------------------

 SCF Done:  E(RB2PLYPD3) =  -76.3332822361     A.U. after   10 cycles
 E2(B2PLYPD3) =    -0.9065732050D-01 E(B2PLYPD3) =    -0.76423939556593D+02

 The electronic state is 1-A'.
 Alpha  occ. eigenvalues --  -19.73421  -1.14695  -0.60468  -0.47056  -0.39778
 Alpha virt. eigenvalues --    0.04301   0.09996   0.27626   0.30464   0.30570
 Alpha virt. eigenvalues --    0.34929   0.43429   0.50198   0.55889   0.62219
 Alpha virt. eigenvalues --    0.66121   0.80558   0.93050   0.96350   1.02444

 Mulliken charges:
               1
     1  O   -0.459450
     2  H    0.223898
     3  H    0.235553
 Sum of Mulliken charges =   0.00000

 Dipole moment (field-independent basis, Debye):
    X=              0.0147    Y=             -1.9644    Z=              0.0000  Tot=              1.9644
 Quadrupole moment (field-independent basis, Debye-Ang):
   XX=             -4.2634   YY=             -6.3554   ZZ=             -7.6414
   XY=              0.0814   XZ=              0.0000   YZ=              0.0000

 1\1\GINC-NODE08\SP\RB2PLYPD3-FC\def2QZVP\H2O1\BOITTIER\26-Aug-2020\0\\
 #p B2PLYPD3/Def2QZVP\\h2o\\0,1\O,0,-5.326605,-0.766268,0.909096\H,0,-4
 .368927,-0.739726,1.021971\H,0,-5.609308,0.184058,0.837281\\Version=ES
 64L-G09RevD.01\State=1-A'\HF=-76.3332822\MP2=-76.4239396\RMSD=4.280e-0
 9\PG=CS [SG(H2O1)]\\@

 AN OPTIMIST IS A GUY

 Normal termination of Gaussian 09 at Wed Aug 26 09:25:29 2020.
