 Gaussian 09, Revision D.01,
 Gaussian 09:  ES64L-G09RevD.01 24-Apr-2013

 --------------------
 #p B2PLYPD3/Def2QZVP
 --------------------

 ---
 h2o
 ---
 Symbolic Z-matrix:
 Charge =  0 Multiplicity = 1

                         Standard orientation:
 ---------------------------------------------------------------------
 Center     Atomic      Atomic             Coordinates (Angstroms)
 Number     Number       Type             X           Y           Z
 ---------------------------------------------------------------------
      1          8           0        0.000000    0.113999    0.000000
      2          1           0        0.762111   -0.474185    0.000000
      3          1           0       -0.762111   -0.437805    0.000000
 ---------------------------------------------------------------------

 SCF Done:  E(RB2PLYPD3) =  -76.3350353559     A.U. after   10 cycles
 E2(B2PLYPD3) =    -0.8971914558D-01 E(B2PLYPD3) =    -0.76424754501443D+02

 The electronic state is 1-A'.
 Alpha  occ. eigenvalues --  -19.72944  -1.15890  -0.61926  -0.47217  -0.39983
 Alpha virt. eigenvalues --    0.04641   0.10242   0.27439   0.30399   0.31268
 Alpha virt. eigenvalues --    0.35920   0.44176   0.50664   0.56074   0.62776
 Alpha virt. eigenvalues --    0.65414   0.81218   0.93835   0.95844   1.04638

 Mulliken charges:
               1
     1  O   -0.441054
     2  H    0.225635
     3  H    0.215419
 Sum of Mulliken charges =   0.00000

 Dipole moment (field-independent basis, Debye):
    X=             -0.0106    Y=             -1.9286    Z=              0.0000  Tot=              1.9286
 Quadrupole moment (field-independent basis, Debye-Ang):
   XX=             -4.2776   YY=             -6.3723   ZZ=             -7.5809
   XY=             -0.0611   XZ=              0.0000   YZ=              0.0000

 1\1\GINC-NODE03\SP\RB2PLYPD3-FC\def2QZVP\H2O1\BOITTIER\26-Aug-2020\0\\
 #p B2PLYPD3/Def2QZVP\\h2o\\0,1\O,0,-5.326605,-0.760138,0.928447\H,0,-4
 .368927,-0.766782,0.830561\H,0,-5.609308,0.11303,0.721187\\Version=ES6
 4L-G09RevD.01\State=1-A'\HF=-76.3350354\MP2=-76.4247545\RMSD=4.293e-09
 \PG=CS [SG(H2O1)]\\@

 LAWS OF PROGRAMMING DEFINITION:  A WORKING PROGRAM

 Normal termination of Gaussian 09 at Wed Aug 26 08:33:58 2020.
