 Gaussian 09, Revision D.01,
 Gaussian 09:  ES64L-G09RevD.01 24-Apr-2013

 --------------------
 #p B2PLYPD3/Def2QZVP
 --------------------

 ---
 h2o
 ---
 Symbolic Z-matrix:
 Charge =  0 Multiplicity = 1

                         Standard orientation:
 ---------------------------------------------------------------------
 Center     Atomic      Atomic             Coordinates (Angstroms)
 Number     Number       Type             X           Y           Z
 ---------------------------------------------------------------------
      1          8           0        0.000000    0.114906    0.000000
      2          1           0        0.742802   -0.492673    0.000000
      3          1           0       -0.742802   -0.426574    0.000000
 ---------------------------------------------------------------------

 SCF Done:  E(RB2PLYPD3) =  -76.3341028943     A.U. after   10 cycles
 E2(B2PLYPD3) =    -0.8936980078D-01 E(B2PLYPD3) =    -0.76423472695117D+02

 The electronic state is 1-A'.
 Alpha  occ. eigenvalues --  -19.72810  -1.16654  -0.62170  -0.47722  -0.40138
 Alpha virt. eigenvalues --    0.04726   0.10388   0.27376   0.30362   0.31272
 Alpha virt. eigenvalues --    0.36783   0.44588   0.50426   0.56482   0.62339
 Alpha virt. eigenvalues --    0.65131   0.81617   0.94239   0.95568   1.04967

 Mulliken charges:
               1
     1  O   -0.425619
     2  H    0.222954
     3  H    0.202665
 Sum of Mulliken charges =   0.00000

 Dipole moment (field-independent basis, Debye):
    X=             -0.0206    Y=             -1.9482    Z=              0.0000  Tot=              1.9483
 Quadrupole moment (field-independent basis, Debye-Ang):
   XX=             -4.3825   YY=             -6.3082   ZZ=             -7.5486
   XY=             -0.1072   XZ=              0.0000   YZ=              0.0000

 1\1\GINC-NODE29\SP\RB2PLYPD3-FC\def2QZVP\H2O1\BOITTIER\26-Aug-2020\0\\
 #p B2PLYPD3/Def2QZVP\\h2o\\0,1\O,0,-5.326605,-0.762305,0.923163\H,0,-4
 .368927,-0.713997,0.885391\H,0,-5.609308,0.094922,0.74939\\Version=ES6
 4L-G09RevD.01\State=1-A'\HF=-76.3341029\MP2=-76.4234727\RMSD=5.200e-09
 \PG=CS [SG(H2O1)]\\@

 WHEN ALL ELSE FAILS, TRY THE BOSS'S SUGGESTION.

 Normal termination of Gaussian 09 at Wed Aug 26 12:03:17 2020.
