 Gaussian 09, Revision D.01,
 Gaussian 09:  ES64L-G09RevD.01 24-Apr-2013

 --------------------
 #p B2PLYPD3/Def2QZVP
 --------------------

 ---
 h2o
 ---
 Symbolic Z-matrix:
 Charge =  0 Multiplicity = 1

                         Standard orientation:
 ---------------------------------------------------------------------
 Center     Atomic      Atomic             Coordinates (Angstroms)
 Number     Number       Type             X           Y           Z
 ---------------------------------------------------------------------
      1          8           0        0.000000    0.112592    0.000000
      2          1           0        0.785197   -0.437622    0.000000
      3          1           0       -0.785197   -0.463111    0.000000
 ---------------------------------------------------------------------

 SCF Done:  E(RB2PLYPD3) =  -76.3343624119     A.U. after   10 cycles
 E2(B2PLYPD3) =    -0.9013074973D-01 E(B2PLYPD3) =    -0.76424493161665D+02

 The electronic state is 1-A'.
 Alpha  occ. eigenvalues --  -19.73074  -1.15048  -0.61659  -0.46595  -0.39800
 Alpha virt. eigenvalues --    0.04516   0.10068   0.27490   0.30445   0.31240
 Alpha virt. eigenvalues --    0.34890   0.43747   0.51036   0.55559   0.63359
 Alpha virt. eigenvalues --    0.65737   0.80609   0.93254   0.96219   1.04159

 Mulliken charges:
               1
     1  O   -0.458231
     2  H    0.225878
     3  H    0.232353
 Sum of Mulliken charges =   0.00000

 Dipole moment (field-independent basis, Debye):
    X=              0.0068    Y=             -1.9013    Z=              0.0000  Tot=              1.9013
 Quadrupole moment (field-independent basis, Debye-Ang):
   XX=             -4.1443   YY=             -6.4504   ZZ=             -7.6187
   XY=              0.0446   XZ=              0.0000   YZ=              0.0000

 1\1\GINC-NODE38\SP\RB2PLYPD3-FC\def2QZVP\H2O1\BOITTIER\26-Aug-2020\0\\
 #p B2PLYPD3/Def2QZVP\\h2o\\0,1\O,0,-5.326605,-0.761077,0.921372\H,0,-4
 .368927,-0.797279,0.892881\H,0,-5.609308,0.158556,0.771967\\Version=ES
 64L-G09RevD.01\State=1-A'\HF=-76.3343624\MP2=-76.4244932\RMSD=3.874e-0
 9\PG=CS [SG(H2O1)]\\@

 LIFE IS SO UNCERTAIN - EAT DESSERT FIRST.

 Normal termination of Gaussian 09 at Wed Aug 26 09:26:17 2020.
