 Gaussian 09, Revision D.01,
 Gaussian 09:  ES64L-G09RevD.01 24-Apr-2013

 --------------------
 #p B2PLYPD3/Def2QZVP
 --------------------

 ---
 h2o
 ---
 Symbolic Z-matrix:
 Charge =  0 Multiplicity = 1

                         Standard orientation:
 ---------------------------------------------------------------------
 Center     Atomic      Atomic             Coordinates (Angstroms)
 Number     Number       Type             X           Y           Z
 ---------------------------------------------------------------------
      1          8           0        0.000000    0.118738    0.000000
      2          1           0        0.750141   -0.480339    0.000000
      3          1           0       -0.750141   -0.469565    0.000000
 ---------------------------------------------------------------------

 SCF Done:  E(RB2PLYPD3) =  -76.3350661674     A.U. after   10 cycles
 E2(B2PLYPD3) =    -0.8996901803D-01 E(B2PLYPD3) =    -0.76425035185382D+02

 The electronic state is 1-A'.
 Alpha  occ. eigenvalues --  -19.73154  -1.15877  -0.61114  -0.47752  -0.40017
 Alpha virt. eigenvalues --    0.04532   0.10253   0.27523   0.30402   0.30900
 Alpha virt. eigenvalues --    0.36220   0.44039   0.50034   0.56493   0.61799
 Alpha virt. eigenvalues --    0.65610   0.81277   0.94045   0.95866   1.03735

 Mulliken charges:
               1
     1  O   -0.438569
     2  H    0.220785
     3  H    0.217785
 Sum of Mulliken charges =   0.00000

 Dipole moment (field-independent basis, Debye):
    X=             -0.0035    Y=             -1.9807    Z=              0.0000  Tot=              1.9807
 Quadrupole moment (field-independent basis, Debye-Ang):
   XX=             -4.4005   YY=             -6.2845   ZZ=             -7.5863
   XY=             -0.0173   XZ=              0.0000   YZ=              0.0000

 1\1\GINC-NODE01\SP\RB2PLYPD3-FC\def2QZVP\H2O1\BOITTIER\26-Aug-2020\0\\
 #p B2PLYPD3/Def2QZVP\\h2o\\0,1\O,0,-5.326605,-0.765282,0.921708\H,0,-4
 .368927,-0.698826,0.915324\H,0,-5.609308,0.127389,0.742743\\Version=ES
 64L-G09RevD.01\State=1-A'\HF=-76.3350662\MP2=-76.4250352\RMSD=4.249e-0
 9\PG=CS [SG(H2O1)]\\@

 WE STILL HAVE JUDGEMENT HERE,

 Normal termination of Gaussian 09 at Wed Aug 26 08:33:06 2020.
