 Gaussian 09, Revision D.01,
 Gaussian 09:  ES64L-G09RevD.01 24-Apr-2013

 --------------------
 #p B2PLYPD3/Def2QZVP
 --------------------

 ---
 h2o
 ---
 Symbolic Z-matrix:
 Charge =  0 Multiplicity = 1

                         Standard orientation:
 ---------------------------------------------------------------------
 Center     Atomic      Atomic             Coordinates (Angstroms)
 Number     Number       Type             X           Y           Z
 ---------------------------------------------------------------------
      1          8           0        0.000000    0.119439    0.000000
      2          1           0        0.753438   -0.476523    0.000000
      3          1           0       -0.753438   -0.478986    0.000000
 ---------------------------------------------------------------------

 SCF Done:  E(RB2PLYPD3) =  -76.3349285001     A.U. after   10 cycles
 E2(B2PLYPD3) =    -0.9012815723D-01 E(B2PLYPD3) =    -0.76425056657294D+02

 The electronic state is 1-A'.
 Alpha  occ. eigenvalues --  -19.73234  -1.15656  -0.60882  -0.47704  -0.39979
 Alpha virt. eigenvalues --    0.04479   0.10208   0.27557   0.30414   0.30798
 Alpha virt. eigenvalues --    0.36021   0.43904   0.49975   0.56448   0.61735
 Alpha virt. eigenvalues --    0.65731   0.81168   0.93919   0.95962   1.03375

 Mulliken charges:
               1
     1  O   -0.442100
     2  H    0.220716
     3  H    0.221383
 Sum of Mulliken charges =   0.00000

 Dipole moment (field-independent basis, Debye):
    X=              0.0008    Y=             -1.9854    Z=              0.0000  Tot=              1.9854
 Quadrupole moment (field-independent basis, Debye-Ang):
   XX=             -4.3944   YY=             -6.2846   ZZ=             -7.5969
   XY=              0.0040   XZ=              0.0000   YZ=              0.0000

 1\1\GINC-NODE25\SP\RB2PLYPD3-FC\def2QZVP\H2O1\BOITTIER\26-Aug-2020\0\\
 #p B2PLYPD3/Def2QZVP\\h2o\\0,1\O,0,-5.326605,-0.766254,0.918676\H,0,-4
 .368927,-0.695703,0.945395\H,0,-5.609308,0.139814,0.760875\\Version=ES
 64L-G09RevD.01\State=1-A'\HF=-76.3349285\MP2=-76.4250567\RMSD=4.184e-0
 9\PG=CS [SG(H2O1)]\\@

 THE PROBLEM WITH THE LADDER OF SUCCESS IS YOU CAN'T

 Normal termination of Gaussian 09 at Wed Aug 26 11:28:05 2020.
