 Gaussian 09, Revision D.01,
 Gaussian 09:  ES64L-G09RevD.01 24-Apr-2013

 --------------------
 #p B2PLYPD3/Def2QZVP
 --------------------

 ---
 h2o
 ---
 Symbolic Z-matrix:
 Charge =  0 Multiplicity = 1

                         Standard orientation:
 ---------------------------------------------------------------------
 Center     Atomic      Atomic             Coordinates (Angstroms)
 Number     Number       Type             X           Y           Z
 ---------------------------------------------------------------------
      1          8           0        0.000000    0.116197    0.000000
      2          1           0        0.747700   -0.484771    0.000000
      3          1           0       -0.747700   -0.444806    0.000000
 ---------------------------------------------------------------------

 SCF Done:  E(RB2PLYPD3) =  -76.3349068742     A.U. after   10 cycles
 E2(B2PLYPD3) =    -0.8962283493D-01 E(B2PLYPD3) =    -0.76424529709156D+02

 The electronic state is 1-A'.
 Alpha  occ. eigenvalues --  -19.72952  -1.16278  -0.61756  -0.47680  -0.40076
 Alpha virt. eigenvalues --    0.04651   0.10324   0.27439   0.30381   0.31155
 Alpha virt. eigenvalues --    0.36488   0.44331   0.50305   0.56447   0.62186
 Alpha virt. eigenvalues --    0.65339   0.81457   0.94155   0.95693   1.04557

 Mulliken charges:
               1
     1  O   -0.432454
     2  H    0.222088
     3  H    0.210367
 Sum of Mulliken charges =   0.00000

 Dipole moment (field-independent basis, Debye):
    X=             -0.0126    Y=             -1.9580    Z=              0.0000  Tot=              1.9581
 Quadrupole moment (field-independent basis, Debye-Ang):
   XX=             -4.3771   YY=             -6.3078   ZZ=             -7.5659
   XY=             -0.0648   XZ=              0.0000   YZ=              0.0000

 1\1\GINC-NODE35\SP\RB2PLYPD3-FC\def2QZVP\H2O1\BOITTIER\26-Aug-2020\0\\
 #p B2PLYPD3/Def2QZVP\\h2o\\0,1\O,0,-5.326605,-0.7635,0.921827\H,0,-4.3
 68927,-0.711243,0.90341\H,0,-5.609308,0.111293,0.752723\\Version=ES64L
 -G09RevD.01\State=1-A'\HF=-76.3349069\MP2=-76.4245297\RMSD=4.571e-09\P
 G=CS [SG(H2O1)]\\@

 THERE IS MUCH PLEASURE TO BE GAINED FROM USELESS KNOWLEDGE

 Normal termination of Gaussian 09 at Wed Aug 26 09:36:55 2020.
