 Gaussian 09, Revision D.01,
 Gaussian 09:  ES64L-G09RevD.01 24-Apr-2013

 --------------------
 #p B2PLYPD3/Def2QZVP
 --------------------

 ---
 h2o
 ---
 Symbolic Z-matrix:
 Charge =  0 Multiplicity = 1

                         Standard orientation:
 ---------------------------------------------------------------------
 Center     Atomic      Atomic             Coordinates (Angstroms)
 Number     Number       Type             X           Y           Z
 ---------------------------------------------------------------------
      1          8           0        0.000000    0.117764    0.000000
      2          1           0        0.786405   -0.430131    0.000000
      3          1           0       -0.786405   -0.511982    0.000000
 ---------------------------------------------------------------------

 SCF Done:  E(RB2PLYPD3) =  -76.3321615045     A.U. after   10 cycles
 E2(B2PLYPD3) =    -0.9074416628D-01 E(B2PLYPD3) =    -0.76422905670796D+02

 The electronic state is 1-A'.
 Alpha  occ. eigenvalues --  -19.73420  -1.14492  -0.60505  -0.46795  -0.39723
 Alpha virt. eigenvalues --    0.04254   0.09947   0.27616   0.30476   0.30490
 Alpha virt. eigenvalues --    0.34676   0.43367   0.50392   0.55664   0.62529
 Alpha virt. eigenvalues --    0.66161   0.80348   0.92705   0.96460   1.02234

 Mulliken charges:
               1
     1  O   -0.463694
     2  H    0.222253
     3  H    0.241441
 Sum of Mulliken charges =   0.00000

 Dipole moment (field-independent basis, Debye):
    X=              0.0239    Y=             -1.9493    Z=              0.0000  Tot=              1.9495
 Quadrupole moment (field-independent basis, Debye-Ang):
   XX=             -4.2087   YY=             -6.3858   ZZ=             -7.6513
   XY=              0.1398   XZ=              0.0000   YZ=              0.0000

 1\1\GINC-NODE33\SP\RB2PLYPD3-FC\def2QZVP\H2O1\BOITTIER\26-Aug-2020\0\\
 #p B2PLYPD3/Def2QZVP\\h2o\\0,1\O,0,-5.326605,-0.76534,0.916826\H,0,-4.
 368927,-0.762718,0.955125\H,0,-5.609308,0.192194,0.781842\\Version=ES6
 4L-G09RevD.01\State=1-A'\HF=-76.3321615\MP2=-76.4229057\RMSD=4.933e-09
 \PG=CS [SG(H2O1)]\\@

  ON THE CHOICE OF THE CORRECT LANGUAGE -

 Normal termination of Gaussian 09 at Wed Aug 26 11:59:04 2020.
