 Gaussian 09, Revision D.01,
 Gaussian 09:  ES64L-G09RevD.01 24-Apr-2013

 --------------------
 #p B2PLYPD3/Def2QZVP
 --------------------

 ---
 h2o
 ---
 Symbolic Z-matrix:
 Charge =  0 Multiplicity = 1

                         Standard orientation:
 ---------------------------------------------------------------------
 Center     Atomic      Atomic             Coordinates (Angstroms)
 Number     Number       Type             X           Y           Z
 ---------------------------------------------------------------------
      1          8           0        0.000000    0.118452    0.000000
      2          1           0        0.768881   -0.462231    0.000000
      3          1           0       -0.768881   -0.485383    0.000000
 ---------------------------------------------------------------------

 SCF Done:  E(RB2PLYPD3) =  -76.3343875845     A.U. after   10 cycles
 E2(B2PLYPD3) =    -0.9038104454D-01 E(B2PLYPD3) =    -0.76424768628999D+02

 The electronic state is 1-A'.
 Alpha  occ. eigenvalues --  -19.73312  -1.15118  -0.60764  -0.47277  -0.39863
 Alpha virt. eigenvalues --    0.04403   0.10092   0.27587   0.30441   0.30750
 Alpha virt. eigenvalues --    0.35368   0.43649   0.50176   0.56088   0.62129
 Alpha virt. eigenvalues --    0.65924   0.80841   0.93445   0.96172   1.03011

 Mulliken charges:
               1
     1  O   -0.452331
     2  H    0.223228
     3  H    0.229103
 Sum of Mulliken charges =   0.00000

 Dipole moment (field-independent basis, Debye):
    X=              0.0072    Y=             -1.9670    Z=              0.0000  Tot=              1.9670
 Quadrupole moment (field-independent basis, Debye-Ang):
   XX=             -4.3056   YY=             -6.3365   ZZ=             -7.6207
   XY=              0.0384   XZ=              0.0000   YZ=              0.0000

 1\1\GINC-NODE22\SP\RB2PLYPD3-FC\def2QZVP\H2O1\BOITTIER\26-Aug-2020\0\\
 #p B2PLYPD3/Def2QZVP\\h2o\\0,1\O,0,-5.326605,-0.76607,0.910652\H,0,-4.
 368927,-0.724806,1.008228\H,0,-5.609308,0.165972,0.825969\\Version=ES6
 4L-G09RevD.01\State=1-A'\HF=-76.3343876\MP2=-76.4247686\RMSD=4.050e-09
 \PG=CS [SG(H2O1)]\\@

 MICRO CREDO - NEVER TRUST A COMPUTER BIGGER

 Normal termination of Gaussian 09 at Wed Aug 26 09:10:18 2020.
