 Gaussian 09, Revision D.01,
 Gaussian 09:  ES64L-G09RevD.01 24-Apr-2013

 --------------------
 #p B2PLYPD3/Def2QZVP
 --------------------

 ---
 h2o
 ---
 Symbolic Z-matrix:
 Charge =  0 Multiplicity = 1

                         Standard orientation:
 ---------------------------------------------------------------------
 Center     Atomic      Atomic             Coordinates (Angstroms)
 Number     Number       Type             X           Y           Z
 ---------------------------------------------------------------------
      1          8           0        0.000000    0.118282    0.000000
      2          1           0        0.771304   -0.453674    0.000000
      3          1           0       -0.771304   -0.492581    0.000000
 ---------------------------------------------------------------------

 SCF Done:  E(RB2PLYPD3) =  -76.3341078246     A.U. after   10 cycles
 E2(B2PLYPD3) =    -0.9042207059D-01 E(B2PLYPD3) =    -0.76424529895142D+02

 The electronic state is 1-A'.
 Alpha  occ. eigenvalues --  -19.73322  -1.15039  -0.60746  -0.47205  -0.39845
 Alpha virt. eigenvalues --    0.04386   0.10073   0.27589   0.30446   0.30721
 Alpha virt. eigenvalues --    0.35274   0.43617   0.50213   0.56026   0.62198
 Alpha virt. eigenvalues --    0.65949   0.80780   0.93341   0.96212   1.02910

 Mulliken charges:
               1
     1  O   -0.453798
     2  H    0.222010
     3  H    0.231788
 Sum of Mulliken charges =   0.00000

 Dipole moment (field-independent basis, Debye):
    X=              0.0119    Y=             -1.9638    Z=              0.0000  Tot=              1.9639
 Quadrupole moment (field-independent basis, Debye-Ang):
   XX=             -4.2913   YY=             -6.3442   ZZ=             -7.6245
   XY=              0.0648   XZ=              0.0000   YZ=              0.0000

 1\1\GINC-NODE14\SP\RB2PLYPD3-FC\def2QZVP\H2O1\BOITTIER\26-Aug-2020\0\\
 #p B2PLYPD3/Def2QZVP\\h2o\\0,1\O,0,-5.326605,-0.765863,0.914636\H,0,-4
 .368927,-0.73116,0.975407\H,0,-5.609308,0.169014,0.795692\\Version=ES6
 4L-G09RevD.01\State=1-A'\HF=-76.3341078\MP2=-76.4245299\RMSD=4.210e-09
 \PG=CS [SG(H2O1)]\\@

 ...THE PHYSICISTS HAVE MADE THEIR UNIVERSE, AND IF YOU DO NOT LIKE

 Normal termination of Gaussian 09 at Wed Aug 26 08:31:15 2020.
