 Gaussian 09, Revision D.01,
 Gaussian 09:  ES64L-G09RevD.01 24-Apr-2013

 --------------------
 #p B2PLYPD3/Def2QZVP
 --------------------

 ---
 h2o
 ---
 Symbolic Z-matrix:
 Charge =  0 Multiplicity = 1

                         Standard orientation:
 ---------------------------------------------------------------------
 Center     Atomic      Atomic             Coordinates (Angstroms)
 Number     Number       Type             X           Y           Z
 ---------------------------------------------------------------------
      1          8           0        0.000000    0.121883    0.000000
      2          1           0        0.796039   -0.415070    0.000000
      3          1           0       -0.796039   -0.559991    0.000000
 ---------------------------------------------------------------------

 SCF Done:  E(RB2PLYPD3) =  -76.3271884602     A.U. after   10 cycles
 E2(B2PLYPD3) =    -0.9149448211D-01 E(B2PLYPD3) =    -0.76418682942324D+02

 The electronic state is 1-A'.
 Alpha  occ. eigenvalues --  -19.73757  -1.13748  -0.59420  -0.46689  -0.39593
 Alpha virt. eigenvalues --    0.03899   0.09755   0.27725   0.29520   0.30515
 Alpha virt. eigenvalues --    0.34253   0.42965   0.49973   0.55490   0.62073
 Alpha virt. eigenvalues --    0.66610   0.79814   0.91573   0.96773   1.00738

 Mulliken charges:
               1
     1  O   -0.472067
     2  H    0.220870
     3  H    0.251197
 Sum of Mulliken charges =   0.00000

 Dipole moment (field-independent basis, Debye):
    X=              0.0441    Y=             -1.9798    Z=              0.0000  Tot=              1.9803
 Quadrupole moment (field-independent basis, Debye-Ang):
   XX=             -4.2171   YY=             -6.3484   ZZ=             -7.6950
   XY=              0.2459   XZ=              0.0000   YZ=              0.0000

 1\1\GINC-NODE34\SP\RB2PLYPD3-FC\def2QZVP\H2O1\BOITTIER\26-Aug-2020\0\\
 #p B2PLYPD3/Def2QZVP\\h2o\\0,1\O,0,-5.326605,-0.768237,0.915462\H,0,-4
 .368927,-0.755424,0.983916\H,0,-5.609308,0.231258,0.775038\\Version=ES
 64L-G09RevD.01\State=1-A'\HF=-76.3271885\MP2=-76.4186829\RMSD=6.232e-0
 9\PG=CS [SG(H2O1)]\\@

 THERE'S NOTHING WRONG WITH FOLLOWING A TRAIN OF THOUGHT...

 Normal termination of Gaussian 09 at Wed Aug 26 09:08:08 2020.
