 Gaussian 09, Revision D.01,
 Gaussian 09:  ES64L-G09RevD.01 24-Apr-2013

 --------------------
 #p B2PLYPD3/Def2QZVP
 --------------------

 ---
 h2o
 ---
 Symbolic Z-matrix:
 Charge =  0 Multiplicity = 1

                         Standard orientation:
 ---------------------------------------------------------------------
 Center     Atomic      Atomic             Coordinates (Angstroms)
 Number     Number       Type             X           Y           Z
 ---------------------------------------------------------------------
      1          8           0        0.000000    0.118845    0.000000
      2          1           0        0.814101   -0.391544    0.000000
      3          1           0       -0.814101   -0.559218    0.000000
 ---------------------------------------------------------------------

 SCF Done:  E(RB2PLYPD3) =  -76.3250174039     A.U. after   10 cycles
 E2(B2PLYPD3) =    -0.9161786644D-01 E(B2PLYPD3) =    -0.76416635270367D+02

 The electronic state is 1-A'.
 Alpha  occ. eigenvalues --  -19.73709  -1.13364  -0.59607  -0.46104  -0.39476
 Alpha virt. eigenvalues --    0.03819   0.09659   0.27648   0.29459   0.30540
 Alpha virt. eigenvalues --    0.33822   0.42828   0.50518   0.55007   0.62834
 Alpha virt. eigenvalues --    0.66685   0.79295   0.91016   0.96885   1.00706

 Mulliken charges:
               1
     1  O   -0.481699
     2  H    0.224082
     3  H    0.257617
 Sum of Mulliken charges =   0.00000

 Dipole moment (field-independent basis, Debye):
    X=              0.0462    Y=             -1.9399    Z=              0.0000  Tot=              1.9405
 Quadrupole moment (field-independent basis, Debye-Ang):
   XX=             -4.0820   YY=             -6.4273   ZZ=             -7.7136
   XY=              0.2965   XZ=              0.0000   YZ=              0.0000

 1\1\GINC-NODE23\SP\RB2PLYPD3-FC\def2QZVP\H2O1\BOITTIER\26-Aug-2020\0\\
 #p B2PLYPD3/Def2QZVP\\h2o\\0,1\O,0,-5.326605,-0.766276,0.914136\H,0,-4
 .368927,-0.803709,0.982758\H,0,-5.609308,0.248176,0.797965\\Version=ES
 64L-G09RevD.01\State=1-A'\HF=-76.3250174\MP2=-76.4166353\RMSD=7.104e-0
 9\PG=CS [SG(H2O1)]\\@

 IT IS THE GODS' CUSTOM TO BRING LOW ALL THINGS OF SURPASSING GREATNESS.

 Normal termination of Gaussian 09 at Wed Aug 26 09:17:54 2020.
