 Gaussian 09, Revision D.01,
 Gaussian 09:  ES64L-G09RevD.01 24-Apr-2013

 --------------------
 #p B2PLYPD3/Def2QZVP
 --------------------

 ---
 h2o
 ---
 Symbolic Z-matrix:
 Charge =  0 Multiplicity = 1

                         Standard orientation:
 ---------------------------------------------------------------------
 Center     Atomic      Atomic             Coordinates (Angstroms)
 Number     Number       Type             X           Y           Z
 ---------------------------------------------------------------------
      1          8           0        0.000000    0.115600    0.000000
      2          1           0        0.733427   -0.506116    0.000000
      3          1           0       -0.733427   -0.418680    0.000000
 ---------------------------------------------------------------------

 SCF Done:  E(RB2PLYPD3) =  -76.3329236814     A.U. after   10 cycles
 E2(B2PLYPD3) =    -0.8923854874D-01 E(B2PLYPD3) =    -0.76422162230141D+02

 The electronic state is 1-A'.
 Alpha  occ. eigenvalues --  -19.72759  -1.17011  -0.62215  -0.47974  -0.40208
 Alpha virt. eigenvalues --    0.04742   0.10453   0.27347   0.30346   0.31221
 Alpha virt. eigenvalues --    0.37166   0.44789   0.50297   0.56676   0.62095
 Alpha virt. eigenvalues --    0.65012   0.81753   0.94348   0.95491   1.04955

 Mulliken charges:
               1
     1  O   -0.418087
     2  H    0.223009
     3  H    0.195078
 Sum of Mulliken charges =   0.00000

 Dipole moment (field-independent basis, Debye):
    X=             -0.0282    Y=             -1.9599    Z=              0.0000  Tot=              1.9601
 Quadrupole moment (field-independent basis, Debye-Ang):
   XX=             -4.4358   YY=             -6.2729   ZZ=             -7.5350
   XY=             -0.1392   XZ=              0.0000   YZ=              0.0000

 1\1\GINC-NODE37\SP\RB2PLYPD3-FC\def2QZVP\H2O1\BOITTIER\26-Aug-2020\0\\
 #p B2PLYPD3/Def2QZVP\\h2o\\0,1\O,0,-5.326605,-0.762286,0.925166\H,0,-4
 .368927,-0.697735,0.869205\H,0,-5.609308,0.078361,0.733433\\Version=ES
 64L-G09RevD.01\State=1-A'\HF=-76.3329237\MP2=-76.4221622\RMSD=5.809e-0
 9\PG=CS [SG(H2O1)]\\@

 When cryptography is outlawed, bayl bhgynjf jvyy unir cevinpl.

 Normal termination of Gaussian 09 at Wed Aug 26 09:04:20 2020.
