 Gaussian 09, Revision D.01,
 Gaussian 09:  ES64L-G09RevD.01 24-Apr-2013

 --------------------
 #p B2PLYPD3/Def2QZVP
 --------------------

 ---
 h2o
 ---
 Symbolic Z-matrix:
 Charge =  0 Multiplicity = 1

                         Standard orientation:
 ---------------------------------------------------------------------
 Center     Atomic      Atomic             Coordinates (Angstroms)
 Number     Number       Type             X           Y           Z
 ---------------------------------------------------------------------
      1          8           0        0.000000    0.121475    0.000000
      2          1           0        0.736139   -0.500574    0.000000
      3          1           0       -0.736139   -0.471229    0.000000
 ---------------------------------------------------------------------

 SCF Done:  E(RB2PLYPD3) =  -76.3345416340     A.U. after   10 cycles
 E2(B2PLYPD3) =    -0.8997445826D-01 E(B2PLYPD3) =    -0.76424516092290D+02

 The electronic state is 1-A'.
 Alpha  occ. eigenvalues --  -19.73208  -1.16165  -0.60767  -0.48226  -0.40093
 Alpha virt. eigenvalues --    0.04502   0.10316   0.27545   0.30389   0.30723
 Alpha virt. eigenvalues --    0.36671   0.44125   0.49692   0.56872   0.61156
 Alpha virt. eigenvalues --    0.65590   0.81401   0.94373   0.95796   1.03457

 Mulliken charges:
               1
     1  O   -0.431867
     2  H    0.220142
     3  H    0.211725
 Sum of Mulliken charges =   0.00000

 Dipole moment (field-independent basis, Debye):
    X=             -0.0103    Y=             -2.0141    Z=              0.0000  Tot=              2.0142
 Quadrupole moment (field-independent basis, Debye-Ang):
   XX=             -4.5051   YY=             -6.2141   ZZ=             -7.5771
   XY=             -0.0454   XZ=              0.0000   YZ=              0.0000

 1\1\GINC-NODE28\SP\RB2PLYPD3-FC\def2QZVP\H2O1\BOITTIER\26-Aug-2020\0\\
 #p B2PLYPD3/Def2QZVP\\h2o\\0,1\O,0,-5.326605,-0.766475,0.924833\H,0,-4
 .368927,-0.661813,0.897553\H,0,-5.609308,0.10946,0.710319\\Version=ES6
 4L-G09RevD.01\State=1-A'\HF=-76.3345416\MP2=-76.4245161\RMSD=4.688e-09
 \PG=CS [SG(H2O1)]\\@

  DISAPPOINTMENT IS THE NURSE OF WISDOM.

 Normal termination of Gaussian 09 at Wed Aug 26 08:32:43 2020.
