 Gaussian 09, Revision D.01,
 Gaussian 09:  ES64L-G09RevD.01 24-Apr-2013

 --------------------
 #p B2PLYPD3/Def2QZVP
 --------------------

 ---
 h2o
 ---
 Symbolic Z-matrix:
 Charge =  0 Multiplicity = 1

                         Standard orientation:
 ---------------------------------------------------------------------
 Center     Atomic      Atomic             Coordinates (Angstroms)
 Number     Number       Type             X           Y           Z
 ---------------------------------------------------------------------
      1          8           0        0.000000    0.118607    0.000000
      2          1           0        0.762777   -0.462139    0.000000
      3          1           0       -0.762777   -0.486715    0.000000
 ---------------------------------------------------------------------

 SCF Done:  E(RB2PLYPD3) =  -76.3346595534     A.U. after   10 cycles
 E2(B2PLYPD3) =    -0.9025293209D-01 E(B2PLYPD3) =    -0.76424912485447D+02

 The electronic state is 1-A'.
 Alpha  occ. eigenvalues --  -19.73265  -1.15356  -0.60866  -0.47432  -0.39912
 Alpha virt. eigenvalues --    0.04443   0.10143   0.27568   0.30429   0.30788
 Alpha virt. eigenvalues --    0.35642   0.43772   0.50121   0.56220   0.62014
 Alpha virt. eigenvalues --    0.65826   0.80988   0.93632   0.96080   1.03208

 Mulliken charges:
               1
     1  O   -0.447948
     2  H    0.220763
     3  H    0.227185
 Sum of Mulliken charges =   0.00000

 Dipole moment (field-independent basis, Debye):
    X=              0.0077    Y=             -1.9720    Z=              0.0000  Tot=              1.9720
 Quadrupole moment (field-independent basis, Debye-Ang):
   XX=             -4.3376   YY=             -6.3187   ZZ=             -7.6098
   XY=              0.0403   XZ=              0.0000   YZ=              0.0000

 1\1\GINC-NODE30\SP\RB2PLYPD3-FC\def2QZVP\H2O1\BOITTIER\26-Aug-2020\0\\
 #p B2PLYPD3/Def2QZVP\\h2o\\0,1\O,0,-5.326605,-0.765006,0.922663\H,0,-4
 .368927,-0.724035,0.90631\H,0,-5.609308,0.148174,0.737126\\Version=ES6
 4L-G09RevD.01\State=1-A'\HF=-76.3346596\MP2=-76.4249125\RMSD=4.145e-09
 \PG=CS [SG(H2O1)]\\@

 GOORD'S AXIOM:  A MEETING IS AN EVENT AT WHICH

 Normal termination of Gaussian 09 at Wed Aug 26 11:09:07 2020.
