 Gaussian 09, Revision D.01,
 Gaussian 09:  ES64L-G09RevD.01 24-Apr-2013

 --------------------
 #p B2PLYPD3/Def2QZVP
 --------------------

 ---
 h2o
 ---
 Symbolic Z-matrix:
 Charge =  0 Multiplicity = 1

                         Standard orientation:
 ---------------------------------------------------------------------
 Center     Atomic      Atomic             Coordinates (Angstroms)
 Number     Number       Type             X           Y           Z
 ---------------------------------------------------------------------
      1          8           0        0.000000    0.115509    0.000000
      2          1           0        0.727300   -0.514343    0.000000
      3          1           0       -0.727300   -0.409729    0.000000
 ---------------------------------------------------------------------

 SCF Done:  E(RB2PLYPD3) =  -76.3316340442     A.U. after   10 cycles
 E2(B2PLYPD3) =    -0.8909607491D-01 E(B2PLYPD3) =    -0.76420730119059D+02

 The electronic state is 1-A'.
 Alpha  occ. eigenvalues --  -19.72685  -1.17316  -0.62371  -0.48105  -0.40262
 Alpha virt. eigenvalues --    0.04769   0.10504   0.27310   0.30332   0.31224
 Alpha virt. eigenvalues --    0.37430   0.44983   0.50277   0.56774   0.62031
 Alpha virt. eigenvalues --    0.64886   0.81856   0.94381   0.95439   1.05051

 Mulliken charges:
               1
     1  O   -0.411751
     2  H    0.223172
     3  H    0.188579
 Sum of Mulliken charges =   0.00000

 Dipole moment (field-independent basis, Debye):
    X=             -0.0342    Y=             -1.9621    Z=              0.0000  Tot=              1.9624
 Quadrupole moment (field-independent basis, Debye-Ang):
   XX=             -4.4628   YY=             -6.2554   ZZ=             -7.5228
   XY=             -0.1649   XZ=              0.0000   YZ=              0.0000

 1\1\GINC-NODE13\SP\RB2PLYPD3-FC\def2QZVP\H2O1\BOITTIER\26-Aug-2020\0\\
 #p B2PLYPD3/Def2QZVP\\h2o\\0,1\O,0,-5.326605,-0.762292,0.924892\H,0,-4
 .368927,-0.687067,0.871298\H,0,-5.609308,0.067787,0.735453\\Version=ES
 64L-G09RevD.01\State=1-A'\HF=-76.331634\MP2=-76.4207301\RMSD=6.230e-09
 \PG=CS [SG(H2O1)]\\@

  ON THE CHOICE OF THE CORRECT LANGUAGE -

 Normal termination of Gaussian 09 at Wed Aug 26 08:31:07 2020.
