 Gaussian 09, Revision D.01,
 Gaussian 09:  ES64L-G09RevD.01 24-Apr-2013

 --------------------
 #p B2PLYPD3/Def2QZVP
 --------------------

 ---
 h2o
 ---
 Symbolic Z-matrix:
 Charge =  0 Multiplicity = 1

                         Standard orientation:
 ---------------------------------------------------------------------
 Center     Atomic      Atomic             Coordinates (Angstroms)
 Number     Number       Type             X           Y           Z
 ---------------------------------------------------------------------
      1          8           0        0.000000    0.116040    0.000000
      2          1           0        0.768685   -0.455605    0.000000
      3          1           0       -0.768685   -0.472711    0.000000
 ---------------------------------------------------------------------

 SCF Done:  E(RB2PLYPD3) =  -76.3348983301     A.U. after   10 cycles
 E2(B2PLYPD3) =    -0.9010111238D-01 E(B2PLYPD3) =    -0.76424999442503D+02

 The electronic state is 1-A'.
 Alpha  occ. eigenvalues --  -19.73147  -1.15384  -0.61307  -0.47165  -0.39898
 Alpha virt. eigenvalues --    0.04510   0.10145   0.27521   0.30427   0.31020
 Alpha virt. eigenvalues --    0.35506   0.43847   0.50461   0.56016   0.62525
 Alpha virt. eigenvalues --    0.65713   0.80958   0.93577   0.96052   1.03791

 Mulliken charges:
               1
     1  O   -0.449285
     2  H    0.222390
     3  H    0.226896
 Sum of Mulliken charges =   0.00000

 Dipole moment (field-independent basis, Debye):
    X=              0.0051    Y=             -1.9443    Z=              0.0000  Tot=              1.9444
 Quadrupole moment (field-independent basis, Debye-Ang):
   XX=             -4.2733   YY=             -6.3657   ZZ=             -7.6059
   XY=              0.0287   XZ=              0.0000   YZ=              0.0000

 1\1\GINC-NODE17\SP\RB2PLYPD3-FC\def2QZVP\H2O1\BOITTIER\26-Aug-2020\0\\
 #p B2PLYPD3/Def2QZVP\\h2o\\0,1\O,0,-5.326605,-0.763906,0.918866\H,0,-4
 .368927,-0.744226,0.929801\H,0,-5.609308,0.150771,0.774127\\Version=ES
 64L-G09RevD.01\State=1-A'\HF=-76.3348983\MP2=-76.4249994\RMSD=3.974e-0
 9\PG=CS [SG(H2O1)]\\@

 BREAD HAS TO MOLD IN ORDER TO GET PENICILLIN.

 Normal termination of Gaussian 09 at Wed Aug 26 09:56:00 2020.
