 Gaussian 09, Revision D.01,
 Gaussian 09:  ES64L-G09RevD.01 24-Apr-2013

 --------------------
 #p B2PLYPD3/Def2QZVP
 --------------------

 ---
 h2o
 ---
 Symbolic Z-matrix:
 Charge =  0 Multiplicity = 1

                         Standard orientation:
 ---------------------------------------------------------------------
 Center     Atomic      Atomic             Coordinates (Angstroms)
 Number     Number       Type             X           Y           Z
 ---------------------------------------------------------------------
      1          8           0        0.000000    0.113547    0.000000
      2          1           0        0.770537   -0.455244    0.000000
      3          1           0       -0.770537   -0.453136    0.000000
 ---------------------------------------------------------------------

 SCF Done:  E(RB2PLYPD3) =  -76.3351199679     A.U. after   10 cycles
 E2(B2PLYPD3) =    -0.8987063060D-01 E(B2PLYPD3) =    -0.76424990598457D+02

 The electronic state is 1-A'.
 Alpha  occ. eigenvalues --  -19.72998  -1.15570  -0.61822  -0.46996  -0.39916
 Alpha virt. eigenvalues --    0.04601   0.10178   0.27462   0.30416   0.31276
 Alpha virt. eigenvalues --    0.35536   0.44006   0.50783   0.55894   0.62974
 Alpha virt. eigenvalues --    0.65538   0.81015   0.93652   0.95971   1.04554

 Mulliken charges:
               1
     1  O   -0.447578
     2  H    0.224074
     3  H    0.223504
 Sum of Mulliken charges =   0.00000

 Dipole moment (field-independent basis, Debye):
    X=             -0.0006    Y=             -1.9194    Z=              0.0000  Tot=              1.9194
 Quadrupole moment (field-independent basis, Debye-Ang):
   XX=             -4.2303   YY=             -6.4008   ZZ=             -7.5948
   XY=             -0.0036   XZ=              0.0000   YZ=              0.0000

 1\1\GINC-NODE22\SP\RB2PLYPD3-FC\def2QZVP\H2O1\BOITTIER\26-Aug-2020\0\\
 #p B2PLYPD3/Def2QZVP\\h2o\\0,1\O,0,-5.326605,-0.762013,0.919908\H,0,-4
 .368927,-0.764319,0.909959\H,0,-5.609308,0.140577,0.777541\\Version=ES
 64L-G09RevD.01\State=1-A'\HF=-76.33512\MP2=-76.4249906\RMSD=3.860e-09\
 PG=CS [SG(H2O1)]\\@

 EXPERIENCE IS THE FRUIT OF THE TREE OF ERRORS.

 Normal termination of Gaussian 09 at Wed Aug 26 12:41:45 2020.
