 Gaussian 09, Revision D.01,
 Gaussian 09:  ES64L-G09RevD.01 24-Apr-2013

 --------------------
 #p B2PLYPD3/Def2QZVP
 --------------------

 ---
 h2o
 ---
 Symbolic Z-matrix:
 Charge =  0 Multiplicity = 1

                         Standard orientation:
 ---------------------------------------------------------------------
 Center     Atomic      Atomic             Coordinates (Angstroms)
 Number     Number       Type             X           Y           Z
 ---------------------------------------------------------------------
      1          8           0        0.000000    0.112057    0.000000
      2          1           0        0.765399   -0.467721    0.000000
      3          1           0       -0.765399   -0.428732    0.000000
 ---------------------------------------------------------------------

 SCF Done:  E(RB2PLYPD3) =  -76.3349377039     A.U. after   10 cycles
 E2(B2PLYPD3) =    -0.8958948499D-01 E(B2PLYPD3) =    -0.76424527188867D+02

 The electronic state is 1-A'.
 Alpha  occ. eigenvalues --  -19.72845  -1.15957  -0.62288  -0.47035  -0.39982
 Alpha virt. eigenvalues --    0.04695   0.10249   0.27402   0.30395   0.31438
 Alpha virt. eigenvalues --    0.35850   0.44262   0.50934   0.55936   0.63161
 Alpha virt. eigenvalues --    0.65313   0.81210   0.93826   0.95820   1.05091

 Mulliken charges:
               1
     1  O   -0.440943
     2  H    0.226002
     3  H    0.214941
 Sum of Mulliken charges =   0.00000

 Dipole moment (field-independent basis, Debye):
    X=             -0.0109    Y=             -1.9078    Z=              0.0000  Tot=              1.9078
 Quadrupole moment (field-independent basis, Debye-Ang):
   XX=             -4.2354   YY=             -6.4039   ZZ=             -7.5760
   XY=             -0.0665   XZ=              0.0000   YZ=              0.0000

 1\1\GINC-NODE33\SP\RB2PLYPD3-FC\def2QZVP\H2O1\BOITTIER\26-Aug-2020\0\\
 #p B2PLYPD3/Def2QZVP\\h2o\\0,1\O,0,-5.326605,-0.759846,0.924888\H,0,-4
 .368927,-0.775058,0.857073\H,0,-5.609308,0.11664,0.751281\\Version=ES6
 4L-G09RevD.01\State=1-A'\HF=-76.3349377\MP2=-76.4245272\RMSD=4.314e-09
 \PG=CS [SG(H2O1)]\\@

 KNOWLEDGE IS CHIMERA - FOR BEYOND IT LIES OTHER KNOWLEDGE,

 Normal termination of Gaussian 09 at Wed Aug 26 08:38:12 2020.
