 Gaussian 09, Revision D.01,
 Gaussian 09:  ES64L-G09RevD.01 24-Apr-2013

 --------------------
 #p B2PLYPD3/Def2QZVP
 --------------------

 ---
 h2o
 ---
 Symbolic Z-matrix:
 Charge =  0 Multiplicity = 1

                         Standard orientation:
 ---------------------------------------------------------------------
 Center     Atomic      Atomic             Coordinates (Angstroms)
 Number     Number       Type             X           Y           Z
 ---------------------------------------------------------------------
      1          8           0        0.000000    0.118273    0.000000
      2          1           0        0.771526   -0.449899    0.000000
      3          1           0       -0.771526   -0.496287    0.000000
 ---------------------------------------------------------------------

 SCF Done:  E(RB2PLYPD3) =  -76.3339856344     A.U. after   10 cycles
 E2(B2PLYPD3) =    -0.9042784931D-01 E(B2PLYPD3) =    -0.76424413483720D+02

 The electronic state is 1-A'.
 Alpha  occ. eigenvalues --  -19.73322  -1.15033  -0.60743  -0.47196  -0.39843
 Alpha virt. eigenvalues --    0.04381   0.10072   0.27588   0.30446   0.30704
 Alpha virt. eigenvalues --    0.35269   0.43619   0.50217   0.56016   0.62206
 Alpha virt. eigenvalues --    0.65949   0.80771   0.93312   0.96221   1.02869

 Mulliken charges:
               1
     1  O   -0.453864
     2  H    0.221109
     3  H    0.232755
 Sum of Mulliken charges =   0.00000

 Dipole moment (field-independent basis, Debye):
    X=              0.0142    Y=             -1.9635    Z=              0.0000  Tot=              1.9636
 Quadrupole moment (field-independent basis, Debye-Ang):
   XX=             -4.2900   YY=             -6.3444   ZZ=             -7.6249
   XY=              0.0773   XZ=              0.0000   YZ=              0.0000

 1\1\GINC-NODE20\SP\RB2PLYPD3-FC\def2QZVP\H2O1\BOITTIER\26-Aug-2020\0\\
 #p B2PLYPD3/Def2QZVP\\h2o\\0,1\O,0,-5.326605,-0.765298,0.919834\H,0,-4
 .368927,-0.736917,0.93071\H,0,-5.609308,0.165726,0.75794\\Version=ES64
 L-G09RevD.01\State=1-A'\HF=-76.3339856\MP2=-76.4244135\RMSD=4.325e-09\
 PG=CS [SG(H2O1)]\\@

 YOU CANNOT THROW TO THE GROUND THE LETTERS OF

 Normal termination of Gaussian 09 at Wed Aug 26 10:52:06 2020.
