 Gaussian 09, Revision D.01,
 Gaussian 09:  ES64L-G09RevD.01 24-Apr-2013

 --------------------
 #p B2PLYPD3/Def2QZVP
 --------------------

 ---
 h2o
 ---
 Symbolic Z-matrix:
 Charge =  0 Multiplicity = 1

                         Standard orientation:
 ---------------------------------------------------------------------
 Center     Atomic      Atomic             Coordinates (Angstroms)
 Number     Number       Type             X           Y           Z
 ---------------------------------------------------------------------
      1          8           0        0.000000    0.115070    0.000000
      2          1           0        0.745855   -0.487945    0.000000
      3          1           0       -0.745855   -0.432613    0.000000
 ---------------------------------------------------------------------

 SCF Done:  E(RB2PLYPD3) =  -76.3345132716     A.U. after   10 cycles
 E2(B2PLYPD3) =    -0.8945626944D-01 E(B2PLYPD3) =    -0.76423969541089D+02

 The electronic state is 1-A'.
 Alpha  occ. eigenvalues --  -19.72854  -1.16494  -0.62062  -0.47661  -0.40109
 Alpha virt. eigenvalues --    0.04704   0.10360   0.27397   0.30370   0.31256
 Alpha virt. eigenvalues --    0.36634   0.44488   0.50424   0.56435   0.62352
 Alpha virt. eigenvalues --    0.65204   0.81548   0.94195   0.95615   1.04881

 Mulliken charges:
               1
     1  O   -0.428766
     2  H    0.222717
     3  H    0.206049
 Sum of Mulliken charges =   0.00000

 Dipole moment (field-independent basis, Debye):
    X=             -0.0172    Y=             -1.9482    Z=              0.0000  Tot=              1.9482
 Quadrupole moment (field-independent basis, Debye-Ang):
   XX=             -4.3704   YY=             -6.3153   ZZ=             -7.5555
   XY=             -0.0901   XZ=              0.0000   YZ=              0.0000

 1\1\GINC-NODE39\SP\RB2PLYPD3-FC\def2QZVP\H2O1\BOITTIER\26-Aug-2020\0\\
 #p B2PLYPD3/Def2QZVP\\h2o\\0,1\O,0,-5.326605,-0.762708,0.92185\H,0,-4.
 368927,-0.715536,0.898334\H,0,-5.609308,0.102905,0.757384\\Version=ES6
 4L-G09RevD.01\State=1-A'\HF=-76.3345133\MP2=-76.4239695\RMSD=4.908e-09
 \PG=CS [SG(H2O1)]\\@

 REALITY IS FOR PEOPLE WHO CAN'T FACE SCIENCE FICTION.

 Normal termination of Gaussian 09 at Wed Aug 26 08:32:07 2020.
