 Gaussian 09, Revision D.01,
 Gaussian 09:  ES64L-G09RevD.01 24-Apr-2013

 --------------------
 #p B2PLYPD3/Def2QZVP
 --------------------

 ---
 h2o
 ---
 Symbolic Z-matrix:
 Charge =  0 Multiplicity = 1

                         Standard orientation:
 ---------------------------------------------------------------------
 Center     Atomic      Atomic             Coordinates (Angstroms)
 Number     Number       Type             X           Y           Z
 ---------------------------------------------------------------------
      1          8           0        0.000000    0.114392    0.000000
      2          1           0        0.767305   -0.459073    0.000000
      3          1           0       -0.767305   -0.456062    0.000000
 ---------------------------------------------------------------------

 SCF Done:  E(RB2PLYPD3) =  -76.3351671327     A.U. after   10 cycles
 E2(B2PLYPD3) =    -0.8988427991D-01 E(B2PLYPD3) =    -0.76425051412601D+02

 The electronic state is 1-A'.
 Alpha  occ. eigenvalues --  -19.73023  -1.15619  -0.61711  -0.47117  -0.39933
 Alpha virt. eigenvalues --    0.04591   0.10190   0.27472   0.30414   0.31214
 Alpha virt. eigenvalues --    0.35651   0.44012   0.50652   0.55990   0.62781
 Alpha virt. eigenvalues --    0.65548   0.81069   0.93707   0.95947   1.04413

 Mulliken charges:
               1
     1  O   -0.446073
     2  H    0.223445
     3  H    0.222627
 Sum of Mulliken charges =   0.00000

 Dipole moment (field-independent basis, Debye):
    X=             -0.0009    Y=             -1.9294    Z=              0.0000  Tot=              1.9294
 Quadrupole moment (field-independent basis, Debye-Ang):
   XX=             -4.2576   YY=             -6.3822   ZZ=             -7.5933
   XY=             -0.0051   XZ=              0.0000   YZ=              0.0000

 1\1\GINC-NODE14\SP\RB2PLYPD3-FC\def2QZVP\H2O1\BOITTIER\26-Aug-2020\0\\
 #p B2PLYPD3/Def2QZVP\\h2o\\0,1\O,0,-5.326605,-0.762951,0.91745\H,0,-4.
 368927,-0.750403,0.935148\H,0,-5.609308,0.141658,0.791214\\Version=ES6
 4L-G09RevD.01\State=1-A'\HF=-76.3351671\MP2=-76.4250514\RMSD=3.909e-09
 \PG=CS [SG(H2O1)]\\@

 YOU CANNOT THROW TO THE GROUND THE LETTERS OF

 Normal termination of Gaussian 09 at Wed Aug 26 09:30:42 2020.
