 Gaussian 09, Revision D.01,
 Gaussian 09:  ES64L-G09RevD.01 24-Apr-2013

 --------------------
 #p B2PLYPD3/Def2QZVP
 --------------------

 ---
 h2o
 ---
 Symbolic Z-matrix:
 Charge =  0 Multiplicity = 1

                         Standard orientation:
 ---------------------------------------------------------------------
 Center     Atomic      Atomic             Coordinates (Angstroms)
 Number     Number       Type             X           Y           Z
 ---------------------------------------------------------------------
      1          8           0        0.000000    0.117606    0.000000
      2          1           0        0.763961   -0.462262    0.000000
      3          1           0       -0.763961   -0.478586    0.000000
 ---------------------------------------------------------------------

 SCF Done:  E(RB2PLYPD3) =  -76.3348582371     A.U. after   10 cycles
 E2(B2PLYPD3) =    -0.9016502287D-01 E(B2PLYPD3) =    -0.76425023259943D+02

 The electronic state is 1-A'.
 Alpha  occ. eigenvalues --  -19.73208  -1.15414  -0.61065  -0.47357  -0.39916
 Alpha virt. eigenvalues --    0.04479   0.10154   0.27545   0.30426   0.30894
 Alpha virt. eigenvalues --    0.35643   0.43824   0.50243   0.56166   0.62193
 Alpha virt. eigenvalues --    0.65762   0.81009   0.93652   0.96046   1.03493

 Mulliken charges:
               1
     1  O   -0.447627
     2  H    0.221661
     3  H    0.225966
 Sum of Mulliken charges =   0.00000

 Dipole moment (field-independent basis, Debye):
    X=              0.0050    Y=             -1.9620    Z=              0.0000  Tot=              1.9620
 Quadrupole moment (field-independent basis, Debye-Ang):
   XX=             -4.3180   YY=             -6.3343   ZZ=             -7.6060
   XY=              0.0270   XZ=              0.0000   YZ=              0.0000

 1\1\GINC-NODE25\SP\RB2PLYPD3-FC\def2QZVP\H2O1\BOITTIER\26-Aug-2020\0\\
 #p B2PLYPD3/Def2QZVP\\h2o\\0,1\O,0,-5.326605,-0.765179,0.917282\H,0,-4
 .368927,-0.724419,0.950069\H,0,-5.609308,0.151321,0.778763\\Version=ES
 64L-G09RevD.01\State=1-A'\HF=-76.3348582\MP2=-76.4250233\RMSD=4.048e-0
 9\PG=CS [SG(H2O1)]\\@

 I DON'T EXACTLY UNDERSTAND WHAT YOU ARE SAYING,

 Normal termination of Gaussian 09 at Wed Aug 26 11:06:08 2020.
