 Gaussian 09, Revision D.01,
 Gaussian 09:  ES64L-G09RevD.01 24-Apr-2013

 --------------------
 #p B2PLYPD3/Def2QZVP
 --------------------

 ---
 h2o
 ---
 Symbolic Z-matrix:
 Charge =  0 Multiplicity = 1

                         Standard orientation:
 ---------------------------------------------------------------------
 Center     Atomic      Atomic             Coordinates (Angstroms)
 Number     Number       Type             X           Y           Z
 ---------------------------------------------------------------------
      1          8           0        0.000000    0.116356    0.000000
      2          1           0        0.749604   -0.483918    0.000000
      3          1           0       -0.749604   -0.446928    0.000000
 ---------------------------------------------------------------------

 SCF Done:  E(RB2PLYPD3) =  -76.3349819198     A.U. after   10 cycles
 E2(B2PLYPD3) =    -0.8968490170D-01 E(B2PLYPD3) =    -0.76424666821458D+02

 The electronic state is 1-A'.
 Alpha  occ. eigenvalues --  -19.72982  -1.16175  -0.61676  -0.47642  -0.40057
 Alpha virt. eigenvalues --    0.04632   0.10305   0.27451   0.30386   0.31127
 Alpha virt. eigenvalues --    0.36390   0.44270   0.50298   0.56415   0.62188
 Alpha virt. eigenvalues --    0.65388   0.81408   0.94102   0.95735   1.04438

 Mulliken charges:
               1
     1  O   -0.434312
     2  H    0.222513
     3  H    0.211799
 Sum of Mulliken charges =   0.00000

 Dipole moment (field-independent basis, Debye):
    X=             -0.0116    Y=             -1.9584    Z=              0.0000  Tot=              1.9585
 Quadrupole moment (field-independent basis, Debye-Ang):
   XX=             -4.3701   YY=             -6.3111   ZZ=             -7.5706
   XY=             -0.0602   XZ=              0.0000   YZ=              0.0000

 1\1\GINC-NODE20\SP\RB2PLYPD3-FC\def2QZVP\H2O1\BOITTIER\26-Aug-2020\0\\
 #p B2PLYPD3/Def2QZVP\\h2o\\0,1\O,0,-5.326605,-0.762665,0.925773\H,0,-4
 .368927,-0.722213,0.867023\H,0,-5.609308,0.108889,0.726605\\Version=ES
 64L-G09RevD.01\State=1-A'\HF=-76.3349819\MP2=-76.4246668\RMSD=4.488e-0
 9\PG=CS [SG(H2O1)]\\@

 A MAN SHOULD NEVER BE ASHAMED TO OWN HE HAS BEEN IN THE WRONG

 Normal termination of Gaussian 09 at Wed Aug 26 11:32:48 2020.
