 Gaussian 09, Revision D.01,
 Gaussian 09:  ES64L-G09RevD.01 24-Apr-2013

 --------------------
 #p B2PLYPD3/Def2QZVP
 --------------------

 ---
 h2o
 ---
 Symbolic Z-matrix:
 Charge =  0 Multiplicity = 1

                         Standard orientation:
 ---------------------------------------------------------------------
 Center     Atomic      Atomic             Coordinates (Angstroms)
 Number     Number       Type             X           Y           Z
 ---------------------------------------------------------------------
      1          8           0        0.000000    0.111606    0.000000
      2          1           0        0.813228   -0.401907    0.000000
      3          1           0       -0.813228   -0.490941    0.000000
 ---------------------------------------------------------------------

 SCF Done:  E(RB2PLYPD3) =  -76.3306051899     A.U. after   10 cycles
 E2(B2PLYPD3) =    -0.9075965718D-01 E(B2PLYPD3) =    -0.76421364847058D+02

 The electronic state is 1-A'.
 Alpha  occ. eigenvalues --  -19.73261  -1.14011  -0.61109  -0.45861  -0.39563
 Alpha virt. eigenvalues --    0.04257   0.09834   0.27525   0.30506   0.30852
 Alpha virt. eigenvalues --    0.33804   0.43226   0.51472   0.54925   0.63952
 Alpha virt. eigenvalues --    0.66212   0.79625   0.92285   0.96741   1.02606

 Mulliken charges:
               1
     1  O   -0.478580
     2  H    0.229367
     3  H    0.249213
 Sum of Mulliken charges =   0.00000

 Dipole moment (field-independent basis, Debye):
    X=              0.0215    Y=             -1.8737    Z=              0.0000  Tot=              1.8738
 Quadrupole moment (field-independent basis, Debye-Ang):
   XX=             -3.9873   YY=             -6.5298   ZZ=             -7.6707
   XY=              0.1629   XZ=              0.0000   YZ=              0.0000

 1\1\GINC-NODE04\SP\RB2PLYPD3-FC\def2QZVP\H2O1\BOITTIER\26-Aug-2020\0\\
 #p B2PLYPD3/Def2QZVP\\h2o\\0,1\O,0,-5.326605,-0.761302,0.914204\H,0,-4
 .368927,-0.841834,0.951648\H,0,-5.609308,0.206709,0.82797\\Version=ES6
 4L-G09RevD.01\State=1-A'\HF=-76.3306052\MP2=-76.4213648\RMSD=5.277e-09
 \PG=CS [SG(H2O1)]\\@

 Time has a wonderful way of weeding out the trivial.

 Normal termination of Gaussian 09 at Wed Aug 26 09:04:59 2020.
