 Gaussian 09, Revision D.01,
 Gaussian 09:  ES64L-G09RevD.01 24-Apr-2013

 --------------------
 #p B2PLYPD3/Def2QZVP
 --------------------

 ---
 h2o
 ---
 Symbolic Z-matrix:
 Charge =  0 Multiplicity = 1

                         Standard orientation:
 ---------------------------------------------------------------------
 Center     Atomic      Atomic             Coordinates (Angstroms)
 Number     Number       Type             X           Y           Z
 ---------------------------------------------------------------------
      1          8           0        0.000000    0.113655    0.000000
      2          1           0        0.775193   -0.448744    0.000000
      3          1           0       -0.775193   -0.460499    0.000000
 ---------------------------------------------------------------------

 SCF Done:  E(RB2PLYPD3) =  -76.3349074666     A.U. after   10 cycles
 E2(B2PLYPD3) =    -0.8999637895D-01 E(B2PLYPD3) =    -0.76424903845516D+02

 The electronic state is 1-A'.
 Alpha  occ. eigenvalues --  -19.73050  -1.15360  -0.61681  -0.46890  -0.39874
 Alpha virt. eigenvalues --    0.04559   0.10136   0.27482   0.30428   0.31223
 Alpha virt. eigenvalues --    0.35311   0.43890   0.50808   0.55802   0.63025
 Alpha virt. eigenvalues --    0.65634   0.80877   0.93506   0.96065   1.04301

 Mulliken charges:
               1
     1  O   -0.451487
     2  H    0.224194
     3  H    0.227293
 Sum of Mulliken charges =   0.00000

 Dipole moment (field-independent basis, Debye):
    X=              0.0033    Y=             -1.9176    Z=              0.0000  Tot=              1.9176
 Quadrupole moment (field-independent basis, Debye-Ang):
   XX=             -4.2087   YY=             -6.4117   ZZ=             -7.6047
   XY=              0.0202   XZ=              0.0000   YZ=              0.0000

 1\1\GINC-NODE33\SP\RB2PLYPD3-FC\def2QZVP\H2O1\BOITTIER\26-Aug-2020\0\\
 #p B2PLYPD3/Def2QZVP\\h2o\\0,1\O,0,-5.326605,-0.762217,0.919117\H,0,-4
 .368927,-0.77043,0.917576\H,0,-5.609308,0.149943,0.782659\\Version=ES6
 4L-G09RevD.01\State=1-A'\HF=-76.3349075\MP2=-76.4249038\RMSD=3.841e-09
 \PG=CS [SG(H2O1)]\\@

 My opinions may have changed, but not the fact that I am right.

 Normal termination of Gaussian 09 at Wed Aug 26 11:32:41 2020.
