 Gaussian 09, Revision D.01,
 Gaussian 09:  ES64L-G09RevD.01 24-Apr-2013

 --------------------
 #p B2PLYPD3/Def2QZVP
 --------------------

 ---
 h2o
 ---
 Symbolic Z-matrix:
 Charge =  0 Multiplicity = 1

                         Standard orientation:
 ---------------------------------------------------------------------
 Center     Atomic      Atomic             Coordinates (Angstroms)
 Number     Number       Type             X           Y           Z
 ---------------------------------------------------------------------
      1          8           0        0.000000    0.113151    0.000000
      2          1           0        0.714345   -0.532950    0.000000
      3          1           0       -0.714345   -0.372255    0.000000
 ---------------------------------------------------------------------

 SCF Done:  E(RB2PLYPD3) =  -76.3254231132     A.U. after   10 cycles
 E2(B2PLYPD3) =    -0.8857686850D-01 E(B2PLYPD3) =    -0.76413999981727D+02

 The electronic state is 1-A'.
 Alpha  occ. eigenvalues --  -19.72361  -1.18272  -0.63229  -0.48231  -0.40411
 Alpha virt. eigenvalues --    0.04882   0.10637   0.27147   0.30287   0.31333
 Alpha virt. eigenvalues --    0.38000   0.45661   0.50494   0.56839   0.62288
 Alpha virt. eigenvalues --    0.64452   0.82141   0.94184   0.95371   1.05403

 Mulliken charges:
               1
     1  O   -0.390555
     2  H    0.224825
     3  H    0.165730
 Sum of Mulliken charges =   0.00000

 Dipole moment (field-independent basis, Debye):
    X=             -0.0521    Y=             -1.9453    Z=              0.0000  Tot=              1.9460
 Quadrupole moment (field-independent basis, Debye-Ang):
   XX=             -4.4890   YY=             -6.2375   ZZ=             -7.4840
   XY=             -0.2515   XZ=              0.0000   YZ=              0.0000

 1\1\GINC-NODE06\SP\RB2PLYPD3-FC\def2QZVP\H2O1\BOITTIER\26-Aug-2020\0\\
 #p B2PLYPD3/Def2QZVP\\h2o\\0,1\O,0,-5.326605,-0.760518,0.925197\H,0,-4
 .368927,-0.682802,0.857769\H,0,-5.609308,0.035129,0.743727\\Version=ES
 64L-G09RevD.01\State=1-A'\HF=-76.3254231\MP2=-76.414\RMSD=6.759e-09\PG
 =CS [SG(H2O1)]\\@

 REALITY IS FOR PEOPLE WHO CAN'T FACE SCIENCE FICTION.

 Normal termination of Gaussian 09 at Wed Aug 26 08:51:28 2020.
