 Gaussian 09, Revision D.01,
 Gaussian 09:  ES64L-G09RevD.01 24-Apr-2013

 --------------------
 #p B2PLYPD3/Def2QZVP
 --------------------

 ---
 h2o
 ---
 Symbolic Z-matrix:
 Charge =  0 Multiplicity = 1

                         Standard orientation:
 ---------------------------------------------------------------------
 Center     Atomic      Atomic             Coordinates (Angstroms)
 Number     Number       Type             X           Y           Z
 ---------------------------------------------------------------------
      1          8           0        0.000000    0.112300    0.000000
      2          1           0        0.768114   -0.461125    0.000000
      3          1           0       -0.768114   -0.437277    0.000000
 ---------------------------------------------------------------------

 SCF Done:  E(RB2PLYPD3) =  -76.3350960282     A.U. after   10 cycles
 E2(B2PLYPD3) =    -0.8967897516D-01 E(B2PLYPD3) =    -0.76424775003328D+02

 The electronic state is 1-A'.
 Alpha  occ. eigenvalues --  -19.72889  -1.15809  -0.62165  -0.46987  -0.39955
 Alpha virt. eigenvalues --    0.04669   0.10222   0.27420   0.30402   0.31412
 Alpha virt. eigenvalues --    0.35707   0.44170   0.50923   0.55896   0.63155
 Alpha virt. eigenvalues --    0.65387   0.81130   0.93766   0.95875   1.05008

 Mulliken charges:
               1
     1  O   -0.443758
     2  H    0.225202
     3  H    0.218555
 Sum of Mulliken charges =   0.00000

 Dipole moment (field-independent basis, Debye):
    X=             -0.0067    Y=             -1.9086    Z=              0.0000  Tot=              1.9087
 Quadrupole moment (field-independent basis, Debye-Ang):
   XX=             -4.2254   YY=             -6.4089   ZZ=             -7.5827
   XY=             -0.0408   XZ=              0.0000   YZ=              0.0000

 1\1\GINC-NODE03\SP\RB2PLYPD3-FC\def2QZVP\H2O1\BOITTIER\26-Aug-2020\0\\
 #p B2PLYPD3/Def2QZVP\\h2o\\0,1\O,0,-5.326605,-0.761789,0.914062\H,0,-4
 .368927,-0.762337,0.954914\H,0,-5.609308,0.134998,0.825258\\Version=ES
 64L-G09RevD.01\State=1-A'\HF=-76.335096\MP2=-76.424775\RMSD=4.037e-09\
 PG=CS [SG(H2O1)]\\@

 LENDING MONEY TO FRIENDS CAUSES THEM TO LOSE THEIR MEMORIES.

 Normal termination of Gaussian 09 at Wed Aug 26 08:29:21 2020.
