 Gaussian 09, Revision D.01,
 Gaussian 09:  ES64L-G09RevD.01 24-Apr-2013

 --------------------
 #p B2PLYPD3/Def2QZVP
 --------------------

 ---
 h2o
 ---
 Symbolic Z-matrix:
 Charge =  0 Multiplicity = 1

                         Standard orientation:
 ---------------------------------------------------------------------
 Center     Atomic      Atomic             Coordinates (Angstroms)
 Number     Number       Type             X           Y           Z
 ---------------------------------------------------------------------
      1          8           0        0.000000    0.117717    0.000000
      2          1           0        0.754847   -0.474577    0.000000
      3          1           0       -0.754847   -0.467162    0.000000
 ---------------------------------------------------------------------

 SCF Done:  E(RB2PLYPD3) =  -76.3351392993     A.U. after   10 cycles
 E2(B2PLYPD3) =    -0.8996086710D-01 E(B2PLYPD3) =    -0.76425100166445D+02

 The electronic state is 1-A'.
 Alpha  occ. eigenvalues --  -19.73129  -1.15789  -0.61245  -0.47587  -0.39992
 Alpha virt. eigenvalues --    0.04543   0.10233   0.27513   0.30406   0.30968
 Alpha virt. eigenvalues --    0.36063   0.44019   0.50173   0.56361   0.62036
 Alpha virt. eigenvalues --    0.65606   0.81225   0.93939   0.95890   1.03862

 Mulliken charges:
               1
     1  O   -0.440765
     2  H    0.221406
     3  H    0.219359
 Sum of Mulliken charges =   0.00000

 Dipole moment (field-independent basis, Debye):
    X=             -0.0023    Y=             -1.9684    Z=              0.0000  Tot=              1.9684
 Quadrupole moment (field-independent basis, Debye-Ang):
   XX=             -4.3638   YY=             -6.3093   ZZ=             -7.5890
   XY=             -0.0121   XZ=              0.0000   YZ=              0.0000

 1\1\GINC-NODE03\SP\RB2PLYPD3-FC\def2QZVP\H2O1\BOITTIER\26-Aug-2020\0\\
 #p B2PLYPD3/Def2QZVP\\h2o\\0,1\O,0,-5.326605,-0.763993,0.924379\H,0,-4
 .368927,-0.719156,0.886325\H,0,-5.609308,0.127081,0.72959\\Version=ES6
 4L-G09RevD.01\State=1-A'\HF=-76.3351393\MP2=-76.4251002\RMSD=4.143e-09
 \PG=CS [SG(H2O1)]\\@

 MISERY NO LONGER LOVES COMPANY.  NOWADAYS IT INSISTS ON IT.

 Normal termination of Gaussian 09 at Wed Aug 26 10:09:03 2020.
