 Gaussian 09, Revision D.01,
 Gaussian 09:  ES64L-G09RevD.01 24-Apr-2013

 --------------------
 #p B2PLYPD3/Def2QZVP
 --------------------

 ---
 h2o
 ---
 Symbolic Z-matrix:
 Charge =  0 Multiplicity = 1

                         Standard orientation:
 ---------------------------------------------------------------------
 Center     Atomic      Atomic             Coordinates (Angstroms)
 Number     Number       Type             X           Y           Z
 ---------------------------------------------------------------------
      1          8           0        0.000000    0.113721    0.000000
      2          1           0        0.800803   -0.414067    0.000000
      3          1           0       -0.800803   -0.495702    0.000000
 ---------------------------------------------------------------------

 SCF Done:  E(RB2PLYPD3) =  -76.3317879615     A.U. after   10 cycles
 E2(B2PLYPD3) =    -0.9065954882D-01 E(B2PLYPD3) =    -0.76422447510274D+02

 The electronic state is 1-A'.
 Alpha  occ. eigenvalues --  -19.73286  -1.14309  -0.61004  -0.46259  -0.39648
 Alpha virt. eigenvalues --    0.04297   0.09903   0.27552   0.30488   0.30793
 Alpha virt. eigenvalues --    0.34227   0.43346   0.51045   0.55247   0.63412
 Alpha virt. eigenvalues --    0.66114   0.80025   0.92535   0.96565   1.02699

 Mulliken charges:
               1
     1  O   -0.470851
     2  H    0.226003
     3  H    0.244848
 Sum of Mulliken charges =   0.00000

 Dipole moment (field-independent basis, Debye):
    X=              0.0213    Y=             -1.9021    Z=              0.0000  Tot=              1.9022
 Quadrupole moment (field-independent basis, Debye-Ang):
   XX=             -4.0802   YY=             -6.4728   ZZ=             -7.6570
   XY=              0.1453   XZ=              0.0000   YZ=              0.0000

 1\1\GINC-NODE33\SP\RB2PLYPD3-FC\def2QZVP\H2O1\BOITTIER\26-Aug-2020\0\\
 #p B2PLYPD3/Def2QZVP\\h2o\\0,1\O,0,-5.326605,-0.762521,0.91721\H,0,-4.
 368927,-0.811304,0.935059\H,0,-5.609308,0.195689,0.796401\\Version=ES6
 4L-G09RevD.01\State=1-A'\HF=-76.331788\MP2=-76.4224475\RMSD=4.996e-09\
 PG=CS [SG(H2O1)]\\@

 COMMON SENSE IS NOT SO COMMON.   -- VOLTAIRE

 Normal termination of Gaussian 09 at Wed Aug 26 08:59:01 2020.
