 Gaussian 09, Revision D.01,
 Gaussian 09:  ES64L-G09RevD.01 24-Apr-2013

 --------------------
 #p B2PLYPD3/Def2QZVP
 --------------------

 ---
 h2o
 ---
 Symbolic Z-matrix:
 Charge =  0 Multiplicity = 1

                         Standard orientation:
 ---------------------------------------------------------------------
 Center     Atomic      Atomic             Coordinates (Angstroms)
 Number     Number       Type             X           Y           Z
 ---------------------------------------------------------------------
      1          8           0        0.000000    0.117964    0.000000
      2          1           0        0.754251   -0.477157    0.000000
      3          1           0       -0.754251   -0.466557    0.000000
 ---------------------------------------------------------------------

 SCF Done:  E(RB2PLYPD3) =  -76.3351092394     A.U. after   10 cycles
 E2(B2PLYPD3) =    -0.8997546630D-01 E(B2PLYPD3) =    -0.76425084705721D+02

 The electronic state is 1-A'.
 Alpha  occ. eigenvalues --  -19.73140  -1.15787  -0.61201  -0.47613  -0.39994
 Alpha virt. eigenvalues --    0.04536   0.10233   0.27518   0.30407   0.30946
 Alpha virt. eigenvalues --    0.36076   0.44012   0.50142   0.56381   0.61987
 Alpha virt. eigenvalues --    0.65617   0.81226   0.93946   0.95894   1.03804

 Mulliken charges:
               1
     1  O   -0.440643
     2  H    0.221783
     3  H    0.218860
 Sum of Mulliken charges =   0.00000

 Dipole moment (field-independent basis, Debye):
    X=             -0.0034    Y=             -1.9711    Z=              0.0000  Tot=              1.9711
 Quadrupole moment (field-independent basis, Debye-Ang):
   XX=             -4.3700   YY=             -6.3047   ZZ=             -7.5894
   XY=             -0.0172   XZ=              0.0000   YZ=              0.0000

 1\1\GINC-NODE38\SP\RB2PLYPD3-FC\def2QZVP\H2O1\BOITTIER\26-Aug-2020\0\\
 #p B2PLYPD3/Def2QZVP\\h2o\\0,1\O,0,-5.326605,-0.765542,0.916039\H,0,-4
 .368927,-0.703832,0.96197\H,0,-5.609308,0.136555,0.786194\\Version=ES6
 4L-G09RevD.01\State=1-A'\HF=-76.3351092\MP2=-76.4250847\RMSD=4.168e-09
 \PG=CS [SG(H2O1)]\\@

 A leading authority is anyone who has guessed right more than once.

 Normal termination of Gaussian 09 at Wed Aug 26 09:07:03 2020.
