 Gaussian 09, Revision D.01,
 Gaussian 09:  ES64L-G09RevD.01 24-Apr-2013

 --------------------
 #p B2PLYPD3/Def2QZVP
 --------------------

 ---
 h2o
 ---
 Symbolic Z-matrix:
 Charge =  0 Multiplicity = 1

                         Standard orientation:
 ---------------------------------------------------------------------
 Center     Atomic      Atomic             Coordinates (Angstroms)
 Number     Number       Type             X           Y           Z
 ---------------------------------------------------------------------
      1          8           0        0.000000    0.115409    0.000000
      2          1           0        0.762453   -0.464736    0.000000
      3          1           0       -0.762453   -0.458540    0.000000
 ---------------------------------------------------------------------

 SCF Done:  E(RB2PLYPD3) =  -76.3352134427     A.U. after   10 cycles
 E2(B2PLYPD3) =    -0.8988008882D-01 E(B2PLYPD3) =    -0.76425093531562D+02

 The electronic state is 1-A'.
 Alpha  occ. eigenvalues --  -19.73045  -1.15718  -0.61597  -0.47286  -0.39960
 Alpha virt. eigenvalues --    0.04585   0.10213   0.27480   0.30409   0.31147
 Alpha virt. eigenvalues --    0.35831   0.44039   0.50492   0.56125   0.62535
 Alpha virt. eigenvalues --    0.65545   0.81152   0.93804   0.95906   1.04285

 Mulliken charges:
               1
     1  O   -0.443544
     2  H    0.222622
     3  H    0.220921
 Sum of Mulliken charges =   0.00000

 Dipole moment (field-independent basis, Debye):
    X=             -0.0019    Y=             -1.9421    Z=              0.0000  Tot=              1.9421
 Quadrupole moment (field-independent basis, Debye-Ang):
   XX=             -4.2952   YY=             -6.3572   ZZ=             -7.5898
   XY=             -0.0103   XZ=              0.0000   YZ=              0.0000

 1\1\GINC-NODE12\SP\RB2PLYPD3-FC\def2QZVP\H2O1\BOITTIER\26-Aug-2020\0\\
 #p B2PLYPD3/Def2QZVP\\h2o\\0,1\O,0,-5.326605,-0.763473,0.918841\H,0,-4
 .368927,-0.737298,0.927214\H,0,-5.609308,0.136902,0.776869\\Version=ES
 64L-G09RevD.01\State=1-A'\HF=-76.3352134\MP2=-76.4250935\RMSD=3.993e-0
 9\PG=CS [SG(H2O1)]\\@

 SOME PEOPLE TRY TO PULL THE WOOL OVER YOUR EYES

 Normal termination of Gaussian 09 at Wed Aug 26 09:35:44 2020.
