 Gaussian 09, Revision D.01,
 Gaussian 09:  ES64L-G09RevD.01 24-Apr-2013

 --------------------
 #p B2PLYPD3/Def2QZVP
 --------------------

 ---
 h2o
 ---
 Symbolic Z-matrix:
 Charge =  0 Multiplicity = 1

                         Standard orientation:
 ---------------------------------------------------------------------
 Center     Atomic      Atomic             Coordinates (Angstroms)
 Number     Number       Type             X           Y           Z
 ---------------------------------------------------------------------
      1          8           0        0.000000    0.114883    0.000000
      2          1           0        0.737513   -0.499552    0.000000
      3          1           0       -0.737513   -0.419515    0.000000
 ---------------------------------------------------------------------

 SCF Done:  E(RB2PLYPD3) =  -76.3333661370     A.U. after   10 cycles
 E2(B2PLYPD3) =    -0.8924934885D-01 E(B2PLYPD3) =    -0.76422615485874D+02

 The electronic state is 1-A'.
 Alpha  occ. eigenvalues --  -19.72752  -1.16904  -0.62296  -0.47842  -0.40184
 Alpha virt. eigenvalues --    0.04752   0.10432   0.27348   0.30350   0.31280
 Alpha virt. eigenvalues --    0.37023   0.44739   0.50399   0.56576   0.62270
 Alpha virt. eigenvalues --    0.65028   0.81718   0.94308   0.95503   1.05063

 Mulliken charges:
               1
     1  O   -0.420568
     2  H    0.222925
     3  H    0.197642
 Sum of Mulliken charges =   0.00000

 Dipole moment (field-independent basis, Debye):
    X=             -0.0253    Y=             -1.9508    Z=              0.0000  Tot=              1.9510
 Quadrupole moment (field-independent basis, Debye-Ang):
   XX=             -4.4071   YY=             -6.2930   ZZ=             -7.5383
   XY=             -0.1287   XZ=              0.0000   YZ=              0.0000

 1\1\GINC-NODE06\SP\RB2PLYPD3-FC\def2QZVP\H2O1\BOITTIER\26-Aug-2020\0\\
 #p B2PLYPD3/Def2QZVP\\h2o\\0,1\O,0,-5.326605,-0.762508,0.922166\H,0,-4
 .368927,-0.703004,0.894446\H,0,-5.609308,0.087174,0.755953\\Version=ES
 64L-G09RevD.01\State=1-A'\HF=-76.3333661\MP2=-76.4226155\RMSD=5.607e-0
 9\PG=CS [SG(H2O1)]\\@

                                                                                    A

 Normal termination of Gaussian 09 at Wed Aug 26 08:30:00 2020.
