 Gaussian 09, Revision D.01,
 Gaussian 09:  ES64L-G09RevD.01 24-Apr-2013

 --------------------
 #p B2PLYPD3/Def2QZVP
 --------------------

 ---
 h2o
 ---
 Symbolic Z-matrix:
 Charge =  0 Multiplicity = 1

                         Standard orientation:
 ---------------------------------------------------------------------
 Center     Atomic      Atomic             Coordinates (Angstroms)
 Number     Number       Type             X           Y           Z
 ---------------------------------------------------------------------
      1          8           0        0.000000    0.117469    0.000000
      2          1           0        0.766432   -0.458944    0.000000
      3          1           0       -0.766432   -0.480806    0.000000
 ---------------------------------------------------------------------

 SCF Done:  E(RB2PLYPD3) =  -76.3347362588     A.U. after   10 cycles
 E2(B2PLYPD3) =    -0.9020903221D-01 E(B2PLYPD3) =    -0.76424945290993D+02

 The electronic state is 1-A'.
 Alpha  occ. eigenvalues --  -19.73222  -1.15326  -0.61039  -0.47289  -0.39897
 Alpha virt. eigenvalues --    0.04465   0.10135   0.27551   0.30430   0.30881
 Alpha virt. eigenvalues --    0.35537   0.43782   0.50275   0.56108   0.62254
 Alpha virt. eigenvalues --    0.65794   0.80951   0.93573   0.96083   1.03419

 Mulliken charges:
               1
     1  O   -0.449310
     2  H    0.221803
     3  H    0.227507
 Sum of Mulliken charges =   0.00000

 Dipole moment (field-independent basis, Debye):
    X=              0.0067    Y=             -1.9592    Z=              0.0000  Tot=              1.9592
 Quadrupole moment (field-independent basis, Debye-Ang):
   XX=             -4.3040   YY=             -6.3422   ZZ=             -7.6100
   XY=              0.0363   XZ=              0.0000   YZ=              0.0000

 1\1\GINC-NODE12\SP\RB2PLYPD3-FC\def2QZVP\H2O1\BOITTIER\26-Aug-2020\0\\
 #p B2PLYPD3/Def2QZVP\\h2o\\0,1\O,0,-5.326605,-0.765119,0.916972\H,0,-4
 .368927,-0.729327,0.952213\H,0,-5.609308,0.15527,0.781644\\Version=ES6
 4L-G09RevD.01\State=1-A'\HF=-76.3347363\MP2=-76.4249453\RMSD=4.058e-09
 \PG=CS [SG(H2O1)]\\@

 ALL MY ATTEMPTS TO ADAPT THE THEORETICAL FOUNDATIONS OF PHYSICS

 Normal termination of Gaussian 09 at Wed Aug 26 09:28:38 2020.
