 Gaussian 09, Revision D.01,
 Gaussian 09:  ES64L-G09RevD.01 24-Apr-2013

 --------------------
 #p B2PLYPD3/Def2QZVP
 --------------------

 ---
 h2o
 ---
 Symbolic Z-matrix:
 Charge =  0 Multiplicity = 1

                         Standard orientation:
 ---------------------------------------------------------------------
 Center     Atomic      Atomic             Coordinates (Angstroms)
 Number     Number       Type             X           Y           Z
 ---------------------------------------------------------------------
      1          8           0        0.000000    0.112985    0.000000
      2          1           0        0.721189   -0.522652    0.000000
      3          1           0       -0.721189   -0.381227    0.000000
 ---------------------------------------------------------------------

 SCF Done:  E(RB2PLYPD3) =  -76.3279347582     A.U. after   10 cycles
 E2(B2PLYPD3) =    -0.8869875659D-01 E(B2PLYPD3) =    -0.76416633514786D+02

 The electronic state is 1-A'.
 Alpha  occ. eigenvalues --  -19.72430  -1.17941  -0.63120  -0.48081  -0.40355
 Alpha virt. eigenvalues --    0.04874   0.10588   0.27190   0.30300   0.31378
 Alpha virt. eigenvalues --    0.37764   0.45444   0.50542   0.56738   0.62396
 Alpha virt. eigenvalues --    0.64561   0.82063   0.94247   0.95371   1.05448

 Mulliken charges:
               1
     1  O   -0.398390
     2  H    0.224309
     3  H    0.174081
 Sum of Mulliken charges =   0.00000

 Dipole moment (field-independent basis, Debye):
    X=             -0.0450    Y=             -1.9404    Z=              0.0000  Tot=              1.9409
 Quadrupole moment (field-independent basis, Debye-Ang):
   XX=             -4.4561   YY=             -6.2619   ZZ=             -7.4957
   XY=             -0.2239   XZ=              0.0000   YZ=              0.0000

 1\1\GINC-NODE26\SP\RB2PLYPD3-FC\def2QZVP\H2O1\BOITTIER\26-Aug-2020\0\\
 #p B2PLYPD3/Def2QZVP\\h2o\\0,1\O,0,-5.326605,-0.760982,0.922959\H,0,-4
 .368927,-0.690114,0.878493\H,0,-5.609308,0.049865,0.75875\\Version=ES6
 4L-G09RevD.01\State=1-A'\HF=-76.3279348\MP2=-76.4166335\RMSD=6.748e-09
 \PG=CS [SG(H2O1)]\\@

 "MATHEMATICS IS THE ART OF GIVING THE SAME NAME

 Normal termination of Gaussian 09 at Wed Aug 26 08:46:42 2020.
