 Gaussian 09, Revision D.01,
 Gaussian 09:  ES64L-G09RevD.01 24-Apr-2013

 --------------------
 #p B2PLYPD3/Def2QZVP
 --------------------

 ---
 h2o
 ---
 Symbolic Z-matrix:
 Charge =  0 Multiplicity = 1

                         Standard orientation:
 ---------------------------------------------------------------------
 Center     Atomic      Atomic             Coordinates (Angstroms)
 Number     Number       Type             X           Y           Z
 ---------------------------------------------------------------------
      1          8           0        0.000000    0.115908    0.000000
      2          1           0        0.713425   -0.537400    0.000000
      3          1           0       -0.713425   -0.389863    0.000000
 ---------------------------------------------------------------------

 SCF Done:  E(RB2PLYPD3) =  -76.3274400277     A.U. after   10 cycles
 E2(B2PLYPD3) =    -0.8885423488D-01 E(B2PLYPD3) =    -0.76416294262581D+02

 The electronic state is 1-A'.
 Alpha  occ. eigenvalues --  -19.72553  -1.17963  -0.62567  -0.48418  -0.40373
 Alpha virt. eigenvalues --    0.04785   0.10605   0.27230   0.30305   0.31130
 Alpha virt. eigenvalues --    0.37931   0.45415   0.50180   0.56985   0.61810
 Alpha virt. eigenvalues --    0.64651   0.82014   0.94305   0.95407   1.04987

 Mulliken charges:
               1
     1  O   -0.397277
     2  H    0.224790
     3  H    0.172487
 Sum of Mulliken charges =   0.00000

 Dipole moment (field-independent basis, Debye):
    X=             -0.0499    Y=             -1.9726    Z=              0.0000  Tot=              1.9732
 Quadrupole moment (field-independent basis, Debye-Ang):
   XX=             -4.5307   YY=             -6.2063   ZZ=             -7.4996
   XY=             -0.2270   XZ=              0.0000   YZ=              0.0000

 1\1\GINC-NODE03\SP\RB2PLYPD3-FC\def2QZVP\H2O1\BOITTIER\26-Aug-2020\0\\
 #p B2PLYPD3/Def2QZVP\\h2o\\0,1\O,0,-5.326605,-0.76098,0.929868\H,0,-4.
 368927,-0.675381,0.823514\H,0,-5.609308,0.035103,0.703793\\Version=ES6
 4L-G09RevD.01\State=1-A'\HF=-76.32744\MP2=-76.4162943\RMSD=6.741e-09\P
 G=CS [SG(H2O1)]\\@

 THE ENLIGHTENED ONE, BECAUSE HE SAW MANKIND DROWNING

 Normal termination of Gaussian 09 at Wed Aug 26 09:21:52 2020.
