 Gaussian 09, Revision D.01,
 Gaussian 09:  ES64L-G09RevD.01 24-Apr-2013

 --------------------
 #p B2PLYPD3/Def2QZVP
 --------------------

 ---
 h2o
 ---
 Symbolic Z-matrix:
 Charge =  0 Multiplicity = 1

                         Standard orientation:
 ---------------------------------------------------------------------
 Center     Atomic      Atomic             Coordinates (Angstroms)
 Number     Number       Type             X           Y           Z
 ---------------------------------------------------------------------
      1          8           0        0.000000    0.112989    0.000000
      2          1           0        0.766258   -0.462958    0.000000
      3          1           0       -0.766258   -0.440951    0.000000
 ---------------------------------------------------------------------

 SCF Done:  E(RB2PLYPD3) =  -76.3351453202     A.U. after   10 cycles
 E2(B2PLYPD3) =    -0.8970751394D-01 E(B2PLYPD3) =    -0.76424852834110D+02

 The electronic state is 1-A'.
 Alpha  occ. eigenvalues --  -19.72917  -1.15816  -0.62055  -0.47068  -0.39961
 Alpha virt. eigenvalues --    0.04655   0.10226   0.27431   0.30403   0.31358
 Alpha virt. eigenvalues --    0.35766   0.44156   0.50820   0.55959   0.63008
 Alpha virt. eigenvalues --    0.65409   0.81154   0.93788   0.95868   1.04873

 Mulliken charges:
               1
     1  O   -0.443187
     2  H    0.224661
     3  H    0.218526
 Sum of Mulliken charges =   0.00000

 Dipole moment (field-independent basis, Debye):
    X=             -0.0063    Y=             -1.9164    Z=              0.0000  Tot=              1.9165
 Quadrupole moment (field-independent basis, Debye-Ang):
   XX=             -4.2437   YY=             -6.3959   ZZ=             -7.5830
   XY=             -0.0374   XZ=              0.0000   YZ=              0.0000

 1\1\GINC-NODE22\SP\RB2PLYPD3-FC\def2QZVP\H2O1\BOITTIER\26-Aug-2020\0\\
 #p B2PLYPD3/Def2QZVP\\h2o\\0,1\O,0,-5.326605,-0.762249,0.914376\H,0,-4
 .368927,-0.755023,0.955207\H,0,-5.609308,0.135054,0.819892\\Version=ES
 64L-G09RevD.01\State=1-A'\HF=-76.3351453\MP2=-76.4248528\RMSD=4.039e-0
 9\PG=CS [SG(H2O1)]\\@

 IF YOU GET CONFUSED, LOGIC OUT YOUR DILEMMA

 Normal termination of Gaussian 09 at Wed Aug 26 08:29:53 2020.
