 Gaussian 09, Revision D.01,
 Gaussian 09:  ES64L-G09RevD.01 24-Apr-2013

 --------------------
 #p B2PLYPD3/Def2QZVP
 --------------------

 ---
 h2o
 ---
 Symbolic Z-matrix:
 Charge =  0 Multiplicity = 1

                         Standard orientation:
 ---------------------------------------------------------------------
 Center     Atomic      Atomic             Coordinates (Angstroms)
 Number     Number       Type             X           Y           Z
 ---------------------------------------------------------------------
      1          8           0        0.000000    0.125497    0.000000
      2          1           0        0.751870   -0.480139    0.000000
      3          1           0       -0.751870   -0.523841    0.000000
 ---------------------------------------------------------------------

 SCF Done:  E(RB2PLYPD3) =  -76.3328569451     A.U. after   10 cycles
 E2(B2PLYPD3) =    -0.9083555917D-01 E(B2PLYPD3) =    -0.76423692504254D+02

 The electronic state is 1-A'.
 Alpha  occ. eigenvalues --  -19.73632  -1.15040  -0.59552  -0.48006  -0.39904
 Alpha virt. eigenvalues --    0.04206   0.10077   0.27728   0.30100   0.30443
 Alpha virt. eigenvalues --    0.35653   0.43453   0.49349   0.56647   0.60775
 Alpha virt. eigenvalues --    0.66220   0.80859   0.93653   0.96309   1.01585

 Mulliken charges:
               1
     1  O   -0.448360
     2  H    0.218779
     3  H    0.229581
 Sum of Mulliken charges =   0.00000

 Dipole moment (field-independent basis, Debye):
    X=              0.0156    Y=             -2.0414    Z=              0.0000  Tot=              2.0414
 Quadrupole moment (field-independent basis, Debye-Ang):
   XX=             -4.4872   YY=             -6.2037   ZZ=             -7.6323
   XY=              0.0679   XZ=              0.0000   YZ=              0.0000

 1\1\GINC-NODE09\SP\RB2PLYPD3-FC\def2QZVP\H2O1\BOITTIER\26-Aug-2020\0\\
 #p B2PLYPD3/Def2QZVP\\h2o\\0,1\O,0,-5.326605,-0.766889,0.932512\H,0,-4
 .368927,-0.687477,0.839507\H,0,-5.609308,0.141746,0.647188\\Version=ES
 64L-G09RevD.01\State=1-A'\HF=-76.3328569\MP2=-76.4236925\RMSD=4.572e-0
 9\PG=CS [SG(H2O1)]\\@

 THE THINKER DIES, BUT HIS THOUGHTS ARE BEYOND THE

 Normal termination of Gaussian 09 at Wed Aug 26 09:24:02 2020.
