 Gaussian 09, Revision D.01,
 Gaussian 09:  ES64L-G09RevD.01 24-Apr-2013

 --------------------
 #p B2PLYPD3/Def2QZVP
 --------------------

 ---
 h2o
 ---
 Symbolic Z-matrix:
 Charge =  0 Multiplicity = 1

                         Standard orientation:
 ---------------------------------------------------------------------
 Center     Atomic      Atomic             Coordinates (Angstroms)
 Number     Number       Type             X           Y           Z
 ---------------------------------------------------------------------
      1          8           0        0.000000    0.118898    0.000000
      2          1           0        0.764645   -0.459219    0.000000
      3          1           0       -0.764645   -0.491967    0.000000
 ---------------------------------------------------------------------

 SCF Done:  E(RB2PLYPD3) =  -76.3344240763     A.U. after   10 cycles
 E2(B2PLYPD3) =    -0.9033245320D-01 E(B2PLYPD3) =    -0.76424756529509D+02

 The electronic state is 1-A'.
 Alpha  occ. eigenvalues --  -19.73302  -1.15247  -0.60759  -0.47398  -0.39892
 Alpha virt. eigenvalues --    0.04414   0.10120   0.27583   0.30435   0.30728
 Alpha virt. eigenvalues --    0.35541   0.43711   0.50099   0.56187   0.61996
 Alpha virt. eigenvalues --    0.65883   0.80925   0.93542   0.96131   1.03016

 Mulliken charges:
               1
     1  O   -0.449638
     2  H    0.220600
     3  H    0.229037
 Sum of Mulliken charges =   0.00000

 Dipole moment (field-independent basis, Debye):
    X=              0.0103    Y=             -1.9736    Z=              0.0000  Tot=              1.9736
 Quadrupole moment (field-independent basis, Debye-Ang):
   XX=             -4.3325   YY=             -6.3196   ZZ=             -7.6153
   XY=              0.0538   XZ=              0.0000   YZ=              0.0000

 1\1\GINC-NODE39\SP\RB2PLYPD3-FC\def2QZVP\H2O1\BOITTIER\26-Aug-2020\0\\
 #p B2PLYPD3/Def2QZVP\\h2o\\0,1\O,0,-5.326605,-0.765306,0.922183\H,0,-4
 .368927,-0.724669,0.911989\H,0,-5.609308,0.153609,0.739118\\Version=ES
 64L-G09RevD.01\State=1-A'\HF=-76.3344241\MP2=-76.4247565\RMSD=4.211e-0
 9\PG=CS [SG(H2O1)]\\@

 YOU KNOW YOU'RE A TEACHER WHEN YOU SAY 2, WRITE 3, AND MEAN 4.

 Normal termination of Gaussian 09 at Wed Aug 26 09:38:35 2020.
