 Gaussian 09, Revision D.01,
 Gaussian 09:  ES64L-G09RevD.01 24-Apr-2013

 --------------------
 #p B2PLYPD3/Def2QZVP
 --------------------

 ---
 h2o
 ---
 Symbolic Z-matrix:
 Charge =  0 Multiplicity = 1

                         Standard orientation:
 ---------------------------------------------------------------------
 Center     Atomic      Atomic             Coordinates (Angstroms)
 Number     Number       Type             X           Y           Z
 ---------------------------------------------------------------------
      1          8           0        0.000000    0.113009    0.000000
      2          1           0        0.766073   -0.462921    0.000000
      3          1           0       -0.766073   -0.441148    0.000000
 ---------------------------------------------------------------------

 SCF Done:  E(RB2PLYPD3) =  -76.3351498450     A.U. after   10 cycles
 E2(B2PLYPD3) =    -0.8970516531D-01 E(B2PLYPD3) =    -0.76424855010318D+02

 The electronic state is 1-A'.
 Alpha  occ. eigenvalues --  -19.72917  -1.15822  -0.62055  -0.47074  -0.39963
 Alpha virt. eigenvalues --    0.04656   0.10227   0.27430   0.30402   0.31358
 Alpha virt. eigenvalues --    0.35774   0.44159   0.50816   0.55963   0.63001
 Alpha virt. eigenvalues --    0.65407   0.81159   0.93793   0.95865   1.04876

 Mulliken charges:
               1
     1  O   -0.443061
     2  H    0.224567
     3  H    0.218494
 Sum of Mulliken charges =   0.00000

 Dipole moment (field-independent basis, Debye):
    X=             -0.0062    Y=             -1.9167    Z=              0.0000  Tot=              1.9168
 Quadrupole moment (field-independent basis, Debye-Ang):
   XX=             -4.2449   YY=             -6.3952   ZZ=             -7.5828
   XY=             -0.0370   XZ=              0.0000   YZ=              0.0000

 1\1\GINC-NODE35\SP\RB2PLYPD3-FC\def2QZVP\H2O1\BOITTIER\26-Aug-2020\0\\
 #p B2PLYPD3/Def2QZVP\\h2o\\0,1\O,0,-5.326605,-0.762236,0.914807\H,0,-4
 .368927,-0.75482,0.951706\H,0,-5.609308,0.134638,0.816554\\Version=ES6
 4L-G09RevD.01\State=1-A'\HF=-76.3351498\MP2=-76.424855\RMSD=4.039e-09\
 PG=CS [SG(H2O1)]\\@

 THE PROGRESS OF RIVERS TO THE SEA IS NOT AS RAPID

 Normal termination of Gaussian 09 at Wed Aug 26 10:22:29 2020.
