 Gaussian 09, Revision D.01,
 Gaussian 09:  ES64L-G09RevD.01 24-Apr-2013

 --------------------
 #p B2PLYPD3/Def2QZVP
 --------------------

 ---
 h2o
 ---
 Symbolic Z-matrix:
 Charge =  0 Multiplicity = 1

                         Standard orientation:
 ---------------------------------------------------------------------
 Center     Atomic      Atomic             Coordinates (Angstroms)
 Number     Number       Type             X           Y           Z
 ---------------------------------------------------------------------
      1          8           0        0.000000    0.117054    0.000000
      2          1           0        0.770300   -0.453945    0.000000
      3          1           0       -0.770300   -0.482487    0.000000
 ---------------------------------------------------------------------

 SCF Done:  E(RB2PLYPD3) =  -76.3345582213     A.U. after   10 cycles
 E2(B2PLYPD3) =    -0.9025580215D-01 E(B2PLYPD3) =    -0.76424814023417D+02

 The electronic state is 1-A'.
 Alpha  occ. eigenvalues --  -19.73230  -1.15209  -0.61042  -0.47174  -0.39870
 Alpha virt. eigenvalues --    0.04451   0.10110   0.27553   0.30437   0.30883
 Alpha virt. eigenvalues --    0.35381   0.43732   0.50351   0.56012   0.62382
 Alpha virt. eigenvalues --    0.65828   0.80867   0.93460   0.96132   1.03366

 Mulliken charges:
               1
     1  O   -0.451706
     2  H    0.222181
     3  H    0.229525
 Sum of Mulliken charges =   0.00000

 Dipole moment (field-independent basis, Debye):
    X=              0.0086    Y=             -1.9529    Z=              0.0000  Tot=              1.9530
 Quadrupole moment (field-independent basis, Debye-Ang):
   XX=             -4.2793   YY=             -6.3571   ZZ=             -7.6151
   XY=              0.0478   XZ=              0.0000   YZ=              0.0000

 1\1\GINC-NODE24\SP\RB2PLYPD3-FC\def2QZVP\H2O1\BOITTIER\26-Aug-2020\0\\
 #p B2PLYPD3/Def2QZVP\\h2o\\0,1\O,0,-5.326605,-0.764895,0.91638\H,0,-4.
 368927,-0.73814,0.955616\H,0,-5.609308,0.160501,0.787797\\Version=ES64
 L-G09RevD.01\State=1-A'\HF=-76.3345582\MP2=-76.424814\RMSD=4.077e-09\P
 G=CS [SG(H2O1)]\\@

 ... A MOLECULAR SYSTEM ... (PASSES) ... FROM ONE STATE OF EQUILIBRIUM

 Normal termination of Gaussian 09 at Wed Aug 26 12:33:48 2020.
