 Gaussian 09, Revision D.01,
 Gaussian 09:  ES64L-G09RevD.01 24-Apr-2013

 --------------------
 #p B2PLYPD3/Def2QZVP
 --------------------

 ---
 h2o
 ---
 Symbolic Z-matrix:
 Charge =  0 Multiplicity = 1

                         Standard orientation:
 ---------------------------------------------------------------------
 Center     Atomic      Atomic             Coordinates (Angstroms)
 Number     Number       Type             X           Y           Z
 ---------------------------------------------------------------------
      1          8           0        0.000000    0.119002    0.000000
      2          1           0        0.783950   -0.432766    0.000000
      3          1           0       -0.783950   -0.519253    0.000000
 ---------------------------------------------------------------------

 SCF Done:  E(RB2PLYPD3) =  -76.3318712841     A.U. after   10 cycles
 E2(B2PLYPD3) =    -0.9082714901D-01 E(B2PLYPD3) =    -0.76422698433091D+02

 The electronic state is 1-A'.
 Alpha  occ. eigenvalues --  -19.73478  -1.14468  -0.60298  -0.46908  -0.39728
 Alpha virt. eigenvalues --    0.04217   0.09940   0.27641   0.30354   0.30477
 Alpha virt. eigenvalues --    0.34729   0.43333   0.50222   0.55746   0.62295
 Alpha virt. eigenvalues --    0.66215   0.80365   0.92677   0.96475   1.01982

 Mulliken charges:
               1
     1  O   -0.462976
     2  H    0.221414
     3  H    0.241562
 Sum of Mulliken charges =   0.00000

 Dipole moment (field-independent basis, Debye):
    X=              0.0260    Y=             -1.9623    Z=              0.0000  Tot=              1.9625
 Quadrupole moment (field-independent basis, Debye-Ang):
   XX=             -4.2382   YY=             -6.3636   ZZ=             -7.6538
   XY=              0.1462   XZ=              0.0000   YZ=              0.0000

 1\1\GINC-NODE18\SP\RB2PLYPD3-FC\def2QZVP\H2O1\BOITTIER\26-Aug-2020\0\\
 #p B2PLYPD3/Def2QZVP\\h2o\\0,1\O,0,-5.326605,-0.766153,0.917102\H,0,-4
 .368927,-0.751426,0.957873\H,0,-5.609308,0.19391,0.774603\\Version=ES6
 4L-G09RevD.01\State=1-A'\HF=-76.3318713\MP2=-76.4226984\RMSD=5.019e-09
 \PG=CS [SG(H2O1)]\\@

 DO NOT LET SELFISH MEN OR GREEDY INTERESTS SKIN YOUR COUNTRY OF ITS

 Normal termination of Gaussian 09 at Wed Aug 26 12:24:05 2020.
