 Gaussian 09, Revision D.01,
 Gaussian 09:  ES64L-G09RevD.01 24-Apr-2013

 --------------------
 #p B2PLYPD3/Def2QZVP
 --------------------

 ---
 h2o
 ---
 Symbolic Z-matrix:
 Charge =  0 Multiplicity = 1

                         Standard orientation:
 ---------------------------------------------------------------------
 Center     Atomic      Atomic             Coordinates (Angstroms)
 Number     Number       Type             X           Y           Z
 ---------------------------------------------------------------------
      1          8           0        0.000000    0.120514    0.000000
      2          1           0        0.719955   -0.524501    0.000000
      3          1           0       -0.719955   -0.439614    0.000000
 ---------------------------------------------------------------------

 SCF Done:  E(RB2PLYPD3) =  -76.3325212674     A.U. after   10 cycles
 E2(B2PLYPD3) =    -0.8950773398D-01 E(B2PLYPD3) =    -0.76422029001380D+02

 The electronic state is 1-A'.
 Alpha  occ. eigenvalues --  -19.72971  -1.17026  -0.61311  -0.48556  -0.40243
 Alpha virt. eigenvalues --    0.04612   0.10474   0.27432   0.30349   0.30850
 Alpha virt. eigenvalues --    0.37445   0.44669   0.49737   0.57126   0.61102
 Alpha virt. eigenvalues --    0.65183   0.81700   0.94616   0.95543   1.04189

 Mulliken charges:
               1
     1  O   -0.416168
     2  H    0.221567
     3  H    0.194601
 Sum of Mulliken charges =   0.00000

 Dipole moment (field-independent basis, Debye):
    X=             -0.0303    Y=             -2.0137    Z=              0.0000  Tot=              2.0140
 Quadrupole moment (field-independent basis, Debye-Ang):
   XX=             -4.5661   YY=             -6.1792   ZZ=             -7.5409
   XY=             -0.1285   XZ=              0.0000   YZ=              0.0000

 1\1\GINC-NODE24\SP\RB2PLYPD3-FC\def2QZVP\H2O1\BOITTIER\26-Aug-2020\0\\
 #p B2PLYPD3/Def2QZVP\\h2o\\0,1\O,0,-5.326605,-0.76562,0.925552\H,0,-4.
 368927,-0.64036,0.886278\H,0,-5.609308,0.074321,0.709551\\Version=ES64
 L-G09RevD.01\State=1-A'\HF=-76.3325213\MP2=-76.422029\RMSD=5.898e-09\P
 G=CS [SG(H2O1)]\\@

 IF IT HAPPENS, IT MUST BE POSSIBLE.

 Normal termination of Gaussian 09 at Wed Aug 26 08:40:18 2020.
