 Gaussian 09, Revision D.01,
 Gaussian 09:  ES64L-G09RevD.01 24-Apr-2013

 --------------------
 #p B2PLYPD3/Def2QZVP
 --------------------

 ---
 h2o
 ---
 Symbolic Z-matrix:
 Charge =  0 Multiplicity = 1

                         Standard orientation:
 ---------------------------------------------------------------------
 Center     Atomic      Atomic             Coordinates (Angstroms)
 Number     Number       Type             X           Y           Z
 ---------------------------------------------------------------------
      1          8           0        0.000000    0.117085    0.000000
      2          1           0        0.749786   -0.481656    0.000000
      3          1           0       -0.749786   -0.455027    0.000000
 ---------------------------------------------------------------------

 SCF Done:  E(RB2PLYPD3) =  -76.3350909162     A.U. after   10 cycles
 E2(B2PLYPD3) =    -0.8977081530D-01 E(B2PLYPD3) =    -0.76424861731453D+02

 The electronic state is 1-A'.
 Alpha  occ. eigenvalues --  -19.73035  -1.16082  -0.61503  -0.47677  -0.40045
 Alpha virt. eigenvalues --    0.04603   0.10289   0.27474   0.30391   0.31064
 Alpha virt. eigenvalues --    0.36339   0.44196   0.50216   0.56441   0.62067
 Alpha virt. eigenvalues --    0.65457   0.81369   0.94093   0.95771   1.04244

 Mulliken charges:
               1
     1  O   -0.435711
     2  H    0.221666
     3  H    0.214045
 Sum of Mulliken charges =   0.00000

 Dipole moment (field-independent basis, Debye):
    X=             -0.0085    Y=             -1.9653    Z=              0.0000  Tot=              1.9653
 Quadrupole moment (field-independent basis, Debye-Ang):
   XX=             -4.3793   YY=             -6.3032   ZZ=             -7.5754
   XY=             -0.0431   XZ=              0.0000   YZ=              0.0000

 1\1\GINC-NODE37\SP\RB2PLYPD3-FC\def2QZVP\H2O1\BOITTIER\26-Aug-2020\0\\
 #p B2PLYPD3/Def2QZVP\\h2o\\0,1\O,0,-5.326605,-0.764502,0.919661\H,0,-4
 .368927,-0.705578,0.926769\H,0,-5.609308,0.121653,0.763777\\Version=ES
 64L-G09RevD.01\State=1-A'\HF=-76.3350909\MP2=-76.4248617\RMSD=4.353e-0
 9\PG=CS [SG(H2O1)]\\@

 The cat could very well be man's best friend

 Normal termination of Gaussian 09 at Wed Aug 26 12:18:45 2020.
