 Gaussian 09, Revision D.01,
 Gaussian 09:  ES64L-G09RevD.01 24-Apr-2013

 --------------------
 #p B2PLYPD3/Def2QZVP
 --------------------

 ---
 h2o
 ---
 Symbolic Z-matrix:
 Charge =  0 Multiplicity = 1

                         Standard orientation:
 ---------------------------------------------------------------------
 Center     Atomic      Atomic             Coordinates (Angstroms)
 Number     Number       Type             X           Y           Z
 ---------------------------------------------------------------------
      1          8           0        0.000000    0.114601    0.000000
      2          1           0        0.773716   -0.449850    0.000000
      3          1           0       -0.773716   -0.466959    0.000000
 ---------------------------------------------------------------------

 SCF Done:  E(RB2PLYPD3) =  -76.3348523713     A.U. after   10 cycles
 E2(B2PLYPD3) =    -0.9006375442D-01 E(B2PLYPD3) =    -0.76424916125699D+02

 The electronic state is 1-A'.
 Alpha  occ. eigenvalues --  -19.73099  -1.15324  -0.61507  -0.46972  -0.39874
 Alpha virt. eigenvalues --    0.04530   0.10130   0.27501   0.30430   0.31131
 Alpha virt. eigenvalues --    0.35340   0.43849   0.50677   0.55864   0.62843
 Alpha virt. eigenvalues --    0.65684   0.80881   0.93496   0.96079   1.04041

 Mulliken charges:
               1
     1  O   -0.451455
     2  H    0.223486
     3  H    0.227970
 Sum of Mulliken charges =   0.00000

 Dipole moment (field-independent basis, Debye):
    X=              0.0049    Y=             -1.9276    Z=              0.0000  Tot=              1.9276
 Quadrupole moment (field-independent basis, Debye-Ang):
   XX=             -4.2288   YY=             -6.3963   ZZ=             -7.6073
   XY=              0.0291   XZ=              0.0000   YZ=              0.0000

 1\1\GINC-NODE17\SP\RB2PLYPD3-FC\def2QZVP\H2O1\BOITTIER\26-Aug-2020\0\\
 #p B2PLYPD3/Def2QZVP\\h2o\\0,1\O,0,-5.326605,-0.762978,0.918397\H,0,-4
 .368927,-0.761178,0.927928\H,0,-5.609308,0.152868,0.78366\\Version=ES6
 4L-G09RevD.01\State=1-A'\HF=-76.3348524\MP2=-76.4249161\RMSD=3.902e-09
 \PG=CS [SG(H2O1)]\\@

 AND ALL THIS SCIENCE I DON'T UNDERSTAND

 Normal termination of Gaussian 09 at Wed Aug 26 10:37:03 2020.
