 Gaussian 09, Revision D.01,
 Gaussian 09:  ES64L-G09RevD.01 24-Apr-2013

 --------------------
 #p B2PLYPD3/Def2QZVP
 --------------------

 ---
 h2o
 ---
 Symbolic Z-matrix:
 Charge =  0 Multiplicity = 1

                         Standard orientation:
 ---------------------------------------------------------------------
 Center     Atomic      Atomic             Coordinates (Angstroms)
 Number     Number       Type             X           Y           Z
 ---------------------------------------------------------------------
      1          8           0        0.000000    0.119427    0.000000
      2          1           0        0.756156   -0.471539    0.000000
      3          1           0       -0.756156   -0.483879    0.000000
 ---------------------------------------------------------------------

 SCF Done:  E(RB2PLYPD3) =  -76.3348283599     A.U. after   10 cycles
 E2(B2PLYPD3) =    -0.9019098354D-01 E(B2PLYPD3) =    -0.76425019343464D+02

 The electronic state is 1-A'.
 Alpha  occ. eigenvalues --  -19.73259  -1.15542  -0.60826  -0.47636  -0.39956
 Alpha virt. eigenvalues --    0.04459   0.10184   0.27567   0.30419   0.30771
 Alpha virt. eigenvalues --    0.35896   0.43846   0.49991   0.56389   0.61779
 Alpha virt. eigenvalues --    0.65779   0.81106   0.93827   0.96009   1.03254

 Mulliken charges:
               1
     1  O   -0.444107
     2  H    0.220406
     3  H    0.223701
 Sum of Mulliken charges =   0.00000

 Dipole moment (field-independent basis, Debye):
    X=              0.0040    Y=             -1.9836    Z=              0.0000  Tot=              1.9836
 Quadrupole moment (field-independent basis, Debye-Ang):
   XX=             -4.3811   YY=             -6.2917   ZZ=             -7.6021
   XY=              0.0199   XZ=              0.0000   YZ=              0.0000

 1\1\GINC-NODE33\SP\RB2PLYPD3-FC\def2QZVP\H2O1\BOITTIER\26-Aug-2020\0\\
 #p B2PLYPD3/Def2QZVP\\h2o\\0,1\O,0,-5.326605,-0.765224,0.924207\H,0,-4
 .368927,-0.710202,0.895261\H,0,-5.609308,0.137829,0.723399\\Version=ES
 64L-G09RevD.01\State=1-A'\HF=-76.3348284\MP2=-76.4250193\RMSD=4.167e-0
 9\PG=CS [SG(H2O1)]\\@

 MAN IS THE MEASURE OF ALL THINGS.

 Normal termination of Gaussian 09 at Wed Aug 26 10:45:17 2020.
