 Gaussian 09, Revision D.01,
 Gaussian 09:  ES64L-G09RevD.01 24-Apr-2013

 --------------------
 #p B2PLYPD3/Def2QZVP
 --------------------

 ---
 h2o
 ---
 Symbolic Z-matrix:
 Charge =  0 Multiplicity = 1

                         Standard orientation:
 ---------------------------------------------------------------------
 Center     Atomic      Atomic             Coordinates (Angstroms)
 Number     Number       Type             X           Y           Z
 ---------------------------------------------------------------------
      1          8           0        0.000000    0.117254    0.000000
      2          1           0        0.761169   -0.465493    0.000000
      3          1           0       -0.761169   -0.472538    0.000000
 ---------------------------------------------------------------------

 SCF Done:  E(RB2PLYPD3) =  -76.3350522989     A.U. after   10 cycles
 E2(B2PLYPD3) =    -0.9005756916D-01 E(B2PLYPD3) =    -0.76425109868097D+02

 The electronic state is 1-A'.
 Alpha  occ. eigenvalues --  -19.73158  -1.15571  -0.61208  -0.47409  -0.39945
 Alpha virt. eigenvalues --    0.04517   0.10187   0.27525   0.30418   0.30962
 Alpha virt. eigenvalues --    0.35793   0.43915   0.50265   0.56214   0.62208
 Alpha virt. eigenvalues --    0.65681   0.81097   0.93762   0.95977   1.03738

 Mulliken charges:
               1
     1  O   -0.445047
     2  H    0.221576
     3  H    0.223471
 Sum of Mulliken charges =   0.00000

 Dipole moment (field-independent basis, Debye):
    X=              0.0022    Y=             -1.9603    Z=              0.0000  Tot=              1.9603
 Quadrupole moment (field-independent basis, Debye-Ang):
   XX=             -4.3268   YY=             -6.3314   ZZ=             -7.5985
   XY=              0.0116   XZ=              0.0000   YZ=              0.0000

 1\1\GINC-NODE15\SP\RB2PLYPD3-FC\def2QZVP\H2O1\BOITTIER\26-Aug-2020\0\\
 #p B2PLYPD3/Def2QZVP\\h2o\\0,1\O,0,-5.326605,-0.764693,0.919187\H,0,-4
 .368927,-0.723928,0.93193\H,0,-5.609308,0.143065,0.766587\\Version=ES6
 4L-G09RevD.01\State=1-A'\HF=-76.3350523\MP2=-76.4251099\RMSD=4.037e-09
 \PG=CS [SG(H2O1)]\\@

 A leading authority is anyone who has guessed right more than once.

 Normal termination of Gaussian 09 at Wed Aug 26 09:59:10 2020.
