 Gaussian 09, Revision D.01,
 Gaussian 09:  ES64L-G09RevD.01 24-Apr-2013

 --------------------
 #p B2PLYPD3/Def2QZVP
 --------------------

 ---
 h2o
 ---
 Symbolic Z-matrix:
 Charge =  0 Multiplicity = 1

                         Standard orientation:
 ---------------------------------------------------------------------
 Center     Atomic      Atomic             Coordinates (Angstroms)
 Number     Number       Type             X           Y           Z
 ---------------------------------------------------------------------
      1          8           0        0.000000    0.117297    0.000000
      2          1           0        0.754969   -0.475141    0.000000
      3          1           0       -0.754969   -0.463238    0.000000
 ---------------------------------------------------------------------

 SCF Done:  E(RB2PLYPD3) =  -76.3351647507     A.U. after   10 cycles
 E2(B2PLYPD3) =    -0.8991572476D-01 E(B2PLYPD3) =    -0.76425080475432D+02

 The electronic state is 1-A'.
 Alpha  occ. eigenvalues --  -19.73101  -1.15831  -0.61338  -0.47563  -0.39997
 Alpha virt. eigenvalues --    0.04560   0.10240   0.27502   0.30404   0.31009
 Alpha virt. eigenvalues --    0.36082   0.44053   0.50222   0.56344   0.62108
 Alpha virt. eigenvalues --    0.65572   0.81243   0.93948   0.95870   1.03986

 Mulliken charges:
               1
     1  O   -0.440245
     2  H    0.221775
     3  H    0.218470
 Sum of Mulliken charges =   0.00000

 Dipole moment (field-independent basis, Debye):
    X=             -0.0037    Y=             -1.9644    Z=              0.0000  Tot=              1.9644
 Quadrupole moment (field-independent basis, Debye-Ang):
   XX=             -4.3574   YY=             -6.3146   ZZ=             -7.5867
   XY=             -0.0194   XZ=              0.0000   YZ=              0.0000

 1\1\GINC-NODE27\SP\RB2PLYPD3-FC\def2QZVP\H2O1\BOITTIER\26-Aug-2020\0\\
 #p B2PLYPD3/Def2QZVP\\h2o\\0,1\O,0,-5.326605,-0.76352,0.925082\H,0,-4.
 368927,-0.723713,0.877849\H,0,-5.609308,0.124069,0.726927\\Version=ES6
 4L-G09RevD.01\State=1-A'\HF=-76.3351648\MP2=-76.4250805\RMSD=4.154e-09
 \PG=CS [SG(H2O1)]\\@

 IN THE FIGHT BETWEEN YOU AND THE WORLD, BACK THE WORLD

 Normal termination of Gaussian 09 at Wed Aug 26 10:24:32 2020.
