 Gaussian 09, Revision D.01,
 Gaussian 09:  ES64L-G09RevD.01 24-Apr-2013

 --------------------
 #p B2PLYPD3/Def2QZVP
 --------------------

 ---
 h2o
 ---
 Symbolic Z-matrix:
 Charge =  0 Multiplicity = 1

                         Standard orientation:
 ---------------------------------------------------------------------
 Center     Atomic      Atomic             Coordinates (Angstroms)
 Number     Number       Type             X           Y           Z
 ---------------------------------------------------------------------
      1          8           0        0.000000    0.109708    0.000000
      2          1           0        0.792641   -0.431725    0.000000
      3          1           0       -0.792641   -0.445936    0.000000
 ---------------------------------------------------------------------

 SCF Done:  E(RB2PLYPD3) =  -76.3341730327     A.U. after   10 cycles
 E2(B2PLYPD3) =    -0.9001642210D-01 E(B2PLYPD3) =    -0.76424189454846D+02

 The electronic state is 1-A'.
 Alpha  occ. eigenvalues --  -19.72955  -1.15020  -0.62089  -0.46271  -0.39771
 Alpha virt. eigenvalues --    0.04570   0.10057   0.27446   0.30445   0.31501
 Alpha virt. eigenvalues --    0.34638   0.43795   0.51501   0.55311   0.63973
 Alpha virt. eigenvalues --    0.65664   0.80449   0.93229   0.96279   1.04833

 Mulliken charges:
               1
     1  O   -0.461208
     2  H    0.228799
     3  H    0.232409
 Sum of Mulliken charges =   0.00000

 Dipole moment (field-independent basis, Debye):
    X=              0.0035    Y=             -1.8684    Z=              0.0000  Tot=              1.8684
 Quadrupole moment (field-independent basis, Debye-Ang):
   XX=             -4.0679   YY=             -6.5048   ZZ=             -7.6177
   XY=              0.0255   XZ=              0.0000   YZ=              0.0000

 1\1\GINC-NODE09\SP\RB2PLYPD3-FC\def2QZVP\H2O1\BOITTIER\26-Aug-2020\0\\
 #p B2PLYPD3/Def2QZVP\\h2o\\0,1\O,0,-5.326605,-0.759962,0.914275\H,0,-4
 .368927,-0.819013,0.942478\H,0,-5.609308,0.162456,0.835257\\Version=ES
 64L-G09RevD.01\State=1-A'\HF=-76.334173\MP2=-76.4241895\RMSD=3.700e-09
 \PG=CS [SG(H2O1)]\\@

 THE TRULY SUCCESSFUL PERFORMANCE OF RESEARCHES IN

 Normal termination of Gaussian 09 at Wed Aug 26 09:07:12 2020.
