 Gaussian 09, Revision D.01,
 Gaussian 09:  ES64L-G09RevD.01 24-Apr-2013

 --------------------
 #p B2PLYPD3/Def2QZVP
 --------------------

 ---
 h2o
 ---
 Symbolic Z-matrix:
 Charge =  0 Multiplicity = 1

                         Standard orientation:
 ---------------------------------------------------------------------
 Center     Atomic      Atomic             Coordinates (Angstroms)
 Number     Number       Type             X           Y           Z
 ---------------------------------------------------------------------
      1          8           0        0.000000    0.118911    0.000000
      2          1           0        0.745585   -0.486853    0.000000
      3          1           0       -0.745585   -0.464436    0.000000
 ---------------------------------------------------------------------

 SCF Done:  E(RB2PLYPD3) =  -76.3349851063     A.U. after   10 cycles
 E2(B2PLYPD3) =    -0.8988414449D-01 E(B2PLYPD3) =    -0.76424869250745D+02

 The electronic state is 1-A'.
 Alpha  occ. eigenvalues --  -19.73121  -1.16055  -0.61171  -0.47871  -0.40053
 Alpha virt. eigenvalues --    0.04554   0.10289   0.27509   0.30394   0.30914
 Alpha virt. eigenvalues --    0.36421   0.44132   0.49993   0.56592   0.61704
 Alpha virt. eigenvalues --    0.65541   0.81363   0.94166   0.95800   1.03858

 Mulliken charges:
               1
     1  O   -0.435223
     2  H    0.220799
     3  H    0.214424
 Sum of Mulliken charges =   0.00000

 Dipole moment (field-independent basis, Debye):
    X=             -0.0074    Y=             -1.9849    Z=              0.0000  Tot=              1.9850
 Quadrupole moment (field-independent basis, Debye-Ang):
   XX=             -4.4246   YY=             -6.2703   ZZ=             -7.5786
   XY=             -0.0357   XZ=              0.0000   YZ=              0.0000

 1\1\GINC-NODE13\SP\RB2PLYPD3-FC\def2QZVP\H2O1\BOITTIER\26-Aug-2020\0\\
 #p B2PLYPD3/Def2QZVP\\h2o\\0,1\O,0,-5.326605,-0.765221,0.922601\H,0,-4
 .368927,-0.69119,0.907765\H,0,-5.609308,0.118764,0.735943\\Version=ES6
 4L-G09RevD.01\State=1-A'\HF=-76.3349851\MP2=-76.4248693\RMSD=4.400e-09
 \PG=CS [SG(H2O1)]\\@

 THEORY:  SUPPOSITION WHICH HAS SCIENTIFIC BASIS,

 Normal termination of Gaussian 09 at Wed Aug 26 11:15:07 2020.
