 Gaussian 09, Revision D.01,
 Gaussian 09:  ES64L-G09RevD.01 24-Apr-2013

 --------------------
 #p B2PLYPD3/Def2QZVP
 --------------------

 ---
 h2o
 ---
 Symbolic Z-matrix:
 Charge =  0 Multiplicity = 1

                         Standard orientation:
 ---------------------------------------------------------------------
 Center     Atomic      Atomic             Coordinates (Angstroms)
 Number     Number       Type             X           Y           Z
 ---------------------------------------------------------------------
      1          8           0        0.000000    0.118198    0.000000
      2          1           0        0.779439   -0.438668    0.000000
      3          1           0       -0.779439   -0.506918    0.000000
 ---------------------------------------------------------------------

 SCF Done:  E(RB2PLYPD3) =  -76.3329950572     A.U. after   10 cycles
 E2(B2PLYPD3) =    -0.9061745667D-01 E(B2PLYPD3) =    -0.76423612513893D+02

 The electronic state is 1-A'.
 Alpha  occ. eigenvalues --  -19.73387  -1.14724  -0.60576  -0.46991  -0.39776
 Alpha virt. eigenvalues --    0.04306   0.10001   0.27609   0.30463   0.30569
 Alpha virt. eigenvalues --    0.34939   0.43471   0.50284   0.55833   0.62347
 Alpha virt. eigenvalues --    0.66077   0.80544   0.92973   0.96360   1.02464

 Mulliken charges:
               1
     1  O   -0.459285
     2  H    0.221407
     3  H    0.237879
 Sum of Mulliken charges =   0.00000

 Dipole moment (field-independent basis, Debye):
    X=              0.0205    Y=             -1.9578    Z=              0.0000  Tot=              1.9579
 Quadrupole moment (field-independent basis, Debye-Ang):
   XX=             -4.2497   YY=             -6.3640   ZZ=             -7.6401
   XY=              0.1151   XZ=              0.0000   YZ=              0.0000

 1\1\GINC-NODE30\SP\RB2PLYPD3-FC\def2QZVP\H2O1\BOITTIER\26-Aug-2020\0\\
 #p B2PLYPD3/Def2QZVP\\h2o\\0,1\O,0,-5.326605,-0.765333,0.91928\H,0,-4.
 368927,-0.750668,0.935483\H,0,-5.609308,0.180038,0.762282\\Version=ES6
 4L-G09RevD.01\State=1-A'\HF=-76.3329951\MP2=-76.4236125\RMSD=4.659e-09
 \PG=CS [SG(H2O1)]\\@

 WE HAVE LEFT UNDONE THOSE THINGS WHICH WE OUGHT TO HAVE DONE,

 Normal termination of Gaussian 09 at Wed Aug 26 08:29:45 2020.
