 Gaussian 09, Revision D.01,
 Gaussian 09:  ES64L-G09RevD.01 24-Apr-2013

 --------------------
 #p B2PLYPD3/Def2QZVP
 --------------------

 ---
 h2o
 ---
 Symbolic Z-matrix:
 Charge =  0 Multiplicity = 1

                         Standard orientation:
 ---------------------------------------------------------------------
 Center     Atomic      Atomic             Coordinates (Angstroms)
 Number     Number       Type             X           Y           Z
 ---------------------------------------------------------------------
      1          8           0        0.000000    0.120554    0.000000
      2          1           0        0.776371   -0.455479    0.000000
      3          1           0       -0.776371   -0.508956    0.000000
 ---------------------------------------------------------------------

 SCF Done:  E(RB2PLYPD3) =  -76.3327920986     A.U. after   10 cycles
 E2(B2PLYPD3) =    -0.9081298138D-01 E(B2PLYPD3) =    -0.76423605080029D+02

 The electronic state is 1-A'.
 Alpha  occ. eigenvalues --  -19.73519  -1.14596  -0.60135  -0.47184  -0.39773
 Alpha virt. eigenvalues --    0.04238   0.09973   0.27667   0.30379   0.30469
 Alpha virt. eigenvalues --    0.34926   0.43342   0.49980   0.55980   0.61908
 Alpha virt. eigenvalues --    0.66231   0.80531   0.93000   0.96397   1.02013

 Mulliken charges:
               1
     1  O   -0.459681
     2  H    0.223519
     3  H    0.236161
 Sum of Mulliken charges =   0.00000

 Dipole moment (field-independent basis, Debye):
    X=              0.0168    Y=             -1.9818    Z=              0.0000  Tot=              1.9818
 Quadrupole moment (field-independent basis, Debye-Ang):
   XX=             -4.2978   YY=             -6.3280   ZZ=             -7.6479
   XY=              0.0886   XZ=              0.0000   YZ=              0.0000

 1\1\GINC-NODE13\SP\RB2PLYPD3-FC\def2QZVP\H2O1\BOITTIER\26-Aug-2020\0\\
 #p B2PLYPD3/Def2QZVP\\h2o\\0,1\O,0,-5.326605,-0.767416,0.908496\H,0,-4
 .368927,-0.725759,1.033729\H,0,-5.609308,0.188462,0.834933\\Version=ES
 64L-G09RevD.01\State=1-A'\HF=-76.3327921\MP2=-76.4236051\RMSD=4.373e-0
 9\PG=CS [SG(H2O1)]\\@

 ADVERTISING--  HE WHO HAS SOMETHING TO SELL AND GOES AND WHISPERS

 Normal termination of Gaussian 09 at Wed Aug 26 08:58:30 2020.
