 Gaussian 09, Revision D.01,
 Gaussian 09:  ES64L-G09RevD.01 24-Apr-2013

 --------------------
 #p B2PLYPD3/Def2QZVP
 --------------------

 ---
 h2o
 ---
 Symbolic Z-matrix:
 Charge =  0 Multiplicity = 1

                         Standard orientation:
 ---------------------------------------------------------------------
 Center     Atomic      Atomic             Coordinates (Angstroms)
 Number     Number       Type             X           Y           Z
 ---------------------------------------------------------------------
      1          8           0        0.000000    0.117650    0.000000
      2          1           0        0.759855   -0.467565    0.000000
      3          1           0       -0.759855   -0.473634    0.000000
 ---------------------------------------------------------------------

 SCF Done:  E(RB2PLYPD3) =  -76.3350380925     A.U. after   10 cycles
 E2(B2PLYPD3) =    -0.9007164621D-01 E(B2PLYPD3) =    -0.76425109738671D+02

 The electronic state is 1-A'.
 Alpha  occ. eigenvalues --  -19.73173  -1.15583  -0.61148  -0.47461  -0.39951
 Alpha virt. eigenvalues --    0.04509   0.10190   0.27531   0.30417   0.30931
 Alpha virt. eigenvalues --    0.35832   0.43911   0.50211   0.56254   0.62123
 Alpha virt. eigenvalues --    0.65692   0.81109   0.93787   0.95975   1.03668

 Mulliken charges:
               1
     1  O   -0.444563
     2  H    0.221465
     3  H    0.223099
 Sum of Mulliken charges =   0.00000

 Dipole moment (field-independent basis, Debye):
    X=              0.0019    Y=             -1.9648    Z=              0.0000  Tot=              1.9648
 Quadrupole moment (field-independent basis, Debye-Ang):
   XX=             -4.3386   YY=             -6.3232   ZZ=             -7.5983
   XY=              0.0100   XZ=              0.0000   YZ=              0.0000

 1\1\GINC-NODE14\SP\RB2PLYPD3-FC\def2QZVP\H2O1\BOITTIER\26-Aug-2020\0\\
 #p B2PLYPD3/Def2QZVP\\h2o\\0,1\O,0,-5.326605,-0.765077,0.918369\H,0,-4
 .368927,-0.718083,0.940744\H,0,-5.609308,0.143364,0.770683\\Version=ES
 64L-G09RevD.01\State=1-A'\HF=-76.3350381\MP2=-76.4251097\RMSD=4.059e-0
 9\PG=CS [SG(H2O1)]\\@

 HOW IS IT THAT THE SKY FEEDS THE STARS?

 Normal termination of Gaussian 09 at Wed Aug 26 12:30:33 2020.
