 Gaussian 09, Revision D.01,
 Gaussian 09:  ES64L-G09RevD.01 24-Apr-2013

 --------------------
 #p B2PLYPD3/Def2QZVP
 --------------------

 ---
 h2o
 ---
 Symbolic Z-matrix:
 Charge =  0 Multiplicity = 1

                         Standard orientation:
 ---------------------------------------------------------------------
 Center     Atomic      Atomic             Coordinates (Angstroms)
 Number     Number       Type             X           Y           Z
 ---------------------------------------------------------------------
      1          8           0        0.000000    0.120182    0.000000
      2          1           0        0.760800   -0.465086    0.000000
      3          1           0       -0.760800   -0.496367    0.000000
 ---------------------------------------------------------------------

 SCF Done:  E(RB2PLYPD3) =  -76.3343222141     A.U. after   10 cycles
 E2(B2PLYPD3) =    -0.9039150229D-01 E(B2PLYPD3) =    -0.76424713716397D+02

 The electronic state is 1-A'.
 Alpha  occ. eigenvalues --  -19.73353  -1.15266  -0.60557  -0.47553  -0.39907
 Alpha virt. eigenvalues --    0.04387   0.10126   0.27605   0.30434   0.30626
 Alpha virt. eigenvalues --    0.35638   0.43689   0.49933   0.56309   0.61731
 Alpha virt. eigenvalues --    0.65925   0.80954   0.93612   0.96135   1.02789

 Mulliken charges:
               1
     1  O   -0.448386
     2  H    0.220164
     3  H    0.228222
 Sum of Mulliken charges =   0.00000

 Dipole moment (field-independent basis, Debye):
    X=              0.0101    Y=             -1.9878    Z=              0.0000  Tot=              1.9878
 Quadrupole moment (field-independent basis, Debye-Ang):
   XX=             -4.3691   YY=             -6.2939   ZZ=             -7.6157
   XY=              0.0507   XZ=              0.0000   YZ=              0.0000

 1\1\GINC-NODE12\SP\RB2PLYPD3-FC\def2QZVP\H2O1\BOITTIER\26-Aug-2020\0\\
 #p B2PLYPD3/Def2QZVP\\h2o\\0,1\O,0,-5.326605,-0.765295,0.925998\H,0,-4
 .368927,-0.718013,0.881586\H,0,-5.609308,0.146777,0.708851\\Version=ES
 64L-G09RevD.01\State=1-A'\HF=-76.3343222\MP2=-76.4247137\RMSD=4.257e-0
 9\PG=CS [SG(H2O1)]\\@

 STEINBACH'S GUIDELINES FOR SYSTEMS PROGRAMMING:

 Normal termination of Gaussian 09 at Wed Aug 26 08:04:31 2020.
