 Gaussian 09, Revision D.01,
 Gaussian 09:  ES64L-G09RevD.01 24-Apr-2013

 --------------------
 #p B2PLYPD3/Def2QZVP
 --------------------

 ---
 h2o
 ---
 Symbolic Z-matrix:
 Charge =  0 Multiplicity = 1

                         Standard orientation:
 ---------------------------------------------------------------------
 Center     Atomic      Atomic             Coordinates (Angstroms)
 Number     Number       Type             X           Y           Z
 ---------------------------------------------------------------------
      1          8           0        0.000000    0.121009    0.000000
      2          1           0        0.768475   -0.452498    0.000000
      3          1           0       -0.768475   -0.515575    0.000000
 ---------------------------------------------------------------------

 SCF Done:  E(RB2PLYPD3) =  -76.3330896577     A.U. after   10 cycles
 E2(B2PLYPD3) =    -0.9067900478D-01 E(B2PLYPD3) =    -0.76423768662482D+02

 The electronic state is 1-A'.
 Alpha  occ. eigenvalues --  -19.73476  -1.14871  -0.60209  -0.47389  -0.39831
 Alpha virt. eigenvalues --    0.04275   0.10036   0.27651   0.30382   0.30454
 Alpha virt. eigenvalues --    0.35260   0.43484   0.49886   0.56150   0.61730
 Alpha virt. eigenvalues --    0.66121   0.80710   0.93201   0.96319   1.02135

 Mulliken charges:
               1
     1  O   -0.454435
     2  H    0.219509
     3  H    0.234926
 Sum of Mulliken charges =   0.00000

 Dipole moment (field-independent basis, Debye):
    X=              0.0203    Y=             -1.9906    Z=              0.0000  Tot=              1.9907
 Quadrupole moment (field-independent basis, Debye-Ang):
   XX=             -4.3430   YY=             -6.3013   ZZ=             -7.6357
   XY=              0.1031   XZ=              0.0000   YZ=              0.0000

 1\1\GINC-NODE37\SP\RB2PLYPD3-FC\def2QZVP\H2O1\BOITTIER\26-Aug-2020\0\\
 #p B2PLYPD3/Def2QZVP\\h2o\\0,1\O,0,-5.326605,-0.766392,0.9239\H,0,-4.3
 68927,-0.722084,0.905114\H,0,-5.609308,0.168405,0.718897\\Version=ES64
 L-G09RevD.01\State=1-A'\HF=-76.3330897\MP2=-76.4237687\RMSD=4.631e-09\
 PG=CS [SG(H2O1)]\\@

 ONLY THE DAY DAWNS TO WHICH YOU ARE AWAKE.

 Normal termination of Gaussian 09 at Wed Aug 26 12:02:34 2020.
