 Gaussian 09, Revision D.01,
 Gaussian 09:  ES64L-G09RevD.01 24-Apr-2013

 --------------------
 #p B2PLYPD3/Def2QZVP
 --------------------

 ---
 h2o
 ---
 Symbolic Z-matrix:
 Charge =  0 Multiplicity = 1

                         Standard orientation:
 ---------------------------------------------------------------------
 Center     Atomic      Atomic             Coordinates (Angstroms)
 Number     Number       Type             X           Y           Z
 ---------------------------------------------------------------------
      1          8           0        0.000000    0.117791    0.000000
      2          1           0        0.767476   -0.456864    0.000000
      3          1           0       -0.767476   -0.485465    0.000000
 ---------------------------------------------------------------------

 SCF Done:  E(RB2PLYPD3) =  -76.3345624418     A.U. after   10 cycles
 E2(B2PLYPD3) =    -0.9027179909D-01 E(B2PLYPD3) =    -0.76424834240880D+02

 The electronic state is 1-A'.
 Alpha  occ. eigenvalues --  -19.73254  -1.15248  -0.60943  -0.47278  -0.39884
 Alpha virt. eigenvalues --    0.04441   0.10119   0.27563   0.30435   0.30828
 Alpha virt. eigenvalues --    0.35472   0.43736   0.50245   0.56095   0.62218
 Alpha virt. eigenvalues --    0.65840   0.80907   0.93513   0.96120   1.03254

 Mulliken charges:
               1
     1  O   -0.450451
     2  H    0.221533
     3  H    0.228918
 Sum of Mulliken charges =   0.00000

 Dipole moment (field-independent basis, Debye):
    X=              0.0088    Y=             -1.9616    Z=              0.0000  Tot=              1.9616
 Quadrupole moment (field-independent basis, Debye-Ang):
   XX=             -4.3033   YY=             -6.3408   ZZ=             -7.6140
   XY=              0.0475   XZ=              0.0000   YZ=              0.0000

 1\1\GINC-NODE40\SP\RB2PLYPD3-FC\def2QZVP\H2O1\BOITTIER\26-Aug-2020\0\\
 #p B2PLYPD3/Def2QZVP\\h2o\\0,1\O,0,-5.326605,-0.765254,0.917735\H,0,-4
 .368927,-0.729982,0.947014\H,0,-5.609308,0.158098,0.774776\\Version=ES
 64L-G09RevD.01\State=1-A'\HF=-76.3345624\MP2=-76.4248342\RMSD=4.118e-0
 9\PG=CS [SG(H2O1)]\\@

 IT IS WELL TO REMEMBER THAT MAN IS A PART OF NATURE AND THAT HIS WORKS,

 Normal termination of Gaussian 09 at Wed Aug 26 09:08:48 2020.
