 Gaussian 09, Revision D.01,
 Gaussian 09:  ES64L-G09RevD.01 24-Apr-2013

 --------------------
 #p B2PLYPD3/Def2QZVP
 --------------------

 ---
 h2o
 ---
 Symbolic Z-matrix:
 Charge =  0 Multiplicity = 1

                         Standard orientation:
 ---------------------------------------------------------------------
 Center     Atomic      Atomic             Coordinates (Angstroms)
 Number     Number       Type             X           Y           Z
 ---------------------------------------------------------------------
      1          8           0        0.000000    0.115179    0.000000
      2          1           0        0.730585   -0.509789    0.000000
      3          1           0       -0.730585   -0.411641    0.000000
 ---------------------------------------------------------------------

 SCF Done:  E(RB2PLYPD3) =  -76.3321702083     A.U. after   10 cycles
 E2(B2PLYPD3) =    -0.8913073037D-01 E(B2PLYPD3) =    -0.76421300938673D+02

 The electronic state is 1-A'.
 Alpha  occ. eigenvalues --  -19.72697  -1.17199  -0.62379  -0.48013  -0.40239
 Alpha virt. eigenvalues --    0.04769   0.10483   0.27318   0.30336   0.31252
 Alpha virt. eigenvalues --    0.37308   0.44917   0.50330   0.56705   0.62130
 Alpha virt. eigenvalues --    0.64921   0.81821   0.94358   0.95452   1.05074

 Mulliken charges:
               1
     1  O   -0.414319
     2  H    0.223181
     3  H    0.191138
 Sum of Mulliken charges =   0.00000

 Dipole moment (field-independent basis, Debye):
    X=             -0.0317    Y=             -1.9573    Z=              0.0000  Tot=              1.9575
 Quadrupole moment (field-independent basis, Debye-Ang):
   XX=             -4.4432   YY=             -6.2689   ZZ=             -7.5270
   XY=             -0.1559   XZ=              0.0000   YZ=              0.0000

 1\1\GINC-NODE28\SP\RB2PLYPD3-FC\def2QZVP\H2O1\BOITTIER\26-Aug-2020\0\\
 #p B2PLYPD3/Def2QZVP\\h2o\\0,1\O,0,-5.326605,-0.762171,0.924469\H,0,-4
 .368927,-0.69403,0.873979\H,0,-5.609308,0.072816,0.739619\\Version=ES6
 4L-G09RevD.01\State=1-A'\HF=-76.3321702\MP2=-76.4213009\RMSD=6.078e-09
 \PG=CS [SG(H2O1)]\\@

 QUHEN THE CAUSS IS TAKEN AWAY THE EFFECT WANISHETH.

 Normal termination of Gaussian 09 at Wed Aug 26 08:30:24 2020.
