 Gaussian 09, Revision D.01,
 Gaussian 09:  ES64L-G09RevD.01 24-Apr-2013

 --------------------
 #p B2PLYPD3/Def2QZVP
 --------------------

 ---
 h2o
 ---
 Symbolic Z-matrix:
 Charge =  0 Multiplicity = 1

                         Standard orientation:
 ---------------------------------------------------------------------
 Center     Atomic      Atomic             Coordinates (Angstroms)
 Number     Number       Type             X           Y           Z
 ---------------------------------------------------------------------
      1          8           0        0.000000    0.113364    0.000000
      2          1           0        0.769359   -0.456959    0.000000
      3          1           0       -0.769359   -0.449953    0.000000
 ---------------------------------------------------------------------

 SCF Done:  E(RB2PLYPD3) =  -76.3351545366     A.U. after   10 cycles
 E2(B2PLYPD3) =    -0.8982221724D-01 E(B2PLYPD3) =    -0.76424976753801D+02

 The electronic state is 1-A'.
 Alpha  occ. eigenvalues --  -19.72974  -1.15640  -0.61893  -0.47015  -0.39929
 Alpha virt. eigenvalues --    0.04618   0.10192   0.27453   0.30412   0.31304
 Alpha virt. eigenvalues --    0.35600   0.44049   0.50797   0.55912   0.62988
 Alpha virt. eigenvalues --    0.65500   0.81056   0.93694   0.95940   1.04661

 Mulliken charges:
               1
     1  O   -0.446356
     2  H    0.224134
     3  H    0.222222
 Sum of Mulliken charges =   0.00000

 Dipole moment (field-independent basis, Debye):
    X=             -0.0020    Y=             -1.9183    Z=              0.0000  Tot=              1.9183
 Quadrupole moment (field-independent basis, Debye-Ang):
   XX=             -4.2336   YY=             -6.3999   ZZ=             -7.5914
   XY=             -0.0119   XZ=              0.0000   YZ=              0.0000

 1\1\GINC-NODE35\SP\RB2PLYPD3-FC\def2QZVP\H2O1\BOITTIER\26-Aug-2020\0\\
 #p B2PLYPD3/Def2QZVP\\h2o\\0,1\O,0,-5.326605,-0.762139,0.918225\H,0,-4
 .368927,-0.761201,0.92406\H,0,-5.609308,0.139472,0.790097\\Version=ES6
 4L-G09RevD.01\State=1-A'\HF=-76.3351545\MP2=-76.4249768\RMSD=3.885e-09
 \PG=CS [SG(H2O1)]\\@

 SEEN ON A WALL AT THE UNIVERSITY OF ILLINOIS AT CHICAGO CIRCLE:

 Normal termination of Gaussian 09 at Wed Aug 26 07:30:00 2020.
