 Gaussian 09, Revision D.01,
 Gaussian 09:  ES64L-G09RevD.01 24-Apr-2013

 --------------------
 #p B2PLYPD3/Def2QZVP
 --------------------

 ---
 h2o
 ---
 Symbolic Z-matrix:
 Charge =  0 Multiplicity = 1

                         Standard orientation:
 ---------------------------------------------------------------------
 Center     Atomic      Atomic             Coordinates (Angstroms)
 Number     Number       Type             X           Y           Z
 ---------------------------------------------------------------------
      1          8           0        0.000000    0.116216    0.000000
      2          1           0        0.711368   -0.536692    0.000000
      3          1           0       -0.711368   -0.393036    0.000000
 ---------------------------------------------------------------------

 SCF Done:  E(RB2PLYPD3) =  -76.3274806753     A.U. after   10 cycles
 E2(B2PLYPD3) =    -0.8884134623D-01 E(B2PLYPD3) =    -0.76416322021560D+02

 The electronic state is 1-A'.
 Alpha  occ. eigenvalues --  -19.72555  -1.18018  -0.62533  -0.48492  -0.40386
 Alpha virt. eigenvalues --    0.04788   0.10617   0.27231   0.30302   0.31136
 Alpha virt. eigenvalues --    0.38009   0.45431   0.50136   0.57046   0.61721
 Alpha virt. eigenvalues --    0.64642   0.82029   0.94365   0.95398   1.05065

 Mulliken charges:
               1
     1  O   -0.396309
     2  H    0.223779
     3  H    0.172530
 Sum of Mulliken charges =   0.00000

 Dipole moment (field-independent basis, Debye):
    X=             -0.0491    Y=             -1.9768    Z=              0.0000  Tot=              1.9774
 Quadrupole moment (field-independent basis, Debye-Ang):
   XX=             -4.5443   YY=             -6.1980   ZZ=             -7.4975
   XY=             -0.2198   XZ=              0.0000   YZ=              0.0000

 1\1\GINC-NODE27\SP\RB2PLYPD3-FC\def2QZVP\H2O1\BOITTIER\26-Aug-2020\0\\
 #p B2PLYPD3/Def2QZVP\\h2o\\0,1\O,0,-5.326605,-0.762412,0.926223\H,0,-4
 .368927,-0.657754,0.861158\H,0,-5.609308,0.040397,0.723838\\Version=ES
 64L-G09RevD.01\State=1-A'\HF=-76.3274807\MP2=-76.416322\RMSD=6.736e-09
 \PG=CS [SG(H2O1)]\\@

 THOSE WHO ASPIRE NOT TO GUESS AND DIVINE,

 Normal termination of Gaussian 09 at Wed Aug 26 09:04:34 2020.
