 Gaussian 09, Revision D.01,
 Gaussian 09:  ES64L-G09RevD.01 24-Apr-2013

 --------------------
 #p B2PLYPD3/Def2QZVP
 --------------------

 ---
 h2o
 ---
 Symbolic Z-matrix:
 Charge =  0 Multiplicity = 1

                         Standard orientation:
 ---------------------------------------------------------------------
 Center     Atomic      Atomic             Coordinates (Angstroms)
 Number     Number       Type             X           Y           Z
 ---------------------------------------------------------------------
      1          8           0        0.000000    0.115254    0.000000
      2          1           0        0.753693   -0.477472    0.000000
      3          1           0       -0.753693   -0.444559    0.000000
 ---------------------------------------------------------------------

 SCF Done:  E(RB2PLYPD3) =  -76.3350814739     A.U. after   10 cycles
 E2(B2PLYPD3) =    -0.8965659301D-01 E(B2PLYPD3) =    -0.76424738066908D+02

 The electronic state is 1-A'.
 Alpha  occ. eigenvalues --  -19.72947  -1.16119  -0.61838  -0.47487  -0.40038
 Alpha virt. eigenvalues --    0.04651   0.10291   0.27439   0.30388   0.31213
 Alpha virt. eigenvalues --    0.36256   0.44266   0.50451   0.56293   0.62433
 Alpha virt. eigenvalues --    0.65368   0.81370   0.94033   0.95746   1.04633

 Mulliken charges:
               1
     1  O   -0.435997
     2  H    0.222741
     3  H    0.213256
 Sum of Mulliken charges =   0.00000

 Dipole moment (field-independent basis, Debye):
    X=             -0.0101    Y=             -1.9456    Z=              0.0000  Tot=              1.9456
 Quadrupole moment (field-independent basis, Debye-Ang):
   XX=             -4.3355   YY=             -6.3352   ZZ=             -7.5718
   XY=             -0.0542   XZ=              0.0000   YZ=              0.0000

 1\1\GINC-NODE25\SP\RB2PLYPD3-FC\def2QZVP\H2O1\BOITTIER\26-Aug-2020\0\\
 #p B2PLYPD3/Def2QZVP\\h2o\\0,1\O,0,-5.326605,-0.763548,0.917414\H,0,-4
 .368927,-0.721459,0.938829\H,0,-5.609308,0.122263,0.787562\\Version=ES
 64L-G09RevD.01\State=1-A'\HF=-76.3350815\MP2=-76.4247381\RMSD=4.365e-0
 9\PG=CS [SG(H2O1)]\\@

 BE NOT THE FIRST BY WHOM THE NEW ARE TRIED,

 Normal termination of Gaussian 09 at Wed Aug 26 12:43:44 2020.
