 Gaussian 09, Revision D.01,
 Gaussian 09:  ES64L-G09RevD.01 24-Apr-2013

 --------------------
 #p B2PLYPD3/Def2QZVP
 --------------------

 ---
 h2o
 ---
 Symbolic Z-matrix:
 Charge =  0 Multiplicity = 1

                         Standard orientation:
 ---------------------------------------------------------------------
 Center     Atomic      Atomic             Coordinates (Angstroms)
 Number     Number       Type             X           Y           Z
 ---------------------------------------------------------------------
      1          8           0        0.000000    0.116680    0.000000
      2          1           0        0.707599   -0.542101    0.000000
      3          1           0       -0.707599   -0.391335    0.000000
 ---------------------------------------------------------------------

 SCF Done:  E(RB2PLYPD3) =  -76.3265064675     A.U. after   10 cycles
 E2(B2PLYPD3) =    -0.8881613663D-01 E(B2PLYPD3) =    -0.76415322604153D+02

 The electronic state is 1-A'.
 Alpha  occ. eigenvalues --  -19.72546  -1.18149  -0.62495  -0.48600  -0.40410
 Alpha virt. eigenvalues --    0.04779   0.10639   0.27220   0.30298   0.31091
 Alpha virt. eigenvalues --    0.38119   0.45512   0.50075   0.57121   0.61602
 Alpha virt. eigenvalues --    0.64609   0.82045   0.94363   0.95398   1.05023

 Mulliken charges:
               1
     1  O   -0.393296
     2  H    0.223902
     3  H    0.169394
 Sum of Mulliken charges =   0.00000

 Dipole moment (field-independent basis, Debye):
    X=             -0.0523    Y=             -1.9830    Z=              0.0000  Tot=              1.9837
 Quadrupole moment (field-independent basis, Debye-Ang):
   XX=             -4.5673   YY=             -6.1812   ZZ=             -7.4935
   XY=             -0.2287   XZ=              0.0000   YZ=              0.0000

 1\1\GINC-NODE37\SP\RB2PLYPD3-FC\def2QZVP\H2O1\BOITTIER\26-Aug-2020\0\\
 #p B2PLYPD3/Def2QZVP\\h2o\\0,1\O,0,-5.326605,-0.762602,0.926686\H,0,-4
 .368927,-0.649017,0.858573\H,0,-5.609308,0.034698,0.71892\\Version=ES6
 4L-G09RevD.01\State=1-A'\HF=-76.3265065\MP2=-76.4153226\RMSD=6.748e-09
 \PG=CS [SG(H2O1)]\\@

  ON THE CHOICE OF THE CORRECT LANGUAGE -

 Normal termination of Gaussian 09 at Wed Aug 26 09:06:51 2020.
