 Gaussian 09, Revision D.01,
 Gaussian 09:  ES64L-G09RevD.01 24-Apr-2013

 --------------------
 #p B2PLYPD3/Def2QZVP
 --------------------

 ---
 h2o
 ---
 Symbolic Z-matrix:
 Charge =  0 Multiplicity = 1

                         Standard orientation:
 ---------------------------------------------------------------------
 Center     Atomic      Atomic             Coordinates (Angstroms)
 Number     Number       Type             X           Y           Z
 ---------------------------------------------------------------------
      1          8           0        0.000000    0.113250    0.000000
      2          1           0        0.758384   -0.472492    0.000000
      3          1           0       -0.758384   -0.433506    0.000000
 ---------------------------------------------------------------------

 SCF Done:  E(RB2PLYPD3) =  -76.3349787054     A.U. after   10 cycles
 E2(B2PLYPD3) =    -0.8954871234D-01 E(B2PLYPD3) =    -0.76424527417709D+02

 The electronic state is 1-A'.
 Alpha  occ. eigenvalues --  -19.72856  -1.16136  -0.62189  -0.47268  -0.40027
 Alpha virt. eigenvalues --    0.04699   0.10288   0.27404   0.30386   0.31371
 Alpha virt. eigenvalues --    0.36132   0.44330   0.50728   0.56122   0.62847
 Alpha virt. eigenvalues --    0.65282   0.81346   0.93967   0.95738   1.05028

 Mulliken charges:
               1
     1  O   -0.436743
     2  H    0.224014
     3  H    0.212729
 Sum of Mulliken charges =   0.00000

 Dipole moment (field-independent basis, Debye):
    X=             -0.0114    Y=             -1.9235    Z=              0.0000  Tot=              1.9235
 Quadrupole moment (field-independent basis, Debye-Ang):
   XX=             -4.2856   YY=             -6.3712   ZZ=             -7.5690
   XY=             -0.0653   XZ=              0.0000   YZ=              0.0000

 1\1\GINC-NODE20\SP\RB2PLYPD3-FC\def2QZVP\H2O1\BOITTIER\26-Aug-2020\0\\
 #p B2PLYPD3/Def2QZVP\\h2o\\0,1\O,0,-5.326605,-0.762297,0.916117\H,0,-4
 .368927,-0.741197,0.94154\H,0,-5.609308,0.121989,0.805641\\Version=ES6
 4L-G09RevD.01\State=1-A'\HF=-76.3349787\MP2=-76.4245274\RMSD=4.403e-09
 \PG=CS [SG(H2O1)]\\@

 WOMEN HOLD UP HALF THE SKY. -- MAO TSE TUNG

 Normal termination of Gaussian 09 at Wed Aug 26 11:53:06 2020.
