 Gaussian 09, Revision D.01,
 Gaussian 09:  ES64L-G09RevD.01 24-Apr-2013

 --------------------
 #p B2PLYPD3/Def2QZVP
 --------------------

 ---
 h2o
 ---
 Symbolic Z-matrix:
 Charge =  0 Multiplicity = 1

                         Standard orientation:
 ---------------------------------------------------------------------
 Center     Atomic      Atomic             Coordinates (Angstroms)
 Number     Number       Type             X           Y           Z
 ---------------------------------------------------------------------
      1          8           0        0.000000    0.116382    0.000000
      2          1           0        0.782102   -0.436660    0.000000
      3          1           0       -0.782102   -0.494393    0.000000
 ---------------------------------------------------------------------

 SCF Done:  E(RB2PLYPD3) =  -76.3334747518     A.U. after   10 cycles
 E2(B2PLYPD3) =    -0.9047409749D-01 E(B2PLYPD3) =    -0.76423948849289D+02

 The electronic state is 1-A'.
 Alpha  occ. eigenvalues --  -19.73293  -1.14798  -0.60908  -0.46846  -0.39777
 Alpha virt. eigenvalues --    0.04370   0.10017   0.27572   0.30459   0.30781
 Alpha virt. eigenvalues --    0.34896   0.43542   0.50525   0.55731   0.62680
 Alpha virt. eigenvalues --    0.65979   0.80549   0.93041   0.96320   1.02932

 Mulliken charges:
               1
     1  O   -0.459566
     2  H    0.222722
     3  H    0.236844
 Sum of Mulliken charges =   0.00000

 Dipole moment (field-independent basis, Debye):
    X=              0.0167    Y=             -1.9392    Z=              0.0000  Tot=              1.9393
 Quadrupole moment (field-independent basis, Debye-Ang):
   XX=             -4.2114   YY=             -6.3942   ZZ=             -7.6346
   XY=              0.0987   XZ=              0.0000   YZ=              0.0000

 1\1\GINC-NODE29\SP\RB2PLYPD3-FC\def2QZVP\H2O1\BOITTIER\26-Aug-2020\0\\
 #p B2PLYPD3/Def2QZVP\\h2o\\0,1\O,0,-5.326605,-0.764244,0.918136\H,0,-4
 .368927,-0.764658,0.937924\H,0,-5.609308,0.176606,0.778101\\Version=ES
 64L-G09RevD.01\State=1-A'\HF=-76.3334748\MP2=-76.4239488\RMSD=4.446e-0
 9\PG=CS [SG(H2O1)]\\@

 THE CAUTIOUS SELDOM ERR...CONFUCIUS

 Normal termination of Gaussian 09 at Wed Aug 26 08:32:12 2020.
