 Gaussian 09, Revision D.01,
 Gaussian 09:  ES64L-G09RevD.01 24-Apr-2013

 --------------------
 #p B2PLYPD3/Def2QZVP
 --------------------

 ---
 h2o
 ---
 Symbolic Z-matrix:
 Charge =  0 Multiplicity = 1

                         Standard orientation:
 ---------------------------------------------------------------------
 Center     Atomic      Atomic             Coordinates (Angstroms)
 Number     Number       Type             X           Y           Z
 ---------------------------------------------------------------------
      1          8           0        0.000000    0.118301    0.000000
      2          1           0        0.762083   -0.463275    0.000000
      3          1           0       -0.762083   -0.483133    0.000000
 ---------------------------------------------------------------------

 SCF Done:  E(RB2PLYPD3) =  -76.3347865248     A.U. after   10 cycles
 E2(B2PLYPD3) =    -0.9020050818D-01 E(B2PLYPD3) =    -0.76424987032958D+02

 The electronic state is 1-A'.
 Alpha  occ. eigenvalues --  -19.73238  -1.15418  -0.60951  -0.47436  -0.39922
 Alpha virt. eigenvalues --    0.04463   0.10156   0.27557   0.30426   0.30833
 Alpha virt. eigenvalues --    0.35691   0.43810   0.50151   0.56226   0.62052
 Alpha virt. eigenvalues --    0.65787   0.81021   0.93675   0.96051   1.03344

 Mulliken charges:
               1
     1  O   -0.447068
     2  H    0.220918
     3  H    0.226150
 Sum of Mulliken charges =   0.00000

 Dipole moment (field-independent basis, Debye):
    X=              0.0062    Y=             -1.9696    Z=              0.0000  Tot=              1.9696
 Quadrupole moment (field-independent basis, Debye-Ang):
   XX=             -4.3368   YY=             -6.3208   ZZ=             -7.6066
   XY=              0.0326   XZ=              0.0000   YZ=              0.0000

 1\1\GINC-NODE32\SP\RB2PLYPD3-FC\def2QZVP\H2O1\BOITTIER\26-Aug-2020\0\\
 #p B2PLYPD3/Def2QZVP\\h2o\\0,1\O,0,-5.326605,-0.764889,0.922205\H,0,-4
 .368927,-0.723838,0.909207\H,0,-5.609308,0.146102,0.741463\\Version=ES
 64L-G09RevD.01\State=1-A'\HF=-76.3347865\MP2=-76.424987\RMSD=4.109e-09
 \PG=CS [SG(H2O1)]\\@

 "MATHEMATICS IS THE ART OF GIVING THE SAME NAME

 Normal termination of Gaussian 09 at Wed Aug 26 11:03:11 2020.
