 Gaussian 09, Revision D.01,
 Gaussian 09:  ES64L-G09RevD.01 24-Apr-2013

 --------------------
 #p B2PLYPD3/Def2QZVP
 --------------------

 ---
 h2o
 ---
 Symbolic Z-matrix:
 Charge =  0 Multiplicity = 1

                         Standard orientation:
 ---------------------------------------------------------------------
 Center     Atomic      Atomic             Coordinates (Angstroms)
 Number     Number       Type             X           Y           Z
 ---------------------------------------------------------------------
      1          8           0        0.000000    0.115130    0.000000
      2          1           0        0.743392   -0.491211    0.000000
      3          1           0       -0.743392   -0.429830    0.000000
 ---------------------------------------------------------------------

 SCF Done:  E(RB2PLYPD3) =  -76.3342766636     A.U. after   10 cycles
 E2(B2PLYPD3) =    -0.8940717212D-01 E(B2PLYPD3) =    -0.76423683835689D+02

 The electronic state is 1-A'.
 Alpha  occ. eigenvalues --  -19.72832  -1.16600  -0.62104  -0.47722  -0.40129
 Alpha virt. eigenvalues --    0.04715   0.10380   0.27386   0.30364   0.31256
 Alpha virt. eigenvalues --    0.36745   0.44548   0.50403   0.56483   0.62308
 Alpha virt. eigenvalues --    0.65162   0.81595   0.94237   0.95583   1.04919

 Mulliken charges:
               1
     1  O   -0.426635
     2  H    0.222677
     3  H    0.203959
 Sum of Mulliken charges =   0.00000

 Dipole moment (field-independent basis, Debye):
    X=             -0.0192    Y=             -1.9501    Z=              0.0000  Tot=              1.9502
 Quadrupole moment (field-independent basis, Debye-Ang):
   XX=             -4.3828   YY=             -6.3076   ZZ=             -7.5511
   XY=             -0.0995   XZ=              0.0000   YZ=              0.0000

 1\1\GINC-NODE21\SP\RB2PLYPD3-FC\def2QZVP\H2O1\BOITTIER\26-Aug-2020\0\\
 #p B2PLYPD3/Def2QZVP\\h2o\\0,1\O,0,-5.326605,-0.762842,0.921383\H,0,-4
 .368927,-0.710028,0.90282\H,0,-5.609308,0.099549,0.760219\\Version=ES6
 4L-G09RevD.01\State=1-A'\HF=-76.3342767\MP2=-76.4236838\RMSD=5.082e-09
 \PG=CS [SG(H2O1)]\\@

 Fatherhood is pretending the present you love most is soap-on-a-rope.

 Normal termination of Gaussian 09 at Wed Aug 26 12:38:29 2020.
