 Gaussian 09, Revision D.01,
 Gaussian 09:  ES64L-G09RevD.01 24-Apr-2013

 --------------------
 #p B2PLYPD3/Def2QZVP
 --------------------

 ---
 h2o
 ---
 Symbolic Z-matrix:
 Charge =  0 Multiplicity = 1

                         Standard orientation:
 ---------------------------------------------------------------------
 Center     Atomic      Atomic             Coordinates (Angstroms)
 Number     Number       Type             X           Y           Z
 ---------------------------------------------------------------------
      1          8           0        0.000000    0.116783    0.000000
      2          1           0        0.753142   -0.477557    0.000000
      3          1           0       -0.753142   -0.456705    0.000000
 ---------------------------------------------------------------------

 SCF Done:  E(RB2PLYPD3) =  -76.3351630693     A.U. after   10 cycles
 E2(B2PLYPD3) =    -0.8981448906D-01 E(B2PLYPD3) =    -0.76424977558338D+02

 The electronic state is 1-A'.
 Alpha  occ. eigenvalues --  -19.73048  -1.15969  -0.61498  -0.47581  -0.40021
 Alpha virt. eigenvalues --    0.04593   0.10266   0.27480   0.30397   0.31073
 Alpha virt. eigenvalues --    0.36198   0.44142   0.50270   0.56362   0.62166
 Alpha virt. eigenvalues --    0.65493   0.81310   0.94013   0.95812   1.04213

 Mulliken charges:
               1
     1  O   -0.437990
     2  H    0.221940
     3  H    0.216050
 Sum of Mulliken charges =   0.00000

 Dipole moment (field-independent basis, Debye):
    X=             -0.0065    Y=             -1.9605    Z=              0.0000  Tot=              1.9605
 Quadrupole moment (field-independent basis, Debye-Ang):
   XX=             -4.3591   YY=             -6.3159   ZZ=             -7.5800
   XY=             -0.0340   XZ=              0.0000   YZ=              0.0000

 1\1\GINC-NODE36\SP\RB2PLYPD3-FC\def2QZVP\H2O1\BOITTIER\26-Aug-2020\0\\
 #p B2PLYPD3/Def2QZVP\\h2o\\0,1\O,0,-5.326605,-0.763395,0.924148\H,0,-4
 .368927,-0.721673,0.884459\H,0,-5.609308,0.12003,0.735071\\Version=ES6
 4L-G09RevD.01\State=1-A'\HF=-76.3351631\MP2=-76.4249776\RMSD=4.239e-09
 \PG=CS [SG(H2O1)]\\@

 THERE'S A SUCKER BORN EVERY MINUTE

 Normal termination of Gaussian 09 at Wed Aug 26 09:06:14 2020.
