 Gaussian 09, Revision D.01,
 Gaussian 09:  ES64L-G09RevD.01 24-Apr-2013

 --------------------
 #p B2PLYPD3/Def2QZVP
 --------------------

 ---
 h2o
 ---
 Symbolic Z-matrix:
 Charge =  0 Multiplicity = 1

                         Standard orientation:
 ---------------------------------------------------------------------
 Center     Atomic      Atomic             Coordinates (Angstroms)
 Number     Number       Type             X           Y           Z
 ---------------------------------------------------------------------
      1          8           0        0.000000    0.119609    0.000000
      2          1           0        0.755366   -0.472790    0.000000
      3          1           0       -0.755366   -0.484082    0.000000
 ---------------------------------------------------------------------

 SCF Done:  E(RB2PLYPD3) =  -76.3348218875     A.U. after   10 cycles
 E2(B2PLYPD3) =    -0.9019377509D-01 E(B2PLYPD3) =    -0.76425015662618D+02

 The electronic state is 1-A'.
 Alpha  occ. eigenvalues --  -19.73264  -1.15555  -0.60802  -0.47664  -0.39960
 Alpha virt. eigenvalues --    0.04457   0.10188   0.27569   0.30419   0.30760
 Alpha virt. eigenvalues --    0.35921   0.43848   0.49967   0.56411   0.61737
 Alpha virt. eigenvalues --    0.65781   0.81115   0.93846   0.96006   1.03232

 Mulliken charges:
               1
     1  O   -0.443761
     2  H    0.220371
     3  H    0.223390
 Sum of Mulliken charges =   0.00000

 Dipole moment (field-independent basis, Debye):
    X=              0.0037    Y=             -1.9858    Z=              0.0000  Tot=              1.9858
 Quadrupole moment (field-independent basis, Debye-Ang):
   XX=             -4.3875   YY=             -6.2875   ZZ=             -7.6017
   XY=              0.0182   XZ=              0.0000   YZ=              0.0000

 1\1\GINC-NODE35\SP\RB2PLYPD3-FC\def2QZVP\H2O1\BOITTIER\26-Aug-2020\0\\
 #p B2PLYPD3/Def2QZVP\\h2o\\0,1\O,0,-5.326605,-0.765192,0.924852\H,0,-4
 .368927,-0.709079,0.889935\H,0,-5.609308,0.136198,0.718462\\Version=ES
 64L-G09RevD.01\State=1-A'\HF=-76.3348219\MP2=-76.4250157\RMSD=4.177e-0
 9\PG=CS [SG(H2O1)]\\@

 BOOKS ARE LIGHTHOUSES ERECTED IN THE GREAT SEA OF TIME.

 Normal termination of Gaussian 09 at Wed Aug 26 08:37:07 2020.
