 Gaussian 09, Revision D.01,
 Gaussian 09:  ES64L-G09RevD.01 24-Apr-2013

 --------------------
 #p B2PLYPD3/Def2QZVP
 --------------------

 ---
 h2o
 ---
 Symbolic Z-matrix:
 Charge =  0 Multiplicity = 1

                         Standard orientation:
 ---------------------------------------------------------------------
 Center     Atomic      Atomic             Coordinates (Angstroms)
 Number     Number       Type             X           Y           Z
 ---------------------------------------------------------------------
      1          8           0        0.000000    0.118261    0.000000
      2          1           0        0.746709   -0.485410    0.000000
      3          1           0       -0.746709   -0.460680    0.000000
 ---------------------------------------------------------------------

 SCF Done:  E(RB2PLYPD3) =  -76.3350234731     A.U. after   10 cycles
 E2(B2PLYPD3) =    -0.8983452419D-01 E(B2PLYPD3) =    -0.76424857997280D+02

 The electronic state is 1-A'.
 Alpha  occ. eigenvalues --  -19.73087  -1.16081  -0.61298  -0.47811  -0.40053
 Alpha virt. eigenvalues --    0.04574   0.10292   0.27495   0.30392   0.30970
 Alpha virt. eigenvalues --    0.36411   0.44164   0.50068   0.56546   0.61827
 Alpha virt. eigenvalues --    0.65504   0.81374   0.94149   0.95782   1.04009

 Mulliken charges:
               1
     1  O   -0.435090
     2  H    0.221076
     3  H    0.214013
 Sum of Mulliken charges =   0.00000

 Dipole moment (field-independent basis, Debye):
    X=             -0.0081    Y=             -1.9782    Z=              0.0000  Tot=              1.9782
 Quadrupole moment (field-independent basis, Debye-Ang):
   XX=             -4.4103   YY=             -6.2810   ZZ=             -7.5767
   XY=             -0.0396   XZ=              0.0000   YZ=              0.0000

 1\1\GINC-NODE29\SP\RB2PLYPD3-FC\def2QZVP\H2O1\BOITTIER\26-Aug-2020\0\\
 #p B2PLYPD3/Def2QZVP\\h2o\\0,1\O,0,-5.326605,-0.764758,0.922672\H,0,-4
 .368927,-0.697583,0.904392\H,0,-5.609308,0.117749,0.738259\\Version=ES
 64L-G09RevD.01\State=1-A'\HF=-76.3350235\MP2=-76.424858\RMSD=4.393e-09
 \PG=CS [SG(H2O1)]\\@

 A SUCCESSFUL PURSUIT OF SCIENCE MAKES A MAN THE

 Normal termination of Gaussian 09 at Wed Aug 26 10:58:24 2020.
