 Gaussian 09, Revision D.01,
 Gaussian 09:  ES64L-G09RevD.01 24-Apr-2013

 --------------------
 #p B2PLYPD3/Def2QZVP
 --------------------

 ---
 h2o
 ---
 Symbolic Z-matrix:
 Charge =  0 Multiplicity = 1

                         Standard orientation:
 ---------------------------------------------------------------------
 Center     Atomic      Atomic             Coordinates (Angstroms)
 Number     Number       Type             X           Y           Z
 ---------------------------------------------------------------------
      1          8           0        0.000000    0.115251    0.000000
      2          1           0        0.730538   -0.510089    0.000000
      3          1           0       -0.730538   -0.411917    0.000000
 ---------------------------------------------------------------------

 SCF Done:  E(RB2PLYPD3) =  -76.3321805230     A.U. after   10 cycles
 E2(B2PLYPD3) =    -0.8913775290D-01 E(B2PLYPD3) =    -0.76421318275952D+02

 The electronic state is 1-A'.
 Alpha  occ. eigenvalues --  -19.72702  -1.17192  -0.62362  -0.48018  -0.40238
 Alpha virt. eigenvalues --    0.04766   0.10482   0.27320   0.30337   0.31245
 Alpha virt. eigenvalues --    0.37306   0.44912   0.50322   0.56708   0.62118
 Alpha virt. eigenvalues --    0.64926   0.81818   0.94357   0.95455   1.05056

 Mulliken charges:
               1
     1  O   -0.414421
     2  H    0.223223
     3  H    0.191198
 Sum of Mulliken charges =   0.00000

 Dipole moment (field-independent basis, Debye):
    X=             -0.0317    Y=             -1.9580    Z=              0.0000  Tot=              1.9582
 Quadrupole moment (field-independent basis, Debye-Ang):
   XX=             -4.4444   YY=             -6.2679   ZZ=             -7.5273
   XY=             -0.1558   XZ=              0.0000   YZ=              0.0000

 1\1\GINC-NODE09\SP\RB2PLYPD3-FC\def2QZVP\H2O1\BOITTIER\26-Aug-2020\0\\
 #p B2PLYPD3/Def2QZVP\\h2o\\0,1\O,0,-5.326605,-0.762101,0.924931\H,0,-4
 .368927,-0.694586,0.869875\H,0,-5.609308,0.072238,0.736386\\Version=ES
 64L-G09RevD.01\State=1-A'\HF=-76.3321805\MP2=-76.4213183\RMSD=6.076e-0
 9\PG=CS [SG(H2O1)]\\@

 WERE I TO AWAIT PERFECTION, MY BOOK WOULD NEVER BE FINISHED.

 Normal termination of Gaussian 09 at Wed Aug 26 12:12:23 2020.
