 Gaussian 09, Revision D.01,
 Gaussian 09:  ES64L-G09RevD.01 24-Apr-2013

 --------------------
 #p B2PLYPD3/Def2QZVP
 --------------------

 ---
 h2o
 ---
 Symbolic Z-matrix:
 Charge =  0 Multiplicity = 1

                         Standard orientation:
 ---------------------------------------------------------------------
 Center     Atomic      Atomic             Coordinates (Angstroms)
 Number     Number       Type             X           Y           Z
 ---------------------------------------------------------------------
      1          8           0        0.000000    0.121407    0.000000
      2          1           0        0.797919   -0.415492    0.000000
      3          1           0       -0.797919   -0.555760    0.000000
 ---------------------------------------------------------------------

 SCF Done:  E(RB2PLYPD3) =  -76.3273632823     A.U. after   10 cycles
 E2(B2PLYPD3) =    -0.9148232223D-01 E(B2PLYPD3) =    -0.76418845604572D+02

 The electronic state is 1-A'.
 Alpha  occ. eigenvalues --  -19.73744  -1.13718  -0.59475  -0.46631  -0.39583
 Alpha virt. eigenvalues --    0.03911   0.09749   0.27718   0.29584   0.30517
 Alpha virt. eigenvalues --    0.34187   0.42950   0.50043   0.55448   0.62166
 Alpha virt. eigenvalues --    0.66613   0.79782   0.91593   0.96767   1.00795

 Mulliken charges:
               1
     1  O   -0.473141
     2  H    0.221923
     3  H    0.251218
 Sum of Mulliken charges =   0.00000

 Dipole moment (field-independent basis, Debye):
    X=              0.0422    Y=             -1.9745    Z=              0.0000  Tot=              1.9749
 Quadrupole moment (field-independent basis, Debye-Ang):
   XX=             -4.2009   YY=             -6.3601   ZZ=             -7.6958
   XY=              0.2392   XZ=              0.0000   YZ=              0.0000

 1\1\GINC-NODE10\SP\RB2PLYPD3-FC\def2QZVP\H2O1\BOITTIER\26-Aug-2020\0\\
 #p B2PLYPD3/Def2QZVP\\h2o\\0,1\O,0,-5.326605,-0.768035,0.913153\H,0,-4
 .368927,-0.759991,1.001027\H,0,-5.609308,0.232595,0.794629\\Version=ES
 64L-G09RevD.01\State=1-A'\HF=-76.3273633\MP2=-76.4188456\RMSD=6.151e-0
 9\PG=CS [SG(H2O1)]\\@

 The theorems and results in mathematical physics are

 Normal termination of Gaussian 09 at Wed Aug 26 08:52:20 2020.
