 Gaussian 09, Revision D.01,
 Gaussian 09:  ES64L-G09RevD.01 24-Apr-2013

 --------------------
 #p B2PLYPD3/Def2QZVP
 --------------------

 ---
 h2o
 ---
 Symbolic Z-matrix:
 Charge =  0 Multiplicity = 1

                         Standard orientation:
 ---------------------------------------------------------------------
 Center     Atomic      Atomic             Coordinates (Angstroms)
 Number     Number       Type             X           Y           Z
 ---------------------------------------------------------------------
      1          8           0        0.000000    0.119015    0.000000
      2          1           0        0.787455   -0.427662    0.000000
      3          1           0       -0.787455   -0.524455    0.000000
 ---------------------------------------------------------------------

 SCF Done:  E(RB2PLYPD3) =  -76.3312099809     A.U. after   10 cycles
 E2(B2PLYPD3) =    -0.9091940534D-01 E(B2PLYPD3) =    -0.76422129386284D+02

 The electronic state is 1-A'.
 Alpha  occ. eigenvalues --  -19.73508  -1.14332  -0.60214  -0.46816  -0.39698
 Alpha virt. eigenvalues --    0.04175   0.09907   0.27648   0.30263   0.30484
 Alpha virt. eigenvalues --    0.34600   0.43271   0.50249   0.55662   0.62353
 Alpha virt. eigenvalues --    0.66273   0.80251   0.92494   0.96535   1.01797

 Mulliken charges:
               1
     1  O   -0.465257
     2  H    0.221556
     3  H    0.243701
 Sum of Mulliken charges =   0.00000

 Dipole moment (field-independent basis, Debye):
    X=              0.0288    Y=             -1.9601    Z=              0.0000  Tot=              1.9603
 Quadrupole moment (field-independent basis, Debye-Ang):
   XX=             -4.2207   YY=             -6.3711   ZZ=             -7.6609
   XY=              0.1645   XZ=              0.0000   YZ=              0.0000

 1\1\GINC-NODE07\SP\RB2PLYPD3-FC\def2QZVP\H2O1\BOITTIER\26-Aug-2020\0\\
 #p B2PLYPD3/Def2QZVP\\h2o\\0,1\O,0,-5.326605,-0.766168,0.917042\H,0,-4
 .368927,-0.757569,0.958512\H,0,-5.609308,0.200298,0.775054\\Version=ES
 64L-G09RevD.01\State=1-A'\HF=-76.33121\MP2=-76.4221294\RMSD=5.242e-09\
 PG=CS [SG(H2O1)]\\@

 EVERYTHING'S GOT A MORAL, IF ONLY YOU CAN FIND IT.

 Normal termination of Gaussian 09 at Wed Aug 26 12:12:53 2020.
