 Gaussian 09, Revision D.01,
 Gaussian 09:  ES64L-G09RevD.01 24-Apr-2013

 --------------------
 #p B2PLYPD3/Def2QZVP
 --------------------

 ---
 h2o
 ---
 Symbolic Z-matrix:
 Charge =  0 Multiplicity = 1

                         Standard orientation:
 ---------------------------------------------------------------------
 Center     Atomic      Atomic             Coordinates (Angstroms)
 Number     Number       Type             X           Y           Z
 ---------------------------------------------------------------------
      1          8           0        0.000000    0.117047    0.000000
      2          1           0        0.744895   -0.488385    0.000000
      3          1           0       -0.744895   -0.447990    0.000000
 ---------------------------------------------------------------------

 SCF Done:  E(RB2PLYPD3) =  -76.3348455296     A.U. after   10 cycles
 E2(B2PLYPD3) =    -0.8965433651D-01 E(B2PLYPD3) =    -0.76424499866084D+02

 The electronic state is 1-A'.
 Alpha  occ. eigenvalues --  -19.72983  -1.16305  -0.61620  -0.47791  -0.40087
 Alpha virt. eigenvalues --    0.04634   0.10332   0.27451   0.30380   0.31091
 Alpha virt. eigenvalues --    0.36570   0.44323   0.50193   0.56535   0.62003
 Alpha virt. eigenvalues --    0.65361   0.81473   0.94207   0.95691   1.04410

 Mulliken charges:
               1
     1  O   -0.431529
     2  H    0.221699
     3  H    0.209830
 Sum of Mulliken charges =   0.00000

 Dipole moment (field-independent basis, Debye):
    X=             -0.0130    Y=             -1.9677    Z=              0.0000  Tot=              1.9677
 Quadrupole moment (field-independent basis, Debye-Ang):
   XX=             -4.4021   YY=             -6.2902   ZZ=             -7.5657
   XY=             -0.0650   XZ=              0.0000   YZ=              0.0000

 1\1\GINC-NODE27\SP\RB2PLYPD3-FC\def2QZVP\H2O1\BOITTIER\26-Aug-2020\0\\
 #p B2PLYPD3/Def2QZVP\\h2o\\0,1\O,0,-5.326605,-0.764006,0.922239\H,0,-4
 .368927,-0.701501,0.90318\H,0,-5.609308,0.109638,0.746283\\Version=ES6
 4L-G09RevD.01\State=1-A'\HF=-76.3348455\MP2=-76.4244999\RMSD=4.630e-09
 \PG=CS [SG(H2O1)]\\@

 Fatherhood is pretending the present you love most is soap-on-a-rope.

 Normal termination of Gaussian 09 at Wed Aug 26 09:16:59 2020.
