 Gaussian 09, Revision D.01,
 Gaussian 09:  ES64L-G09RevD.01 24-Apr-2013

 --------------------
 #p B2PLYPD3/Def2QZVP
 --------------------

 ---
 h2o
 ---
 Symbolic Z-matrix:
 Charge =  0 Multiplicity = 1

                         Standard orientation:
 ---------------------------------------------------------------------
 Center     Atomic      Atomic             Coordinates (Angstroms)
 Number     Number       Type             X           Y           Z
 ---------------------------------------------------------------------
      1          8           0        0.000000    0.110482    0.000000
      2          1           0        0.789717   -0.434057    0.000000
      3          1           0       -0.789717   -0.449799    0.000000
 ---------------------------------------------------------------------

 SCF Done:  E(RB2PLYPD3) =  -76.3343176213     A.U. after   10 cycles
 E2(B2PLYPD3) =    -0.9002206515D-01 E(B2PLYPD3) =    -0.76424339686424D+02

 The electronic state is 1-A'.
 Alpha  occ. eigenvalues --  -19.72978  -1.15068  -0.62001  -0.46380  -0.39787
 Alpha virt. eigenvalues --    0.04565   0.10068   0.27454   0.30443   0.31440
 Alpha virt. eigenvalues --    0.34750   0.43804   0.51364   0.55397   0.63793
 Alpha virt. eigenvalues --    0.65662   0.80528   0.93262   0.96240   1.04700

 Mulliken charges:
               1
     1  O   -0.459621
     2  H    0.227801
     3  H    0.231820
 Sum of Mulliken charges =   0.00000

 Dipole moment (field-independent basis, Debye):
    X=              0.0040    Y=             -1.8779    Z=              0.0000  Tot=              1.8779
 Quadrupole moment (field-independent basis, Debye-Ang):
   XX=             -4.0931   YY=             -6.4878   ZZ=             -7.6160
   XY=              0.0280   XZ=              0.0000   YZ=              0.0000

 1\1\GINC-NODE01\SP\RB2PLYPD3-FC\def2QZVP\H2O1\BOITTIER\26-Aug-2020\0\\
 #p B2PLYPD3/Def2QZVP\\h2o\\0,1\O,0,-5.326605,-0.760454,0.915086\H,0,-4
 .368927,-0.810013,0.939008\H,0,-5.609308,0.161319,0.825749\\Version=ES
 64L-G09RevD.01\State=1-A'\HF=-76.3343176\MP2=-76.4243397\RMSD=3.732e-0
 9\PG=CS [SG(H2O1)]\\@

 THERE IS MORE TO LIFE THAN INCREASING ITS SPEED.

 Normal termination of Gaussian 09 at Wed Aug 26 09:12:25 2020.
