 Gaussian 09, Revision D.01,
 Gaussian 09:  ES64L-G09RevD.01 24-Apr-2013

 --------------------
 #p B2PLYPD3/Def2QZVP
 --------------------

 ---
 h2o
 ---
 Symbolic Z-matrix:
 Charge =  0 Multiplicity = 1

                         Standard orientation:
 ---------------------------------------------------------------------
 Center     Atomic      Atomic             Coordinates (Angstroms)
 Number     Number       Type             X           Y           Z
 ---------------------------------------------------------------------
      1          8           0        0.000000    0.115676    0.000000
      2          1           0        0.763162   -0.463976    0.000000
      3          1           0       -0.763162   -0.461434    0.000000
 ---------------------------------------------------------------------

 SCF Done:  E(RB2PLYPD3) =  -76.3351818948     A.U. after   10 cycles
 E2(B2PLYPD3) =    -0.8992679789D-01 E(B2PLYPD3) =    -0.76425108692665D+02

 The electronic state is 1-A'.
 Alpha  occ. eigenvalues --  -19.73070  -1.15658  -0.61519  -0.47283  -0.39950
 Alpha virt. eigenvalues --    0.04569   0.10201   0.27490   0.30412   0.31113
 Alpha virt. eigenvalues --    0.35784   0.44000   0.50465   0.56120   0.62501
 Alpha virt. eigenvalues --    0.65582   0.81121   0.93772   0.95932   1.04169

 Mulliken charges:
               1
     1  O   -0.444486
     2  H    0.222589
     3  H    0.221896
 Sum of Mulliken charges =   0.00000

 Dipole moment (field-independent basis, Debye):
    X=             -0.0008    Y=             -1.9442    Z=              0.0000  Tot=              1.9442
 Quadrupole moment (field-independent basis, Debye-Ang):
   XX=             -4.2954   YY=             -6.3558   ZZ=             -7.5928
   XY=             -0.0042   XZ=              0.0000   YZ=              0.0000

 1\1\GINC-NODE13\SP\RB2PLYPD3-FC\def2QZVP\H2O1\BOITTIER\26-Aug-2020\0\\
 #p B2PLYPD3/Def2QZVP\\h2o\\0,1\O,0,-5.326605,-0.763817,0.91762\H,0,-4.
 368927,-0.735403,0.939023\H,0,-5.609308,0.140515,0.784449\\Version=ES6
 4L-G09RevD.01\State=1-A'\HF=-76.3351819\MP2=-76.4251087\RMSD=3.978e-09
 \PG=CS [SG(H2O1)]\\@

 TO SEE A WORLD IN A GRAIN OF SAND

 Normal termination of Gaussian 09 at Wed Aug 26 10:05:35 2020.
