 Gaussian 09, Revision D.01,
 Gaussian 09:  ES64L-G09RevD.01 24-Apr-2013

 --------------------
 #p B2PLYPD3/Def2QZVP
 --------------------

 ---
 h2o
 ---
 Symbolic Z-matrix:
 Charge =  0 Multiplicity = 1

                         Standard orientation:
 ---------------------------------------------------------------------
 Center     Atomic      Atomic             Coordinates (Angstroms)
 Number     Number       Type             X           Y           Z
 ---------------------------------------------------------------------
      1          8           0        0.000000    0.120720    0.000000
      2          1           0        0.762486   -0.461464    0.000000
      3          1           0       -0.762486   -0.504294    0.000000
 ---------------------------------------------------------------------

 SCF Done:  E(RB2PLYPD3) =  -76.3339357843     A.U. after   10 cycles
 E2(B2PLYPD3) =    -0.9049722266D-01 E(B2PLYPD3) =    -0.76424433006936D+02

 The electronic state is 1-A'.
 Alpha  occ. eigenvalues --  -19.73404  -1.15140  -0.60401  -0.47533  -0.39885
 Alpha virt. eigenvalues --    0.04346   0.10098   0.27625   0.30440   0.30529
 Alpha virt. eigenvalues --    0.35532   0.43617   0.49884   0.56283   0.61675
 Alpha virt. eigenvalues --    0.65998   0.80882   0.93499   0.96197   1.02525

 Mulliken charges:
               1
     1  O   -0.450132
     2  H    0.219643
     3  H    0.230488
 Sum of Mulliken charges =   0.00000

 Dipole moment (field-independent basis, Debye):
    X=              0.0139    Y=             -1.9917    Z=              0.0000  Tot=              1.9917
 Quadrupole moment (field-independent basis, Debye-Ang):
   XX=             -4.3684   YY=             -6.2910   ZZ=             -7.6223
   XY=              0.0694   XZ=              0.0000   YZ=              0.0000

 1\1\GINC-NODE40\SP\RB2PLYPD3-FC\def2QZVP\H2O1\BOITTIER\26-Aug-2020\0\\
 #p B2PLYPD3/Def2QZVP\\h2o\\0,1\O,0,-5.326605,-0.766365,0.923106\H,0,-4
 .368927,-0.7113,0.911126\H,0,-5.609308,0.157191,0.725239\\Version=ES64
 L-G09RevD.01\State=1-A'\HF=-76.3339358\MP2=-76.424433\RMSD=4.381e-09\P
 G=CS [SG(H2O1)]\\@

 TERENCE, THIS IS STUPID STUFF:

 Normal termination of Gaussian 09 at Wed Aug 26 08:31:04 2020.
