 Gaussian 09, Revision D.01,
 Gaussian 09:  ES64L-G09RevD.01 24-Apr-2013

 --------------------
 #p B2PLYPD3/Def2QZVP
 --------------------

 ---
 h2o
 ---
 Symbolic Z-matrix:
 Charge =  0 Multiplicity = 1

                         Standard orientation:
 ---------------------------------------------------------------------
 Center     Atomic      Atomic             Coordinates (Angstroms)
 Number     Number       Type             X           Y           Z
 ---------------------------------------------------------------------
      1          8           0        0.000000    0.118150    0.000000
      2          1           0        0.762061   -0.463485    0.000000
      3          1           0       -0.762061   -0.481718    0.000000
 ---------------------------------------------------------------------

 SCF Done:  E(RB2PLYPD3) =  -76.3348263700     A.U. after   10 cycles
 E2(B2PLYPD3) =    -0.9018243560D-01 E(B2PLYPD3) =    -0.76425008805636D+02

 The electronic state is 1-A'.
 Alpha  occ. eigenvalues --  -19.73227  -1.15435  -0.60985  -0.47429  -0.39925
 Alpha virt. eigenvalues --    0.04470   0.10160   0.27553   0.30425   0.30851
 Alpha virt. eigenvalues --    0.35701   0.43823   0.50168   0.56223   0.62076
 Alpha virt. eigenvalues --    0.65774   0.81029   0.93685   0.96042   1.03396

 Mulliken charges:
               1
     1  O   -0.446867
     2  H    0.221026
     3  H    0.225841
 Sum of Mulliken charges =   0.00000

 Dipole moment (field-independent basis, Debye):
    X=              0.0057    Y=             -1.9682    Z=              0.0000  Tot=              1.9682
 Quadrupole moment (field-independent basis, Debye-Ang):
   XX=             -4.3348   YY=             -6.3226   ZZ=             -7.6057
   XY=              0.0299   XZ=              0.0000   YZ=              0.0000

 1\1\GINC-NODE20\SP\RB2PLYPD3-FC\def2QZVP\H2O1\BOITTIER\26-Aug-2020\0\\
 #p B2PLYPD3/Def2QZVP\\h2o\\0,1\O,0,-5.326605,-0.764664,0.922785\H,0,-4
 .368927,-0.725841,0.903226\H,0,-5.609308,0.144512,0.738241\\Version=ES
 64L-G09RevD.01\State=1-A'\HF=-76.3348264\MP2=-76.4250088\RMSD=4.095e-0
 9\PG=CS [SG(H2O1)]\\@

 REALITY IS FOR PEOPLE WHO CAN'T FACE SCIENCE FICTION.

 Normal termination of Gaussian 09 at Wed Aug 26 09:40:06 2020.
