 Gaussian 09, Revision D.01,
 Gaussian 09:  ES64L-G09RevD.01 24-Apr-2013

 --------------------
 #p B2PLYPD3/Def2QZVP
 --------------------

 ---
 h2o
 ---
 Symbolic Z-matrix:
 Charge =  0 Multiplicity = 1

                         Standard orientation:
 ---------------------------------------------------------------------
 Center     Atomic      Atomic             Coordinates (Angstroms)
 Number     Number       Type             X           Y           Z
 ---------------------------------------------------------------------
      1          8           0        0.000000    0.119540    0.000000
      2          1           0        0.783178   -0.442493    0.000000
      3          1           0       -0.783178   -0.513824    0.000000
 ---------------------------------------------------------------------

 SCF Done:  E(RB2PLYPD3) =  -76.3321438574     A.U. after   10 cycles
 E2(B2PLYPD3) =    -0.9086506232D-01 E(B2PLYPD3) =    -0.76423008919676D+02

 The electronic state is 1-A'.
 Alpha  occ. eigenvalues --  -19.73510  -1.14436  -0.60201  -0.46963  -0.39729
 Alpha virt. eigenvalues --    0.04213   0.09934   0.27657   0.30364   0.30478
 Alpha virt. eigenvalues --    0.34707   0.43292   0.50147   0.55794   0.62182
 Alpha virt. eigenvalues --    0.66258   0.80376   0.92749   0.96466   1.01964

 Mulliken charges:
               1
     1  O   -0.463215
     2  H    0.223335
     3  H    0.239880
 Sum of Mulliken charges =   0.00000

 Dipole moment (field-independent basis, Debye):
    X=              0.0217    Y=             -1.9680    Z=              0.0000  Tot=              1.9681
 Quadrupole moment (field-independent basis, Debye-Ang):
   XX=             -4.2496   YY=             -6.3566   ZZ=             -7.6552
   XY=              0.1201   XZ=              0.0000   YZ=              0.0000

 1\1\GINC-NODE08\SP\RB2PLYPD3-FC\def2QZVP\H2O1\BOITTIER\26-Aug-2020\0\\
 #p B2PLYPD3/Def2QZVP\\h2o\\0,1\O,0,-5.326605,-0.766793,0.910065\H,0,-4
 .368927,-0.743606,1.0176\H,0,-5.609308,0.196331,0.826466\\Version=ES64
 L-G09RevD.01\State=1-A'\HF=-76.3321439\MP2=-76.4230089\RMSD=4.674e-09\
 PG=CS [SG(H2O1)]\\@

 The most important thing in communication is to hear what isn't being said.

 Normal termination of Gaussian 09 at Wed Aug 26 08:51:50 2020.
