 Gaussian 09, Revision D.01,
 Gaussian 09:  ES64L-G09RevD.01 24-Apr-2013

 --------------------
 #p B2PLYPD3/Def2QZVP
 --------------------

 ---
 h2o
 ---
 Symbolic Z-matrix:
 Charge =  0 Multiplicity = 1

                         Standard orientation:
 ---------------------------------------------------------------------
 Center     Atomic      Atomic             Coordinates (Angstroms)
 Number     Number       Type             X           Y           Z
 ---------------------------------------------------------------------
      1          8           0        0.000000    0.121779    0.000000
      2          1           0        0.754648   -0.473632    0.000000
      3          1           0       -0.754648   -0.500596    0.000000
 ---------------------------------------------------------------------

 SCF Done:  E(RB2PLYPD3) =  -76.3342207364     A.U. after   10 cycles
 E2(B2PLYPD3) =    -0.9043743518D-01 E(B2PLYPD3) =    -0.76424658171625D+02

 The electronic state is 1-A'.
 Alpha  occ. eigenvalues --  -19.73405  -1.15343  -0.60327  -0.47780  -0.39935
 Alpha virt. eigenvalues --    0.04363   0.10144   0.27629   0.30429   0.30516
 Alpha virt. eigenvalues --    0.35809   0.43688   0.49732   0.56490   0.61384
 Alpha virt. eigenvalues --    0.65955   0.81012   0.93759   0.96123   1.02571

 Mulliken charges:
               1
     1  O   -0.445958
     2  H    0.219484
     3  H    0.226473
 Sum of Mulliken charges =   0.00000

 Dipole moment (field-independent basis, Debye):
    X=              0.0091    Y=             -2.0062    Z=              0.0000  Tot=              2.0062
 Quadrupole moment (field-independent basis, Debye-Ang):
   XX=             -4.4213   YY=             -6.2584   ZZ=             -7.6139
   XY=              0.0429   XZ=              0.0000   YZ=              0.0000

 1\1\GINC-NODE13\SP\RB2PLYPD3-FC\def2QZVP\H2O1\BOITTIER\26-Aug-2020\0\\
 #p B2PLYPD3/Def2QZVP\\h2o\\0,1\O,0,-5.326605,-0.766099,0.927083\H,0,-4
 .368927,-0.699548,0.87778\H,0,-5.609308,0.141171,0.695171\\Version=ES6
 4L-G09RevD.01\State=1-A'\HF=-76.3342207\MP2=-76.4246582\RMSD=4.324e-09
 \PG=CS [SG(H2O1)]\\@

 WHAT THE SLIME CONTAINS, THE GLOWING REVEALS

 Normal termination of Gaussian 09 at Wed Aug 26 12:32:11 2020.
