 Gaussian 09, Revision D.01,
 Gaussian 09:  ES64L-G09RevD.01 24-Apr-2013

 --------------------
 #p B2PLYPD3/Def2QZVP
 --------------------

 ---
 h2o
 ---
 Symbolic Z-matrix:
 Charge =  0 Multiplicity = 1

                         Standard orientation:
 ---------------------------------------------------------------------
 Center     Atomic      Atomic             Coordinates (Angstroms)
 Number     Number       Type             X           Y           Z
 ---------------------------------------------------------------------
      1          8           0        0.000000    0.120571    0.000000
      2          1           0        0.777446   -0.454401    0.000000
      3          1           0       -0.777446   -0.510165    0.000000
 ---------------------------------------------------------------------

 SCF Done:  E(RB2PLYPD3) =  -76.3326459030     A.U. after   10 cycles
 E2(B2PLYPD3) =    -0.9084155882D-01 E(B2PLYPD3) =    -0.76423487461830D+02

 The electronic state is 1-A'.
 Alpha  occ. eigenvalues --  -19.73529  -1.14552  -0.60108  -0.47158  -0.39764
 Alpha virt. eigenvalues --    0.04227   0.09963   0.27671   0.30359   0.30471
 Alpha virt. eigenvalues --    0.34879   0.43320   0.49985   0.55956   0.61922
 Alpha virt. eigenvalues --    0.66250   0.80500   0.92953   0.96414   1.01962

 Mulliken charges:
               1
     1  O   -0.460416
     2  H    0.223655
     3  H    0.236761
 Sum of Mulliken charges =   0.00000

 Dipole moment (field-independent basis, Debye):
    X=              0.0175    Y=             -1.9812    Z=              0.0000  Tot=              1.9813
 Quadrupole moment (field-independent basis, Debye-Ang):
   XX=             -4.2927   YY=             -6.3304   ZZ=             -7.6501
   XY=              0.0926   XZ=              0.0000   YZ=              0.0000

 1\1\GINC-NODE12\SP\RB2PLYPD3-FC\def2QZVP\H2O1\BOITTIER\26-Aug-2020\0\\
 #p B2PLYPD3/Def2QZVP\\h2o\\0,1\O,0,-5.326605,-0.767413,0.908228\H,0,-4
 .368927,-0.727685,1.035856\H,0,-5.609308,0.190329,0.837105\\Version=ES
 64L-G09RevD.01\State=1-A'\HF=-76.3326459\MP2=-76.4234875\RMSD=4.401e-0
 9\PG=CS [SG(H2O1)]\\@

 A politician is a person who can make waves and then

 Normal termination of Gaussian 09 at Wed Aug 26 09:03:57 2020.
