 Gaussian 09, Revision D.01,
 Gaussian 09:  ES64L-G09RevD.01 24-Apr-2013

 --------------------
 #p B2PLYPD3/Def2QZVP
 --------------------

 ---
 h2o
 ---
 Symbolic Z-matrix:
 Charge =  0 Multiplicity = 1

                         Standard orientation:
 ---------------------------------------------------------------------
 Center     Atomic      Atomic             Coordinates (Angstroms)
 Number     Number       Type             X           Y           Z
 ---------------------------------------------------------------------
      1          8           0        0.000000    0.118431    0.000000
      2          1           0        0.776715   -0.442527    0.000000
      3          1           0       -0.776715   -0.504924    0.000000
 ---------------------------------------------------------------------

 SCF Done:  E(RB2PLYPD3) =  -76.3332762503     A.U. after   10 cycles
 E2(B2PLYPD3) =    -0.9057596942D-01 E(B2PLYPD3) =    -0.76423852219706D+02

 The electronic state is 1-A'.
 Alpha  occ. eigenvalues --  -19.73379  -1.14808  -0.60589  -0.47071  -0.39796
 Alpha virt. eigenvalues --    0.04323   0.10021   0.27608   0.30458   0.30590
 Alpha virt. eigenvalues --    0.35040   0.43506   0.50235   0.55902   0.62266
 Alpha virt. eigenvalues --    0.66050   0.80614   0.93074   0.96323   1.02537

 Mulliken charges:
               1
     1  O   -0.457631
     2  H    0.221207
     3  H    0.236424
 Sum of Mulliken charges =   0.00000

 Dipole moment (field-independent basis, Debye):
    X=              0.0189    Y=             -1.9617    Z=              0.0000  Tot=              1.9618
 Quadrupole moment (field-independent basis, Debye-Ang):
   XX=             -4.2665   YY=             -6.3546   ZZ=             -7.6361
   XY=              0.1047   XZ=              0.0000   YZ=              0.0000

 1\1\GINC-NODE34\SP\RB2PLYPD3-FC\def2QZVP\H2O1\BOITTIER\26-Aug-2020\0\\
 #p B2PLYPD3/Def2QZVP\\h2o\\0,1\O,0,-5.326605,-0.765518,0.919092\H,0,-4
 .368927,-0.744186,0.93805\H,0,-5.609308,0.176522,0.762572\\Version=ES6
 4L-G09RevD.01\State=1-A'\HF=-76.3332763\MP2=-76.4238522\RMSD=4.563e-09
 \PG=CS [SG(H2O1)]\\@

 THE ONLY EXISTING THINGS ARE ATOMS AND EMPTY SPACE;

 Normal termination of Gaussian 09 at Wed Aug 26 09:55:51 2020.
