 Gaussian 09, Revision D.01,
 Gaussian 09:  ES64L-G09RevD.01 24-Apr-2013

 --------------------
 #p B2PLYPD3/Def2QZVP
 --------------------

 ---
 h2o
 ---
 Symbolic Z-matrix:
 Charge =  0 Multiplicity = 1

                         Standard orientation:
 ---------------------------------------------------------------------
 Center     Atomic      Atomic             Coordinates (Angstroms)
 Number     Number       Type             X           Y           Z
 ---------------------------------------------------------------------
      1          8           0        0.000000    0.126477    0.000000
      2          1           0        0.748711   -0.485633    0.000000
      3          1           0       -0.748711   -0.526185    0.000000
 ---------------------------------------------------------------------

 SCF Done:  E(RB2PLYPD3) =  -76.3326681762     A.U. after   10 cycles
 E2(B2PLYPD3) =    -0.9088704935D-01 E(B2PLYPD3) =    -0.76423555225523D+02

 The electronic state is 1-A'.
 Alpha  occ. eigenvalues --  -19.73671  -1.15055  -0.59392  -0.48128  -0.39916
 Alpha virt. eigenvalues --    0.04185   0.10080   0.27747   0.30029   0.30442
 Alpha virt. eigenvalues --    0.35705   0.43434   0.49250   0.56745   0.60579
 Alpha virt. eigenvalues --    0.66248   0.80867   0.93740   0.96320   1.01444

 Mulliken charges:
               1
     1  O   -0.447447
     2  H    0.218715
     3  H    0.228733
 Sum of Mulliken charges =   0.00000

 Dipole moment (field-independent basis, Debye):
    X=              0.0148    Y=             -2.0520    Z=              0.0000  Tot=              2.0521
 Quadrupole moment (field-independent basis, Debye-Ang):
   XX=             -4.5164   YY=             -6.1834   ZZ=             -7.6327
   XY=              0.0623   XZ=              0.0000   YZ=              0.0000

 1\1\GINC-NODE26\SP\RB2PLYPD3-FC\def2QZVP\H2O1\BOITTIER\26-Aug-2020\0\\
 #p B2PLYPD3/Def2QZVP\\h2o\\0,1\O,0,-5.326605,-0.767126,0.933674\H,0,-4
 .368927,-0.679403,0.831671\H,0,-5.609308,0.137457,0.636445\\Version=ES
 64L-G09RevD.01\State=1-A'\HF=-76.3326682\MP2=-76.4235552\RMSD=4.598e-0
 9\PG=CS [SG(H2O1)]\\@

 CHILDREN YOU ARE VERY LITTLE,

 Normal termination of Gaussian 09 at Wed Aug 26 08:34:10 2020.
