 Gaussian 09, Revision D.01,
 Gaussian 09:  ES64L-G09RevD.01 24-Apr-2013

 --------------------
 #p B2PLYPD3/Def2QZVP
 --------------------

 ---
 h2o
 ---
 Symbolic Z-matrix:
 Charge =  0 Multiplicity = 1

                         Standard orientation:
 ---------------------------------------------------------------------
 Center     Atomic      Atomic             Coordinates (Angstroms)
 Number     Number       Type             X           Y           Z
 ---------------------------------------------------------------------
      1          8           0        0.000000    0.119862    0.000000
      2          1           0        0.799917   -0.408616    0.000000
      3          1           0       -0.799917   -0.550278    0.000000
 ---------------------------------------------------------------------

 SCF Done:  E(RB2PLYPD3) =  -76.3277529045     A.U. after   10 cycles
 E2(B2PLYPD3) =    -0.9135317912D-01 E(B2PLYPD3) =    -0.76419106083607D+02

 The electronic state is 1-A'.
 Alpha  occ. eigenvalues --  -19.73661  -1.13791  -0.59744  -0.46513  -0.39583
 Alpha virt. eigenvalues --    0.03961   0.09769   0.27680   0.29731   0.30515
 Alpha virt. eigenvalues --    0.34191   0.43015   0.50253   0.55365   0.62443
 Alpha virt. eigenvalues --    0.66525   0.79777   0.91651   0.96757   1.00999

 Mulliken charges:
               1
     1  O   -0.473418
     2  H    0.221705
     3  H    0.251712
 Sum of Mulliken charges =   0.00000

 Dipole moment (field-independent basis, Debye):
    X=              0.0413    Y=             -1.9591    Z=              0.0000  Tot=              1.9595
 Quadrupole moment (field-independent basis, Debye-Ang):
   XX=             -4.1691   YY=             -6.3845   ZZ=             -7.6909
   XY=              0.2442   XZ=              0.0000   YZ=              0.0000

 1\1\GINC-NODE04\SP\RB2PLYPD3-FC\def2QZVP\H2O1\BOITTIER\26-Aug-2020\0\\
 #p B2PLYPD3/Def2QZVP\\h2o\\0,1\O,0,-5.326605,-0.766731,0.917175\H,0,-4
 .368927,-0.775319,0.961164\H,0,-5.609308,0.227052,0.770791\\Version=ES
 64L-G09RevD.01\State=1-A'\HF=-76.3277529\MP2=-76.4191061\RMSD=6.276e-0
 9\PG=CS [SG(H2O1)]\\@

 10 WHATSOEVER THY HAND FINDETH TO DO, DO IT WITH THY

 Normal termination of Gaussian 09 at Wed Aug 26 08:49:37 2020.
