 Gaussian 09, Revision D.01,
 Gaussian 09:  ES64L-G09RevD.01 24-Apr-2013

 --------------------
 #p B2PLYPD3/Def2QZVP
 --------------------

 ---
 h2o
 ---
 Symbolic Z-matrix:
 Charge =  0 Multiplicity = 1

                         Standard orientation:
 ---------------------------------------------------------------------
 Center     Atomic      Atomic             Coordinates (Angstroms)
 Number     Number       Type             X           Y           Z
 ---------------------------------------------------------------------
      1          8           0        0.000000    0.116837    0.000000
      2          1           0        0.754105   -0.476152    0.000000
      3          1           0       -0.754105   -0.458544    0.000000
 ---------------------------------------------------------------------

 SCF Done:  E(RB2PLYPD3) =  -76.3351788235     A.U. after   10 cycles
 E2(B2PLYPD3) =    -0.8984308623D-01 E(B2PLYPD3) =    -0.76425021909680D+02

 The electronic state is 1-A'.
 Alpha  occ. eigenvalues --  -19.73061  -1.15921  -0.61464  -0.47560  -0.40012
 Alpha virt. eigenvalues --    0.04585   0.10257   0.27485   0.30399   0.31062
 Alpha virt. eigenvalues --    0.36149   0.44114   0.50269   0.56345   0.62171
 Alpha virt. eigenvalues --    0.65515   0.81286   0.93987   0.95831   1.04162

 Mulliken charges:
               1
     1  O   -0.438861
     2  H    0.221903
     3  H    0.216958
 Sum of Mulliken charges =   0.00000

 Dipole moment (field-independent basis, Debye):
    X=             -0.0055    Y=             -1.9605    Z=              0.0000  Tot=              1.9605
 Quadrupole moment (field-independent basis, Debye-Ang):
   XX=             -4.3552   YY=             -6.3178   ZZ=             -7.5822
   XY=             -0.0288   XZ=              0.0000   YZ=              0.0000

 1\1\GINC-NODE13\SP\RB2PLYPD3-FC\def2QZVP\H2O1\BOITTIER\26-Aug-2020\0\\
 #p B2PLYPD3/Def2QZVP\\h2o\\0,1\O,0,-5.326605,-0.763443,0.924106\H,0,-4
 .368927,-0.722913,0.88511\H,0,-5.609308,0.122052,0.735123\\Version=ES6
 4L-G09RevD.01\State=1-A'\HF=-76.3351788\MP2=-76.4250219\RMSD=4.198e-09
 \PG=CS [SG(H2O1)]\\@

 MOST BUREAUCRACIES FUNCTION LIKE A SEPTIC TANK.

 Normal termination of Gaussian 09 at Wed Aug 26 10:20:05 2020.
