 Gaussian 09, Revision D.01,
 Gaussian 09:  ES64L-G09RevD.01 24-Apr-2013

 --------------------
 #p B2PLYPD3/Def2QZVP
 --------------------

 ---
 h2o
 ---
 Symbolic Z-matrix:
 Charge =  0 Multiplicity = 1

                         Standard orientation:
 ---------------------------------------------------------------------
 Center     Atomic      Atomic             Coordinates (Angstroms)
 Number     Number       Type             X           Y           Z
 ---------------------------------------------------------------------
      1          8           0        0.000000    0.119891    0.000000
      2          1           0        0.754315   -0.474161    0.000000
      3          1           0       -0.754315   -0.484970    0.000000
 ---------------------------------------------------------------------

 SCF Done:  E(RB2PLYPD3) =  -76.3347993056     A.U. after   10 cycles
 E2(B2PLYPD3) =    -0.9020243753D-01 E(B2PLYPD3) =    -0.76425001743154D+02

 The electronic state is 1-A'.
 Alpha  occ. eigenvalues --  -19.73273  -1.15568  -0.60760  -0.47703  -0.39965
 Alpha virt. eigenvalues --    0.04452   0.10191   0.27573   0.30418   0.30739
 Alpha virt. eigenvalues --    0.35951   0.43847   0.49930   0.56443   0.61676
 Alpha virt. eigenvalues --    0.65787   0.81124   0.93869   0.96004   1.03189

 Mulliken charges:
               1
     1  O   -0.443355
     2  H    0.220231
     3  H    0.223124
 Sum of Mulliken charges =   0.00000

 Dipole moment (field-independent basis, Debye):
    X=              0.0035    Y=             -1.9890    Z=              0.0000  Tot=              1.9890
 Quadrupole moment (field-independent basis, Debye-Ang):
   XX=             -4.3965   YY=             -6.2813   ZZ=             -7.6014
   XY=              0.0174   XZ=              0.0000   YZ=              0.0000

 1\1\GINC-NODE18\SP\RB2PLYPD3-FC\def2QZVP\H2O1\BOITTIER\26-Aug-2020\0\\
 #p B2PLYPD3/Def2QZVP\\h2o\\0,1\O,0,-5.326605,-0.765385,0.924863\H,0,-4
 .368927,-0.705412,0.891007\H,0,-5.609308,0.13561,0.71717\\Version=ES64
 L-G09RevD.01\State=1-A'\HF=-76.3347993\MP2=-76.4250017\RMSD=4.197e-09\
 PG=CS [SG(H2O1)]\\@

 ONLY THE DAY DAWNS TO WHICH YOU ARE AWAKE.

 Normal termination of Gaussian 09 at Wed Aug 26 12:38:18 2020.
