 Gaussian 09, Revision D.01,
 Gaussian 09:  ES64L-G09RevD.01 24-Apr-2013

 --------------------
 #p B2PLYPD3/Def2QZVP
 --------------------

 ---
 h2o
 ---
 Symbolic Z-matrix:
 Charge =  0 Multiplicity = 1

                         Standard orientation:
 ---------------------------------------------------------------------
 Center     Atomic      Atomic             Coordinates (Angstroms)
 Number     Number       Type             X           Y           Z
 ---------------------------------------------------------------------
      1          8           0        0.000000    0.115497    0.000000
      2          1           0        0.759782   -0.468431    0.000000
      3          1           0       -0.759782   -0.455545    0.000000
 ---------------------------------------------------------------------

 SCF Done:  E(RB2PLYPD3) =  -76.3352308653     A.U. after   10 cycles
 E2(B2PLYPD3) =    -0.8982627502D-01 E(B2PLYPD3) =    -0.76425057140326D+02

 The electronic state is 1-A'.
 Alpha  occ. eigenvalues --  -19.73025  -1.15824  -0.61640  -0.47355  -0.39982
 Alpha virt. eigenvalues --    0.04601   0.10234   0.27472   0.30404   0.31157
 Alpha virt. eigenvalues --    0.35954   0.44095   0.50463   0.56182   0.62480
 Alpha virt. eigenvalues --    0.65504   0.81215   0.93875   0.95862   1.04362

 Mulliken charges:
               1
     1  O   -0.441493
     2  H    0.222538
     3  H    0.218954
 Sum of Mulliken charges =   0.00000

 Dipole moment (field-independent basis, Debye):
    X=             -0.0039    Y=             -1.9444    Z=              0.0000  Tot=              1.9444
 Quadrupole moment (field-independent basis, Debye-Ang):
   XX=             -4.3094   YY=             -6.3490   ZZ=             -7.5851
   XY=             -0.0214   XZ=              0.0000   YZ=              0.0000

 1\1\GINC-NODE34\SP\RB2PLYPD3-FC\def2QZVP\H2O1\BOITTIER\26-Aug-2020\0\\
 #p B2PLYPD3/Def2QZVP\\h2o\\0,1\O,0,-5.326605,-0.763548,0.918729\H,0,-4
 .368927,-0.731972,0.92852\H,0,-5.609308,0.132788,0.777244\\Version=ES6
 4L-G09RevD.01\State=1-A'\HF=-76.3352309\MP2=-76.4250571\RMSD=4.064e-09
 \PG=CS [SG(H2O1)]\\@

 The cat could very well be man's best friend

 Normal termination of Gaussian 09 at Wed Aug 26 10:25:06 2020.
