 Gaussian 09, Revision D.01,
 Gaussian 09:  ES64L-G09RevD.01 24-Apr-2013

 --------------------
 #p B2PLYPD3/Def2QZVP
 --------------------

 ---
 h2o
 ---
 Symbolic Z-matrix:
 Charge =  0 Multiplicity = 1

                         Standard orientation:
 ---------------------------------------------------------------------
 Center     Atomic      Atomic             Coordinates (Angstroms)
 Number     Number       Type             X           Y           Z
 ---------------------------------------------------------------------
      1          8           0        0.000000    0.115678    0.000000
      2          1           0        0.749450   -0.482666    0.000000
      3          1           0       -0.749450   -0.442762    0.000000
 ---------------------------------------------------------------------

 SCF Done:  E(RB2PLYPD3) =  -76.3349326506     A.U. after   10 cycles
 E2(B2PLYPD3) =    -0.8960531728D-01 E(B2PLYPD3) =    -0.76424537967868D+02

 The electronic state is 1-A'.
 Alpha  occ. eigenvalues --  -19.72934  -1.16260  -0.61838  -0.47611  -0.40069
 Alpha virt. eigenvalues --    0.04661   0.10319   0.27432   0.30382   0.31194
 Alpha virt. eigenvalues --    0.36434   0.44335   0.50375   0.56392   0.62299
 Alpha virt. eigenvalues --    0.65326   0.81445   0.94123   0.95697   1.04645

 Mulliken charges:
               1
     1  O   -0.433065
     2  H    0.222375
     3  H    0.210689
 Sum of Mulliken charges =   0.00000

 Dipole moment (field-independent basis, Debye):
    X=             -0.0124    Y=             -1.9521    Z=              0.0000  Tot=              1.9521
 Quadrupole moment (field-independent basis, Debye-Ang):
   XX=             -4.3616   YY=             -6.3186   ZZ=             -7.5661
   XY=             -0.0651   XZ=              0.0000   YZ=              0.0000

 1\1\GINC-NODE30\SP\RB2PLYPD3-FC\def2QZVP\H2O1\BOITTIER\26-Aug-2020\0\\
 #p B2PLYPD3/Def2QZVP\\h2o\\0,1\O,0,-5.326605,-0.763096,0.922041\H,0,-4
 .368927,-0.718094,0.899269\H,0,-5.609308,0.111673,0.753551\\Version=ES
 64L-G09RevD.01\State=1-A'\HF=-76.3349327\MP2=-76.424538\RMSD=4.540e-09
 \PG=CS [SG(H2O1)]\\@

 THE HURRIEDER I GO, THE BEHINDER I GET.

 Normal termination of Gaussian 09 at Wed Aug 26 10:19:21 2020.
