 Gaussian 09, Revision D.01,
 Gaussian 09:  ES64L-G09RevD.01 24-Apr-2013

 --------------------
 #p B2PLYPD3/Def2QZVP
 --------------------

 ---
 h2o
 ---
 Symbolic Z-matrix:
 Charge =  0 Multiplicity = 1

                         Standard orientation:
 ---------------------------------------------------------------------
 Center     Atomic      Atomic             Coordinates (Angstroms)
 Number     Number       Type             X           Y           Z
 ---------------------------------------------------------------------
      1          8           0        0.000000    0.110722    0.000000
      2          1           0        0.779880   -0.451665    0.000000
      3          1           0       -0.779880   -0.434107    0.000000
 ---------------------------------------------------------------------

 SCF Done:  E(RB2PLYPD3) =  -76.3348177953     A.U. after   10 cycles
 E2(B2PLYPD3) =    -0.8980118781D-01 E(B2PLYPD3) =    -0.76424618983104D+02

 The electronic state is 1-A'.
 Alpha  occ. eigenvalues --  -19.72899  -1.15463  -0.62213  -0.46624  -0.39872
 Alpha virt. eigenvalues --    0.04639   0.10149   0.27426   0.30420   0.31491
 Alpha virt. eigenvalues --    0.35206   0.44017   0.51236   0.55602   0.63608
 Alpha virt. eigenvalues --    0.65485   0.80838   0.93525   0.96048   1.05042

 Mulliken charges:
               1
     1  O   -0.451646
     2  H    0.228174
     3  H    0.223472
 Sum of Mulliken charges =   0.00000

 Dipole moment (field-independent basis, Debye):
    X=             -0.0046    Y=             -1.8862    Z=              0.0000  Tot=              1.8862
 Quadrupole moment (field-independent basis, Debye-Ang):
   XX=             -4.1459   YY=             -6.4590   ZZ=             -7.5974
   XY=             -0.0308   XZ=              0.0000   YZ=              0.0000

 1\1\GINC-NODE24\SP\RB2PLYPD3-FC\def2QZVP\H2O1\BOITTIER\26-Aug-2020\0\\
 #p B2PLYPD3/Def2QZVP\\h2o\\0,1\O,0,-5.326605,-0.760698,0.908969\H,0,-4
 .368927,-0.791728,0.988849\H,0,-5.609308,0.14694,0.872591\\Version=ES6
 4L-G09RevD.01\State=1-A'\HF=-76.3348178\MP2=-76.424619\RMSD=3.834e-09\
 PG=CS [SG(H2O1)]\\@

 ... THIS SEEMS PLAINLY ABSURD; BUT WHOEVER WISHES TO BECOME A

 Normal termination of Gaussian 09 at Wed Aug 26 09:19:15 2020.
