 Gaussian 09, Revision D.01,
 Gaussian 09:  ES64L-G09RevD.01 24-Apr-2013

 --------------------
 #p B2PLYPD3/Def2QZVP
 --------------------

 ---
 h2o
 ---
 Symbolic Z-matrix:
 Charge =  0 Multiplicity = 1

                         Standard orientation:
 ---------------------------------------------------------------------
 Center     Atomic      Atomic             Coordinates (Angstroms)
 Number     Number       Type             X           Y           Z
 ---------------------------------------------------------------------
      1          8           0        0.000000    0.116448    0.000000
      2          1           0        0.757621   -0.472332    0.000000
      3          1           0       -0.757621   -0.459256    0.000000
 ---------------------------------------------------------------------

 SCF Done:  E(RB2PLYPD3) =  -76.3351971354     A.U. after   10 cycles
 E2(B2PLYPD3) =    -0.8988186613D-01 E(B2PLYPD3) =    -0.76425079001492D+02

 The electronic state is 1-A'.
 Alpha  occ. eigenvalues --  -19.73069  -1.15812  -0.61472  -0.47455  -0.39987
 Alpha virt. eigenvalues --    0.04577   0.10234   0.27489   0.30405   0.31075
 Alpha virt. eigenvalues --    0.36005   0.44065   0.50336   0.56260   0.62289
 Alpha virt. eigenvalues --    0.65546   0.81222   0.93900   0.95872   1.04145

 Mulliken charges:
               1
     1  O   -0.441122
     2  H    0.222374
     3  H    0.218748
 Sum of Mulliken charges =   0.00000

 Dipole moment (field-independent basis, Debye):
    X=             -0.0040    Y=             -1.9548    Z=              0.0000  Tot=              1.9548
 Quadrupole moment (field-independent basis, Debye-Ang):
   XX=             -4.3329   YY=             -6.3318   ZZ=             -7.5867
   XY=             -0.0215   XZ=              0.0000   YZ=              0.0000

 1\1\GINC-NODE31\SP\RB2PLYPD3-FC\def2QZVP\H2O1\BOITTIER\26-Aug-2020\0\\
 #p B2PLYPD3/Def2QZVP\\h2o\\0,1\O,0,-5.326605,-0.762902,0.925162\H,0,-4
 .368927,-0.734015,0.873485\H,0,-5.609308,0.124495,0.730147\\Version=ES
 64L-G09RevD.01\State=1-A'\HF=-76.3351971\MP2=-76.425079\RMSD=4.108e-09
 \PG=CS [SG(H2O1)]\\@

 IF YOU WISH TO UNDERSTAND THE FRAGRANCE OF THE ROSE,

 Normal termination of Gaussian 09 at Wed Aug 26 12:46:11 2020.
