 Gaussian 09, Revision D.01,
 Gaussian 09:  ES64L-G09RevD.01 24-Apr-2013

 --------------------
 #p B2PLYPD3/Def2QZVP
 --------------------

 ---
 h2o
 ---
 Symbolic Z-matrix:
 Charge =  0 Multiplicity = 1

                         Standard orientation:
 ---------------------------------------------------------------------
 Center     Atomic      Atomic             Coordinates (Angstroms)
 Number     Number       Type             X           Y           Z
 ---------------------------------------------------------------------
      1          8           0        0.000000    0.114168    0.000000
      2          1           0        0.782212   -0.438632    0.000000
      3          1           0       -0.782212   -0.474711    0.000000
 ---------------------------------------------------------------------

 SCF Done:  E(RB2PLYPD3) =  -76.3342419891     A.U. after   10 cycles
 E2(B2PLYPD3) =    -0.9022772673D-01 E(B2PLYPD3) =    -0.76424469715875D+02

 The electronic state is 1-A'.
 Alpha  occ. eigenvalues --  -19.73149  -1.15015  -0.61390  -0.46743  -0.39805
 Alpha virt. eigenvalues --    0.04473   0.10063   0.27518   0.30447   0.31078
 Alpha virt. eigenvalues --    0.34970   0.43697   0.50804   0.55669   0.63047
 Alpha virt. eigenvalues --    0.65805   0.80642   0.93232   0.96224   1.03726

 Mulliken charges:
               1
     1  O   -0.457532
     2  H    0.224213
     3  H    0.233318
 Sum of Mulliken charges =   0.00000

 Dipole moment (field-independent basis, Debye):
    X=              0.0100    Y=             -1.9182    Z=              0.0000  Tot=              1.9183
 Quadrupole moment (field-independent basis, Debye-Ang):
   XX=             -4.1806   YY=             -6.4230   ZZ=             -7.6218
   XY=              0.0624   XZ=              0.0000   YZ=              0.0000

 1\1\GINC-NODE39\SP\RB2PLYPD3-FC\def2QZVP\H2O1\BOITTIER\26-Aug-2020\0\\
 #p B2PLYPD3/Def2QZVP\\h2o\\0,1\O,0,-5.326605,-0.762665,0.918502\H,0,-4
 .368927,-0.778479,0.925337\H,0,-5.609308,0.165164,0.784912\\Version=ES
 64L-G09RevD.01\State=1-A'\HF=-76.334242\MP2=-76.4244697\RMSD=4.055e-09
 \PG=CS [SG(H2O1)]\\@

 Human beings, who are almost unique in having the

 Normal termination of Gaussian 09 at Wed Aug 26 11:17:20 2020.
