 Gaussian 09, Revision D.01,
 Gaussian 09:  ES64L-G09RevD.01 24-Apr-2013

 --------------------
 #p B2PLYPD3/Def2QZVP
 --------------------

 ---
 h2o
 ---
 Symbolic Z-matrix:
 Charge =  0 Multiplicity = 1

                         Standard orientation:
 ---------------------------------------------------------------------
 Center     Atomic      Atomic             Coordinates (Angstroms)
 Number     Number       Type             X           Y           Z
 ---------------------------------------------------------------------
      1          8           0        0.000000    0.119065    0.000000
      2          1           0        0.773354   -0.457630    0.000000
      3          1           0       -0.773354   -0.494887    0.000000
 ---------------------------------------------------------------------

 SCF Done:  E(RB2PLYPD3) =  -76.3337757897     A.U. after   10 cycles
 E2(B2PLYPD3) =    -0.9056196978D-01 E(B2PLYPD3) =    -0.76424337759524D+02

 The electronic state is 1-A'.
 Alpha  occ. eigenvalues --  -19.73393  -1.14871  -0.60527  -0.47194  -0.39817
 Alpha virt. eigenvalues --    0.04336   0.10037   0.27618   0.30455   0.30617
 Alpha virt. eigenvalues --    0.35134   0.43510   0.50133   0.56008   0.62098
 Alpha virt. eigenvalues --    0.66055   0.80689   0.93237   0.96278   1.02607

 Mulliken charges:
               1
     1  O   -0.456186
     2  H    0.223516
     3  H    0.232671
 Sum of Mulliken charges =   0.00000

 Dipole moment (field-independent basis, Debye):
    X=              0.0115    Y=             -1.9699    Z=              0.0000  Tot=              1.9700
 Quadrupole moment (field-independent basis, Debye-Ang):
   XX=             -4.2920   YY=             -6.3399   ZZ=             -7.6331
   XY=              0.0620   XZ=              0.0000   YZ=              0.0000

 1\1\GINC-NODE32\SP\RB2PLYPD3-FC\def2QZVP\H2O1\BOITTIER\26-Aug-2020\0\\
 #p B2PLYPD3/Def2QZVP\\h2o\\0,1\O,0,-5.326605,-0.766458,0.90953\H,0,-4.
 368927,-0.729134,1.019589\H,0,-5.609308,0.1765,0.83257\\Version=ES64L-
 G09RevD.01\State=1-A'\HF=-76.3337758\MP2=-76.4243378\RMSD=4.165e-09\PG
 =CS [SG(H2O1)]\\@

 THE CHYMISTS ARE A STRANGE CLASS OF MORTALS IMPELLED

 Normal termination of Gaussian 09 at Wed Aug 26 09:27:35 2020.
