 Gaussian 09, Revision D.01,
 Gaussian 09:  ES64L-G09RevD.01 24-Apr-2013

 --------------------
 #p B2PLYPD3/Def2QZVP
 --------------------

 ---
 h2o
 ---
 Symbolic Z-matrix:
 Charge =  0 Multiplicity = 1

                         Standard orientation:
 ---------------------------------------------------------------------
 Center     Atomic      Atomic             Coordinates (Angstroms)
 Number     Number       Type             X           Y           Z
 ---------------------------------------------------------------------
      1          8           0        0.000000    0.122812    0.000000
      2          1           0        0.791528   -0.416889    0.000000
      3          1           0       -0.791528   -0.565607    0.000000
 ---------------------------------------------------------------------

 SCF Done:  E(RB2PLYPD3) =  -76.3271468828     A.U. after   10 cycles
 E2(B2PLYPD3) =    -0.9149545150D-01 E(B2PLYPD3) =    -0.76418642334276D+02

 The electronic state is 1-A'.
 Alpha  occ. eigenvalues --  -19.73777  -1.13834  -0.59330  -0.46830  -0.39618
 Alpha virt. eigenvalues --    0.03890   0.09774   0.27739   0.29442   0.30509
 Alpha virt. eigenvalues --    0.34391   0.43003   0.49834   0.55598   0.61873
 Alpha virt. eigenvalues --    0.66597   0.79904   0.91612   0.96771   1.00672

 Mulliken charges:
               1
     1  O   -0.469597
     2  H    0.219112
     3  H    0.250485
 Sum of Mulliken charges =   0.00000

 Dipole moment (field-independent basis, Debye):
    X=              0.0464    Y=             -1.9909    Z=              0.0000  Tot=              1.9915
 Quadrupole moment (field-independent basis, Debye-Ang):
   XX=             -4.2528   YY=             -6.3245   ZZ=             -7.6920
   XY=              0.2495   XZ=              0.0000   YZ=              0.0000

 1\1\GINC-NODE08\SP\RB2PLYPD3-FC\def2QZVP\H2O1\BOITTIER\26-Aug-2020\0\\
 #p B2PLYPD3/Def2QZVP\\h2o\\0,1\O,0,-5.326605,-0.768168,0.921191\H,0,-4
 .368927,-0.749042,0.937972\H,0,-5.609308,0.22377,0.729943\\Version=ES6
 4L-G09RevD.01\State=1-A'\HF=-76.3271469\MP2=-76.4186423\RMSD=6.261e-09
 \PG=CS [SG(H2O1)]\\@

 THE DIFFERENCE BETWEEN A NOOSE AND A HALO IS ONLY 12 INCHES.

 Normal termination of Gaussian 09 at Wed Aug 26 08:33:31 2020.
