 Gaussian 09, Revision D.01,
 Gaussian 09:  ES64L-G09RevD.01 24-Apr-2013

 --------------------
 #p B2PLYPD3/Def2QZVP
 --------------------

 ---
 h2o
 ---
 Symbolic Z-matrix:
 Charge =  0 Multiplicity = 1

                         Standard orientation:
 ---------------------------------------------------------------------
 Center     Atomic      Atomic             Coordinates (Angstroms)
 Number     Number       Type             X           Y           Z
 ---------------------------------------------------------------------
      1          8           0        0.000000    0.115632    0.000000
      2          1           0        0.742361   -0.495030    0.000000
      3          1           0       -0.742361   -0.430023    0.000000
 ---------------------------------------------------------------------

 SCF Done:  E(RB2PLYPD3) =  -76.3341839064     A.U. after   10 cycles
 E2(B2PLYPD3) =    -0.8944050537D-01 E(B2PLYPD3) =    -0.76423624411750D+02

 The electronic state is 1-A'.
 Alpha  occ. eigenvalues --  -19.72856  -1.16590  -0.62009  -0.47770  -0.40130
 Alpha virt. eigenvalues --    0.04699   0.10379   0.27395   0.30366   0.31206
 Alpha virt. eigenvalues --    0.36765   0.44534   0.50340   0.56518   0.62211
 Alpha virt. eigenvalues --    0.65185   0.81589   0.94233   0.95599   1.04776

 Mulliken charges:
               1
     1  O   -0.426549
     2  H    0.223167
     3  H    0.203383
 Sum of Mulliken charges =   0.00000

 Dipole moment (field-independent basis, Debye):
    X=             -0.0205    Y=             -1.9554    Z=              0.0000  Tot=              1.9555
 Quadrupole moment (field-independent basis, Debye-Ang):
   XX=             -4.3945   YY=             -6.2986   ZZ=             -7.5523
   XY=             -0.1049   XZ=              0.0000   YZ=              0.0000

 1\1\GINC-NODE40\SP\RB2PLYPD3-FC\def2QZVP\H2O1\BOITTIER\26-Aug-2020\0\\
 #p B2PLYPD3/Def2QZVP\\h2o\\0,1\O,0,-5.326605,-0.761955,0.926431\H,0,-4
 .368927,-0.716301,0.857316\H,0,-5.609308,0.091621,0.725618\\Version=ES
 64L-G09RevD.01\State=1-A'\HF=-76.3341839\MP2=-76.4236244\RMSD=5.162e-0
 9\PG=CS [SG(H2O1)]\\@

 IT IS BY LOGIC THAT WE PROVE, BUT BY INTUITION THAT WE DISCOVER.

 Normal termination of Gaussian 09 at Wed Aug 26 08:32:37 2020.
