 Gaussian 09, Revision D.01,
 Gaussian 09:  ES64L-G09RevD.01 24-Apr-2013

 --------------------
 #p B2PLYPD3/Def2QZVP
 --------------------

 ---
 h2o
 ---
 Symbolic Z-matrix:
 Charge =  0 Multiplicity = 1

                         Standard orientation:
 ---------------------------------------------------------------------
 Center     Atomic      Atomic             Coordinates (Angstroms)
 Number     Number       Type             X           Y           Z
 ---------------------------------------------------------------------
      1          8           0        0.000000    0.113086    0.000000
      2          1           0        0.754567   -0.477206    0.000000
      3          1           0       -0.754567   -0.427479    0.000000
 ---------------------------------------------------------------------

 SCF Done:  E(RB2PLYPD3) =  -76.3347198350     A.U. after   10 cycles
 E2(B2PLYPD3) =    -0.8944217092D-01 E(B2PLYPD3) =    -0.76424162005881D+02

 The electronic state is 1-A'.
 Alpha  occ. eigenvalues --  -19.72805  -1.16327  -0.62320  -0.47348  -0.40063
 Alpha virt. eigenvalues --    0.04729   0.10322   0.27382   0.30376   0.31398
 Alpha virt. eigenvalues --    0.36321   0.44444   0.50721   0.56188   0.62821
 Alpha virt. eigenvalues --    0.65196   0.81444   0.94050   0.95667   1.05157

 Mulliken charges:
               1
     1  O   -0.433034
     2  H    0.223879
     3  H    0.209155
 Sum of Mulliken charges =   0.00000

 Dipole moment (field-independent basis, Debye):
    X=             -0.0146    Y=             -1.9240    Z=              0.0000  Tot=              1.9241
 Quadrupole moment (field-independent basis, Debye-Ang):
   XX=             -4.3018   YY=             -6.3623   ZZ=             -7.5605
   XY=             -0.0829   XZ=              0.0000   YZ=              0.0000

 1\1\GINC-NODE28\SP\RB2PLYPD3-FC\def2QZVP\H2O1\BOITTIER\26-Aug-2020\0\\
 #p B2PLYPD3/Def2QZVP\\h2o\\0,1\O,0,-5.326605,-0.761992,0.917832\H,0,-4
 .368927,-0.737465,0.925996\H,0,-5.609308,0.113385,0.793837\\Version=ES
 64L-G09RevD.01\State=1-A'\HF=-76.3347198\MP2=-76.424162\RMSD=4.676e-09
 \PG=CS [SG(H2O1)]\\@

 THE NUMBERS ARE MEANINGLESS, BUT THE TRENDS ARE IMPORTANT.

 Normal termination of Gaussian 09 at Wed Aug 26 11:42:23 2020.
