 Gaussian 09, Revision D.01,
 Gaussian 09:  ES64L-G09RevD.01 24-Apr-2013

 --------------------
 #p B2PLYPD3/Def2QZVP
 --------------------

 ---
 h2o
 ---
 Symbolic Z-matrix:
 Charge =  0 Multiplicity = 1

                         Standard orientation:
 ---------------------------------------------------------------------
 Center     Atomic      Atomic             Coordinates (Angstroms)
 Number     Number       Type             X           Y           Z
 ---------------------------------------------------------------------
      1          8           0        0.000000    0.119578    0.000000
      2          1           0        0.752672   -0.478510    0.000000
      3          1           0       -0.752672   -0.478116    0.000000
 ---------------------------------------------------------------------

 SCF Done:  E(RB2PLYPD3) =  -76.3349228441     A.U. after   10 cycles
 E2(B2PLYPD3) =    -0.9012667349D-01 E(B2PLYPD3) =    -0.76425049517581D+02

 The electronic state is 1-A'.
 Alpha  occ. eigenvalues --  -19.73236  -1.15672  -0.60867  -0.47730  -0.39983
 Alpha virt. eigenvalues --    0.04478   0.10212   0.27558   0.30413   0.30791
 Alpha virt. eigenvalues --    0.36047   0.43909   0.49956   0.56468   0.61701
 Alpha virt. eigenvalues --    0.65730   0.81177   0.93938   0.95957   1.03364

 Mulliken charges:
               1
     1  O   -0.441715
     2  H    0.220911
     3  H    0.220804
 Sum of Mulliken charges =   0.00000

 Dipole moment (field-independent basis, Debye):
    X=             -0.0001    Y=             -1.9871    Z=              0.0000  Tot=              1.9871
 Quadrupole moment (field-independent basis, Debye-Ang):
   XX=             -4.4000   YY=             -6.2809   ZZ=             -7.5963
   XY=             -0.0006   XZ=              0.0000   YZ=              0.0000

 1\1\GINC-NODE03\SP\RB2PLYPD3-FC\def2QZVP\H2O1\BOITTIER\26-Aug-2020\0\\
 #p B2PLYPD3/Def2QZVP\\h2o\\0,1\O,0,-5.326605,-0.766498,0.91745\H,0,-4.
 368927,-0.692033,0.956603\H,0,-5.609308,0.140046,0.769087\\Version=ES6
 4L-G09RevD.01\State=1-A'\HF=-76.3349228\MP2=-76.4250495\RMSD=4.198e-09
 \PG=CS [SG(H2O1)]\\@

 WHAT, THEN, IS TIME?  IF NO ONE ASKS ME, I KNOW WHAT IT IS.

 Normal termination of Gaussian 09 at Wed Aug 26 08:33:42 2020.
