 Gaussian 09, Revision D.01,
 Gaussian 09:  ES64L-G09RevD.01 24-Apr-2013

 --------------------
 #p B2PLYPD3/Def2QZVP
 --------------------

 ---
 h2o
 ---
 Symbolic Z-matrix:
 Charge =  0 Multiplicity = 1

                         Standard orientation:
 ---------------------------------------------------------------------
 Center     Atomic      Atomic             Coordinates (Angstroms)
 Number     Number       Type             X           Y           Z
 ---------------------------------------------------------------------
      1          8           0        0.000000    0.119045    0.000000
      2          1           0        0.767318   -0.464165    0.000000
      3          1           0       -0.767318   -0.488195    0.000000
 ---------------------------------------------------------------------

 SCF Done:  E(RB2PLYPD3) =  -76.3343283553     A.U. after   10 cycles
 E2(B2PLYPD3) =    -0.9041243247D-01 E(B2PLYPD3) =    -0.76424740787732D+02

 The electronic state is 1-A'.
 Alpha  occ. eigenvalues --  -19.73337  -1.15119  -0.60667  -0.47343  -0.39868
 Alpha virt. eigenvalues --    0.04389   0.10092   0.27597   0.30441   0.30698
 Alpha virt. eigenvalues --    0.35406   0.43636   0.50097   0.56140   0.62009
 Alpha virt. eigenvalues --    0.65947   0.80852   0.93466   0.96176   1.02890

 Mulliken charges:
               1
     1  O   -0.451863
     2  H    0.222885
     3  H    0.228978
 Sum of Mulliken charges =   0.00000

 Dipole moment (field-independent basis, Debye):
    X=              0.0075    Y=             -1.9734    Z=              0.0000  Tot=              1.9734
 Quadrupole moment (field-independent basis, Debye-Ang):
   XX=             -4.3215   YY=             -6.3251   ZZ=             -7.6212
   XY=              0.0396   XZ=              0.0000   YZ=              0.0000

 1\1\GINC-NODE12\SP\RB2PLYPD3-FC\def2QZVP\H2O1\BOITTIER\26-Aug-2020\0\\
 #p B2PLYPD3/Def2QZVP\\h2o\\0,1\O,0,-5.326605,-0.766474,0.910967\H,0,-4
 .368927,-0.718364,1.008171\H,0,-5.609308,0.165992,0.82095\\Version=ES6
 4L-G09RevD.01\State=1-A'\HF=-76.3343284\MP2=-76.4247408\RMSD=4.084e-09
 \PG=CS [SG(H2O1)]\\@

 A leading authority is anyone who has guessed right more than once.

 Normal termination of Gaussian 09 at Wed Aug 26 08:24:52 2020.
