 Gaussian 09, Revision D.01,
 Gaussian 09:  ES64L-G09RevD.01 24-Apr-2013

 --------------------
 #p B2PLYPD3/Def2QZVP
 --------------------

 ---
 h2o
 ---
 Symbolic Z-matrix:
 Charge =  0 Multiplicity = 1

                         Standard orientation:
 ---------------------------------------------------------------------
 Center     Atomic      Atomic             Coordinates (Angstroms)
 Number     Number       Type             X           Y           Z
 ---------------------------------------------------------------------
      1          8           0        0.000000    0.118932    0.000000
      2          1           0        0.755716   -0.472152    0.000000
      3          1           0       -0.755716   -0.479301    0.000000
 ---------------------------------------------------------------------

 SCF Done:  E(RB2PLYPD3) =  -76.3349500776     A.U. after   10 cycles
 E2(B2PLYPD3) =    -0.9012228865D-01 E(B2PLYPD3) =    -0.76425072366302D+02

 The electronic state is 1-A'.
 Alpha  occ. eigenvalues --  -19.73221  -1.15616  -0.60948  -0.47624  -0.39967
 Alpha virt. eigenvalues --    0.04484   0.10199   0.27551   0.30416   0.30831
 Alpha virt. eigenvalues --    0.35948   0.43897   0.50043   0.56383   0.61852
 Alpha virt. eigenvalues --    0.65728   0.81142   0.93864   0.95973   1.03435

 Mulliken charges:
               1
     1  O   -0.443124
     2  H    0.220598
     3  H    0.222526
 Sum of Mulliken charges =   0.00000

 Dipole moment (field-independent basis, Debye):
    X=              0.0023    Y=             -1.9793    Z=              0.0000  Tot=              1.9793
 Quadrupole moment (field-independent basis, Debye-Ang):
   XX=             -4.3764   YY=             -6.2967   ZZ=             -7.5982
   XY=              0.0116   XZ=              0.0000   YZ=              0.0000

 1\1\GINC-NODE09\SP\RB2PLYPD3-FC\def2QZVP\H2O1\BOITTIER\26-Aug-2020\0\\
 #p B2PLYPD3/Def2QZVP\\h2o\\0,1\O,0,-5.326605,-0.765279,0.922409\H,0,-4
 .368927,-0.708875,0.909856\H,0,-5.609308,0.137388,0.737313\\Version=ES
 64L-G09RevD.01\State=1-A'\HF=-76.3349501\MP2=-76.4250724\RMSD=4.146e-0
 9\PG=CS [SG(H2O1)]\\@

 I KNOW YOU BELIEVE YOU UNDERSTAND WHAT YOU THINK I SAID,

 Normal termination of Gaussian 09 at Wed Aug 26 10:18:50 2020.
