 Gaussian 09, Revision D.01,
 Gaussian 09:  ES64L-G09RevD.01 24-Apr-2013

 --------------------
 #p B2PLYPD3/Def2QZVP
 --------------------

 ---
 h2o
 ---
 Symbolic Z-matrix:
 Charge =  0 Multiplicity = 1

                         Standard orientation:
 ---------------------------------------------------------------------
 Center     Atomic      Atomic             Coordinates (Angstroms)
 Number     Number       Type             X           Y           Z
 ---------------------------------------------------------------------
      1          8           0        0.000000    0.115431    0.000000
      2          1           0        0.748477   -0.495656    0.000000
      3          1           0       -0.748477   -0.427795    0.000000
 ---------------------------------------------------------------------

 SCF Done:  E(RB2PLYPD3) =  -76.3343109356     A.U. after   10 cycles
 E2(B2PLYPD3) =    -0.8956167318D-01 E(B2PLYPD3) =    -0.76423872608777D+02

 The electronic state is 1-A'.
 Alpha  occ. eigenvalues --  -19.72903  -1.16341  -0.61917  -0.47607  -0.40079
 Alpha virt. eigenvalues --    0.04663   0.10331   0.27415   0.30378   0.31167
 Alpha virt. eigenvalues --    0.36492   0.44407   0.50404   0.56382   0.62343
 Alpha virt. eigenvalues --    0.65276   0.81465   0.94057   0.95702   1.04528

 Mulliken charges:
               1
     1  O   -0.431325
     2  H    0.225689
     3  H    0.205635
 Sum of Mulliken charges =   0.00000

 Dipole moment (field-independent basis, Debye):
    X=             -0.0210    Y=             -1.9500    Z=              0.0000  Tot=              1.9501
 Quadrupole moment (field-independent basis, Debye-Ang):
   XX=             -4.3627   YY=             -6.3169   ZZ=             -7.5631
   XY=             -0.1107   XZ=              0.0000   YZ=              0.0000

 1\1\GINC-NODE04\SP\RB2PLYPD3-FC\def2QZVP\H2O1\BOITTIER\26-Aug-2020\0\\
 #p B2PLYPD3/Def2QZVP\\h2o\\0,1\O,0,-5.326605,-0.759965,0.931626\H,0,-4
 .368927,-0.745222,0.804025\H,0,-5.609308,0.088703,0.696775\\Version=ES
 64L-G09RevD.01\State=1-A'\HF=-76.3343109\MP2=-76.4238726\RMSD=5.098e-0
 9\PG=CS [SG(H2O1)]\\@

 WHAT THE SLIME CONTAINS, THE GLOWING REVEALS

 Normal termination of Gaussian 09 at Wed Aug 26 09:27:04 2020.
