 Gaussian 09, Revision D.01,
 Gaussian 09:  ES64L-G09RevD.01 24-Apr-2013

 --------------------
 #p B2PLYPD3/Def2QZVP
 --------------------

 ---
 h2o
 ---
 Symbolic Z-matrix:
 Charge =  0 Multiplicity = 1

                         Standard orientation:
 ---------------------------------------------------------------------
 Center     Atomic      Atomic             Coordinates (Angstroms)
 Number     Number       Type             X           Y           Z
 ---------------------------------------------------------------------
      1          8           0        0.000000    0.123956    0.000000
      2          1           0        0.759927   -0.464898    0.000000
      3          1           0       -0.759927   -0.526751    0.000000
 ---------------------------------------------------------------------

 SCF Done:  E(RB2PLYPD3) =  -76.3326398494     A.U. after   10 cycles
 E2(B2PLYPD3) =    -0.9083406327D-01 E(B2PLYPD3) =    -0.76423473912693D+02

 The electronic state is 1-A'.
 Alpha  occ. eigenvalues --  -19.73597  -1.14895  -0.59738  -0.47731  -0.39861
 Alpha virt. eigenvalues --    0.04208   0.10042   0.27707   0.30142   0.30452
 Alpha virt. eigenvalues --    0.35435   0.43430   0.49529   0.56416   0.61142
 Alpha virt. eigenvalues --    0.66222   0.80762   0.93351   0.96351   1.01662

 Mulliken charges:
               1
     1  O   -0.451754
     2  H    0.218349
     3  H    0.233405
 Sum of Mulliken charges =   0.00000

 Dipole moment (field-independent basis, Debye):
    X=              0.0213    Y=             -2.0225    Z=              0.0000  Tot=              2.0226
 Quadrupole moment (field-independent basis, Debye-Ang):
   XX=             -4.4263   YY=             -6.2425   ZZ=             -7.6377
   XY=              0.0981   XZ=              0.0000   YZ=              0.0000

 1\1\GINC-NODE07\SP\RB2PLYPD3-FC\def2QZVP\H2O1\BOITTIER\26-Aug-2020\0\\
 #p B2PLYPD3/Def2QZVP\\h2o\\0,1\O,0,-5.326605,-0.767422,0.927733\H,0,-4
 .368927,-0.697465,0.880846\H,0,-5.609308,0.16026,0.68198\\Version=ES64
 L-G09RevD.01\State=1-A'\HF=-76.3326398\MP2=-76.4234739\RMSD=4.694e-09\
 PG=CS [SG(H2O1)]\\@

 IN THE LONG RUN, DIGGING FOR TRUTH HAS ALWAYS PROVED NOT ONLY

 Normal termination of Gaussian 09 at Wed Aug 26 08:34:06 2020.
