 Gaussian 09, Revision D.01,
 Gaussian 09:  ES64L-G09RevD.01 24-Apr-2013

 --------------------
 #p B2PLYPD3/Def2QZVP
 --------------------

 ---
 h2o
 ---
 Symbolic Z-matrix:
 Charge =  0 Multiplicity = 1

                         Standard orientation:
 ---------------------------------------------------------------------
 Center     Atomic      Atomic             Coordinates (Angstroms)
 Number     Number       Type             X           Y           Z
 ---------------------------------------------------------------------
      1          8           0        0.000000    0.116994    0.000000
      2          1           0        0.744499   -0.490390    0.000000
      3          1           0       -0.744499   -0.445563    0.000000
 ---------------------------------------------------------------------

 SCF Done:  E(RB2PLYPD3) =  -76.3347614516     A.U. after   10 cycles
 E2(B2PLYPD3) =    -0.8963990214D-01 E(B2PLYPD3) =    -0.76424401353764D+02

 The electronic state is 1-A'.
 Alpha  occ. eigenvalues --  -19.72975  -1.16330  -0.61641  -0.47797  -0.40091
 Alpha virt. eigenvalues --    0.04637   0.10336   0.27447   0.30379   0.31092
 Alpha virt. eigenvalues --    0.36591   0.44341   0.50197   0.56538   0.62008
 Alpha virt. eigenvalues --    0.65348   0.81482   0.94206   0.95686   1.04418

 Mulliken charges:
               1
     1  O   -0.431050
     2  H    0.222130
     3  H    0.208920
 Sum of Mulliken charges =   0.00000

 Dipole moment (field-independent basis, Debye):
    X=             -0.0144    Y=             -1.9674    Z=              0.0000  Tot=              1.9674
 Quadrupole moment (field-independent basis, Debye-Ang):
   XX=             -4.4032   YY=             -6.2895   ZZ=             -7.5647
   XY=             -0.0721   XZ=              0.0000   YZ=              0.0000

 1\1\GINC-NODE21\SP\RB2PLYPD3-FC\def2QZVP\H2O1\BOITTIER\26-Aug-2020\0\\
 #p B2PLYPD3/Def2QZVP\\h2o\\0,1\O,0,-5.326605,-0.76312,0.925746\H,0,-4.
 368927,-0.708989,0.869925\H,0,-5.609308,0.102957,0.723909\\Version=ES6
 4L-G09RevD.01\State=1-A'\HF=-76.3347615\MP2=-76.4244014\RMSD=4.709e-09
 \PG=CS [SG(H2O1)]\\@

 THE ONLY EXISTING THINGS ARE ATOMS AND EMPTY SPACE;

 Normal termination of Gaussian 09 at Wed Aug 26 08:31:29 2020.
