 Gaussian 09, Revision D.01,
 Gaussian 09:  ES64L-G09RevD.01 24-Apr-2013

 --------------------
 #p B2PLYPD3/Def2QZVP
 --------------------

 ---
 h2o
 ---
 Symbolic Z-matrix:
 Charge =  0 Multiplicity = 1

                         Standard orientation:
 ---------------------------------------------------------------------
 Center     Atomic      Atomic             Coordinates (Angstroms)
 Number     Number       Type             X           Y           Z
 ---------------------------------------------------------------------
      1          8           0        0.000000    0.121823    0.000000
      2          1           0        0.754295   -0.474750    0.000000
      3          1           0       -0.754295   -0.499834    0.000000
 ---------------------------------------------------------------------

 SCF Done:  E(RB2PLYPD3) =  -76.3342409817     A.U. after   10 cycles
 E2(B2PLYPD3) =    -0.9043438628D-01 E(B2PLYPD3) =    -0.76424675367974D+02

 The electronic state is 1-A'.
 Alpha  occ. eigenvalues --  -19.73405  -1.15352  -0.60324  -0.47791  -0.39937
 Alpha virt. eigenvalues --    0.04364   0.10146   0.27629   0.30429   0.30517
 Alpha virt. eigenvalues --    0.35821   0.43691   0.49725   0.56499   0.61371
 Alpha virt. eigenvalues --    0.65953   0.81018   0.93774   0.96119   1.02576

 Mulliken charges:
               1
     1  O   -0.445777
     2  H    0.219634
     3  H    0.226143
 Sum of Mulliken charges =   0.00000

 Dipole moment (field-independent basis, Debye):
    X=              0.0085    Y=             -2.0068    Z=              0.0000  Tot=              2.0068
 Quadrupole moment (field-independent basis, Debye-Ang):
   XX=             -4.4236   YY=             -6.2570   ZZ=             -7.6135
   XY=              0.0399   XZ=              0.0000   YZ=              0.0000

 1\1\GINC-NODE34\SP\RB2PLYPD3-FC\def2QZVP\H2O1\BOITTIER\26-Aug-2020\0\\
 #p B2PLYPD3/Def2QZVP\\h2o\\0,1\O,0,-5.326605,-0.765843,0.928052\H,0,-4
 .368927,-0.701275,0.868515\H,0,-5.609308,0.138799,0.689053\\Version=ES
 64L-G09RevD.01\State=1-A'\HF=-76.334241\MP2=-76.4246754\RMSD=4.314e-09
 \PG=CS [SG(H2O1)]\\@

 I think that all right-thinking people in this

 Normal termination of Gaussian 09 at Wed Aug 26 12:28:17 2020.
