 Gaussian 09, Revision D.01,
 Gaussian 09:  ES64L-G09RevD.01 24-Apr-2013

 --------------------
 #p B2PLYPD3/Def2QZVP
 --------------------

 ---
 h2o
 ---
 Symbolic Z-matrix:
 Charge =  0 Multiplicity = 1

                         Standard orientation:
 ---------------------------------------------------------------------
 Center     Atomic      Atomic             Coordinates (Angstroms)
 Number     Number       Type             X           Y           Z
 ---------------------------------------------------------------------
      1          8           0        0.000000    0.114083    0.000000
      2          1           0        0.784936   -0.435431    0.000000
      3          1           0       -0.784936   -0.477236    0.000000
 ---------------------------------------------------------------------

 SCF Done:  E(RB2PLYPD3) =  -76.3339853197     A.U. after   10 cycles
 E2(B2PLYPD3) =    -0.9028719335D-01 E(B2PLYPD3) =    -0.76424272513088D+02

 The electronic state is 1-A'.
 Alpha  occ. eigenvalues --  -19.73169  -1.14911  -0.61339  -0.46672  -0.39783
 Alpha virt. eigenvalues --    0.04451   0.10040   0.27524   0.30453   0.31050
 Alpha virt. eigenvalues --    0.34853   0.43645   0.50840   0.55608   0.63103
 Alpha virt. eigenvalues --    0.65849   0.80559   0.93141   0.96273   1.03599

 Mulliken charges:
               1
     1  O   -0.459519
     2  H    0.224552
     3  H    0.234968
 Sum of Mulliken charges =   0.00000

 Dipole moment (field-independent basis, Debye):
    X=              0.0115    Y=             -1.9157    Z=              0.0000  Tot=              1.9158
 Quadrupole moment (field-independent basis, Debye-Ang):
   XX=             -4.1658   YY=             -6.4308   ZZ=             -7.6268
   XY=              0.0726   XZ=              0.0000   YZ=              0.0000

 1\1\GINC-NODE04\SP\RB2PLYPD3-FC\def2QZVP\H2O1\BOITTIER\26-Aug-2020\0\\
 #p B2PLYPD3/Def2QZVP\\h2o\\0,1\O,0,-5.326605,-0.762827,0.916668\H,0,-4
 .368927,-0.781655,0.94093\H,0,-5.609308,0.17093,0.798516\\Version=ES64
 L-G09RevD.01\State=1-A'\HF=-76.3339853\MP2=-76.4242725\RMSD=4.132e-09\
 PG=CS [SG(H2O1)]\\@

 ... SUBJECTS WHICH DISCLOSE THEIR FULL POWER, MEANING AND BEAUTY AS SOON

 Normal termination of Gaussian 09 at Wed Aug 26 11:29:09 2020.
