 Gaussian 09, Revision D.01,
 Gaussian 09:  ES64L-G09RevD.01 24-Apr-2013

 --------------------
 #p B2PLYPD3/Def2QZVP
 --------------------

 ---
 h2o
 ---
 Symbolic Z-matrix:
 Charge =  0 Multiplicity = 1

                         Standard orientation:
 ---------------------------------------------------------------------
 Center     Atomic      Atomic             Coordinates (Angstroms)
 Number     Number       Type             X           Y           Z
 ---------------------------------------------------------------------
      1          8           0        0.000000    0.119171    0.000000
      2          1           0        0.744722   -0.488083    0.000000
      3          1           0       -0.744722   -0.465283    0.000000
 ---------------------------------------------------------------------

 SCF Done:  E(RB2PLYPD3) =  -76.3349531999     A.U. after   10 cycles
 E2(B2PLYPD3) =    -0.8989470799D-01 E(B2PLYPD3) =    -0.76424847907858D+02

 The electronic state is 1-A'.
 Alpha  occ. eigenvalues --  -19.73131  -1.16062  -0.61129  -0.47905  -0.40056
 Alpha virt. eigenvalues --    0.04549   0.10291   0.27513   0.30393   0.30894
 Alpha virt. eigenvalues --    0.36444   0.44129   0.49961   0.56618   0.61649
 Alpha virt. eigenvalues --    0.65548   0.81367   0.94184   0.95800   1.03813

 Mulliken charges:
               1
     1  O   -0.434945
     2  H    0.220716
     3  H    0.214229
 Sum of Mulliken charges =   0.00000

 Dipole moment (field-independent basis, Debye):
    X=             -0.0076    Y=             -1.9879    Z=              0.0000  Tot=              1.9879
 Quadrupole moment (field-independent basis, Debye-Ang):
   XX=             -4.4323   YY=             -6.2648   ZZ=             -7.5786
   XY=             -0.0362   XZ=              0.0000   YZ=              0.0000

 1\1\GINC-NODE24\SP\RB2PLYPD3-FC\def2QZVP\H2O1\BOITTIER\26-Aug-2020\0\\
 #p B2PLYPD3/Def2QZVP\\h2o\\0,1\O,0,-5.326605,-0.765205,0.923496\H,0,-4
 .368927,-0.689746,0.900553\H,0,-5.609308,0.117074,0.72892\\Version=ES6
 4L-G09RevD.01\State=1-A'\HF=-76.3349532\MP2=-76.4248479\RMSD=4.424e-09
 \PG=CS [SG(H2O1)]\\@

 Age does not diminish the extreme disappointment of

 Normal termination of Gaussian 09 at Wed Aug 26 11:04:03 2020.
