 Gaussian 09, Revision D.01,
 Gaussian 09:  ES64L-G09RevD.01 24-Apr-2013

 --------------------
 #p B2PLYPD3/Def2QZVP
 --------------------

 ---
 h2o
 ---
 Symbolic Z-matrix:
 Charge =  0 Multiplicity = 1

                         Standard orientation:
 ---------------------------------------------------------------------
 Center     Atomic      Atomic             Coordinates (Angstroms)
 Number     Number       Type             X           Y           Z
 ---------------------------------------------------------------------
      1          8           0        0.000000    0.117327    0.000000
      2          1           0        0.753165   -0.477595    0.000000
      3          1           0       -0.753165   -0.461018    0.000000
 ---------------------------------------------------------------------

 SCF Done:  E(RB2PLYPD3) =  -76.3351550391     A.U. after   10 cycles
 E2(B2PLYPD3) =    -0.8987682558D-01 E(B2PLYPD3) =    -0.76425031864635D+02

 The electronic state is 1-A'.
 Alpha  occ. eigenvalues --  -19.73086  -1.15907  -0.61372  -0.47608  -0.40012
 Alpha virt. eigenvalues --    0.04571   0.10255   0.27495   0.30400   0.31019
 Alpha virt. eigenvalues --    0.36165   0.44093   0.50208   0.56382   0.62076
 Alpha virt. eigenvalues --    0.65541   0.81283   0.93998   0.95841   1.04047

 Mulliken charges:
               1
     1  O   -0.438841
     2  H    0.221742
     3  H    0.217099
 Sum of Mulliken charges =   0.00000

 Dipole moment (field-independent basis, Debye):
    X=             -0.0052    Y=             -1.9657    Z=              0.0000  Tot=              1.9657
 Quadrupole moment (field-independent basis, Debye-Ang):
   XX=             -4.3665   YY=             -6.3095   ZZ=             -7.5834
   XY=             -0.0270   XZ=              0.0000   YZ=              0.0000

 1\1\GINC-NODE07\SP\RB2PLYPD3-FC\def2QZVP\H2O1\BOITTIER\26-Aug-2020\0\\
 #p B2PLYPD3/Def2QZVP\\h2o\\0,1\O,0,-5.326605,-0.763555,0.92502\H,0,-4.
 368927,-0.720205,0.878523\H,0,-5.609308,0.121132,0.727162\\Version=ES6
 4L-G09RevD.01\State=1-A'\HF=-76.335155\MP2=-76.4250319\RMSD=4.211e-09\
 PG=CS [SG(H2O1)]\\@

 STEINBACH'S GUIDELINES FOR SYSTEMS PROGRAMMING:

 Normal termination of Gaussian 09 at Wed Aug 26 08:33:48 2020.
