 Gaussian 09, Revision D.01,
 Gaussian 09:  ES64L-G09RevD.01 24-Apr-2013

 --------------------
 #p B2PLYPD3/Def2QZVP
 --------------------

 ---
 h2o
 ---
 Symbolic Z-matrix:
 Charge =  0 Multiplicity = 1

                         Standard orientation:
 ---------------------------------------------------------------------
 Center     Atomic      Atomic             Coordinates (Angstroms)
 Number     Number       Type             X           Y           Z
 ---------------------------------------------------------------------
      1          8           0        0.000000    0.116244    0.000000
      2          1           0        0.730321   -0.509625    0.000000
      3          1           0       -0.730321   -0.420326    0.000000
 ---------------------------------------------------------------------

 SCF Done:  E(RB2PLYPD3) =  -76.3327118987     A.U. after   10 cycles
 E2(B2PLYPD3) =    -0.8924140415D-01 E(B2PLYPD3) =    -0.76421953302873D+02

 The electronic state is 1-A'.
 Alpha  occ. eigenvalues --  -19.72772  -1.17078  -0.62128  -0.48082  -0.40224
 Alpha virt. eigenvalues --    0.04733   0.10467   0.27351   0.30343   0.31177
 Alpha virt. eigenvalues --    0.37269   0.44812   0.50209   0.56761   0.61943
 Alpha virt. eigenvalues --    0.65009   0.81774   0.94398   0.95481   1.04892

 Mulliken charges:
               1
     1  O   -0.416543
     2  H    0.222632
     3  H    0.193911
 Sum of Mulliken charges =   0.00000

 Dipole moment (field-independent basis, Debye):
    X=             -0.0293    Y=             -1.9677    Z=              0.0000  Tot=              1.9680
 Quadrupole moment (field-independent basis, Debye-Ang):
   XX=             -4.4591   YY=             -6.2568   ZZ=             -7.5331
   XY=             -0.1409   XZ=              0.0000   YZ=              0.0000

 1\1\GINC-NODE09\SP\RB2PLYPD3-FC\def2QZVP\H2O1\BOITTIER\26-Aug-2020\0\\
 #p B2PLYPD3/Def2QZVP\\h2o\\0,1\O,0,-5.326605,-0.762955,0.924344\H,0,-4
 .368927,-0.685842,0.879757\H,0,-5.609308,0.077162,0.735773\\Version=ES
 64L-G09RevD.01\State=1-A'\HF=-76.3327119\MP2=-76.4219533\RMSD=5.885e-0
 9\PG=CS [SG(H2O1)]\\@

 ANYONE WHO IS NOT SHOCKED BY QUANTUM THEORY HAS

 Normal termination of Gaussian 09 at Wed Aug 26 12:34:39 2020.
