 Gaussian 09, Revision D.01,
 Gaussian 09:  ES64L-G09RevD.01 24-Apr-2013

 --------------------
 #p B2PLYPD3/Def2QZVP
 --------------------

 ---
 h2o
 ---
 Symbolic Z-matrix:
 Charge =  0 Multiplicity = 1

                         Standard orientation:
 ---------------------------------------------------------------------
 Center     Atomic      Atomic             Coordinates (Angstroms)
 Number     Number       Type             X           Y           Z
 ---------------------------------------------------------------------
      1          8           0        0.000000    0.120925    0.000000
      2          1           0        0.787171   -0.424772    0.000000
      3          1           0       -0.787171   -0.542624    0.000000
 ---------------------------------------------------------------------

 SCF Done:  E(RB2PLYPD3) =  -76.3297861339     A.U. after   10 cycles
 E2(B2PLYPD3) =    -0.9114514911D-01 E(B2PLYPD3) =    -0.76420931282985D+02

 The electronic state is 1-A'.
 Alpha  occ. eigenvalues --  -19.73626  -1.14165  -0.59817  -0.46889  -0.39677
 Alpha virt. eigenvalues --    0.04066   0.09864   0.27691   0.29927   0.30493
 Alpha virt. eigenvalues --    0.34567   0.43170   0.50021   0.55692   0.62066
 Alpha virt. eigenvalues --    0.66404   0.80155   0.92207   0.96624   1.01266

 Mulliken charges:
               1
     1  O   -0.466148
     2  H    0.219969
     3  H    0.246179
 Sum of Mulliken charges =   0.00000

 Dipole moment (field-independent basis, Debye):
    X=              0.0362    Y=             -1.9774    Z=              0.0000  Tot=              1.9777
 Quadrupole moment (field-independent basis, Debye-Ang):
   XX=             -4.2486   YY=             -6.3432   ZZ=             -7.6719
   XY=              0.1983   XZ=              0.0000   YZ=              0.0000

 1\1\GINC-NODE13\SP\RB2PLYPD3-FC\def2QZVP\H2O1\BOITTIER\26-Aug-2020\0\\
 #p B2PLYPD3/Def2QZVP\\h2o\\0,1\O,0,-5.326605,-0.76686,0.921346\H,0,-4.
 368927,-0.751909,0.928626\H,0,-5.609308,0.205717,0.73666\\Version=ES64
 L-G09RevD.01\State=1-A'\HF=-76.3297861\MP2=-76.4209313\RMSD=5.660e-09\
 PG=CS [SG(H2O1)]\\@

 NATURE GIVES TO EVERY TIME AND SEASON SOME BEAUTY OF ITS OWN.

 Normal termination of Gaussian 09 at Wed Aug 26 08:57:11 2020.
