 Gaussian 09, Revision D.01,
 Gaussian 09:  ES64L-G09RevD.01 24-Apr-2013

 --------------------
 #p B2PLYPD3/Def2QZVP
 --------------------

 ---
 h2o
 ---
 Symbolic Z-matrix:
 Charge =  0 Multiplicity = 1

                         Standard orientation:
 ---------------------------------------------------------------------
 Center     Atomic      Atomic             Coordinates (Angstroms)
 Number     Number       Type             X           Y           Z
 ---------------------------------------------------------------------
      1          8           0        0.000000    0.122200    0.000000
      2          1           0        0.733426   -0.504949    0.000000
      3          1           0       -0.733426   -0.472653    0.000000
 ---------------------------------------------------------------------

 SCF Done:  E(RB2PLYPD3) =  -76.3343637959     A.U. after   10 cycles
 E2(B2PLYPD3) =    -0.9000192318D-01 E(B2PLYPD3) =    -0.76424365719128D+02

 The electronic state is 1-A'.
 Alpha  occ. eigenvalues --  -19.73232  -1.16197  -0.60651  -0.48327  -0.40104
 Alpha virt. eigenvalues --    0.04486   0.10324   0.27556   0.30388   0.30668
 Alpha virt. eigenvalues --    0.36736   0.44123   0.49615   0.56952   0.61003
 Alpha virt. eigenvalues --    0.65602   0.81406   0.94434   0.95797   1.03348

 Mulliken charges:
               1
     1  O   -0.430926
     2  H    0.220106
     3  H    0.210820
 Sum of Mulliken charges =   0.00000

 Dipole moment (field-independent basis, Debye):
    X=             -0.0115    Y=             -2.0223    Z=              0.0000  Tot=              2.0224
 Quadrupole moment (field-independent basis, Debye-Ang):
   XX=             -4.5280   YY=             -6.1980   ZZ=             -7.5767
   XY=             -0.0495   XZ=              0.0000   YZ=              0.0000

 1\1\GINC-NODE21\SP\RB2PLYPD3-FC\def2QZVP\H2O1\BOITTIER\26-Aug-2020\0\\
 #p B2PLYPD3/Def2QZVP\\h2o\\0,1\O,0,-5.326605,-0.766423,0.926921\H,0,-4
 .368927,-0.657162,0.880613\H,0,-5.609308,0.103978,0.694016\\Version=ES
 64L-G09RevD.01\State=1-A'\HF=-76.3343638\MP2=-76.4243657\RMSD=4.782e-0
 9\PG=CS [SG(H2O1)]\\@

 HAPPINESS IS NOT HAVING WHAT YOU WANT --

 Normal termination of Gaussian 09 at Wed Aug 26 08:49:21 2020.
