 Gaussian 09, Revision D.01,
 Gaussian 09:  ES64L-G09RevD.01 24-Apr-2013

 --------------------
 #p B2PLYPD3/Def2QZVP
 --------------------

 ---
 h2o
 ---
 Symbolic Z-matrix:
 Charge =  0 Multiplicity = 1

                         Standard orientation:
 ---------------------------------------------------------------------
 Center     Atomic      Atomic             Coordinates (Angstroms)
 Number     Number       Type             X           Y           Z
 ---------------------------------------------------------------------
      1          8           0        0.000000    0.115110    0.000000
      2          1           0        0.757826   -0.473758    0.000000
      3          1           0       -0.757826   -0.447122    0.000000
 ---------------------------------------------------------------------

 SCF Done:  E(RB2PLYPD3) =  -76.3351612361     A.U. after   10 cycles
 E2(B2PLYPD3) =    -0.8973778548D-01 E(B2PLYPD3) =    -0.76424899021627D+02

 The electronic state is 1-A'.
 Alpha  occ. eigenvalues --  -19.72979  -1.15953  -0.61775  -0.47381  -0.40005
 Alpha virt. eigenvalues --    0.04629   0.10258   0.27452   0.30397   0.31202
 Alpha virt. eigenvalues --    0.36068   0.44178   0.50496   0.56205   0.62519
 Alpha virt. eigenvalues --    0.65433   0.81279   0.93931   0.95812   1.04528

 Mulliken charges:
               1
     1  O   -0.439247
     2  H    0.223387
     3  H    0.215860
 Sum of Mulliken charges =   0.00000

 Dipole moment (field-independent basis, Debye):
    X=             -0.0080    Y=             -1.9418    Z=              0.0000  Tot=              1.9419
 Quadrupole moment (field-independent basis, Debye-Ang):
   XX=             -4.3136   YY=             -6.3481   ZZ=             -7.5790
   XY=             -0.0442   XZ=              0.0000   YZ=              0.0000

 1\1\GINC-NODE17\SP\RB2PLYPD3-FC\def2QZVP\H2O1\BOITTIER\26-Aug-2020\0\\
 #p B2PLYPD3/Def2QZVP\\h2o\\0,1\O,0,-5.326605,-0.761893,0.925387\H,0,-4
 .368927,-0.743599,0.865517\H,0,-5.609308,0.117924,0.734583\\Version=ES
 64L-G09RevD.01\State=1-A'\HF=-76.3351612\MP2=-76.424899\RMSD=4.217e-09
 \PG=CS [SG(H2O1)]\\@

 IN THE WOODS WE RETURN TO REASON AND FAITH.

 Normal termination of Gaussian 09 at Wed Aug 26 11:30:03 2020.
