 Gaussian 09, Revision D.01,
 Gaussian 09:  ES64L-G09RevD.01 24-Apr-2013

 --------------------
 #p B2PLYPD3/Def2QZVP
 --------------------

 ---
 h2o
 ---
 Symbolic Z-matrix:
 Charge =  0 Multiplicity = 1

                         Standard orientation:
 ---------------------------------------------------------------------
 Center     Atomic      Atomic             Coordinates (Angstroms)
 Number     Number       Type             X           Y           Z
 ---------------------------------------------------------------------
      1          8           0        0.000000    0.114819    0.000000
      2          1           0        0.736416   -0.501563    0.000000
      3          1           0       -0.736416   -0.416990    0.000000
 ---------------------------------------------------------------------

 SCF Done:  E(RB2PLYPD3) =  -76.3331194948     A.U. after   10 cycles
 E2(B2PLYPD3) =    -0.8921859057D-01 E(B2PLYPD3) =    -0.76422338085356D+02

 The electronic state is 1-A'.
 Alpha  occ. eigenvalues --  -19.72735  -1.16964  -0.62335  -0.47862  -0.40194
 Alpha virt. eigenvalues --    0.04758   0.10442   0.27340   0.30347   0.31282
 Alpha virt. eigenvalues --    0.37074   0.44779   0.50401   0.56590   0.62268
 Alpha virt. eigenvalues --    0.65001   0.81740   0.94312   0.95492   1.05078

 Mulliken charges:
               1
     1  O   -0.419328
     2  H    0.223114
     3  H    0.196214
 Sum of Mulliken charges =   0.00000

 Dipole moment (field-independent basis, Debye):
    X=             -0.0268    Y=             -1.9508    Z=              0.0000  Tot=              1.9509
 Quadrupole moment (field-independent basis, Debye-Ang):
   XX=             -4.4113   YY=             -6.2903   ZZ=             -7.5358
   XY=             -0.1358   XZ=              0.0000   YZ=              0.0000

 1\1\GINC-NODE12\SP\RB2PLYPD3-FC\def2QZVP\H2O1\BOITTIER\26-Aug-2020\0\\
 #p B2PLYPD3/Def2QZVP\\h2o\\0,1\O,0,-5.326605,-0.762162,0.923498\H,0,-4
 .368927,-0.704329,0.881734\H,0,-5.609308,0.08296,0.747493\\Version=ES6
 4L-G09RevD.01\State=1-A'\HF=-76.3331195\MP2=-76.4223381\RMSD=5.724e-09
 \PG=CS [SG(H2O1)]\\@

 HIGGLEDY-PIGGLEDY

 Normal termination of Gaussian 09 at Wed Aug 26 08:06:50 2020.
