 Gaussian 09, Revision D.01,
 Gaussian 09:  ES64L-G09RevD.01 24-Apr-2013

 --------------------
 #p B2PLYPD3/Def2QZVP
 --------------------

 ---
 h2o
 ---
 Symbolic Z-matrix:
 Charge =  0 Multiplicity = 1

                         Standard orientation:
 ---------------------------------------------------------------------
 Center     Atomic      Atomic             Coordinates (Angstroms)
 Number     Number       Type             X           Y           Z
 ---------------------------------------------------------------------
      1          8           0        0.000000    0.119110    0.000000
      2          1           0        0.751523   -0.478176    0.000000
      3          1           0       -0.751523   -0.474702    0.000000
 ---------------------------------------------------------------------

 SCF Done:  E(RB2PLYPD3) =  -76.3350186474     A.U. after   10 cycles
 E2(B2PLYPD3) =    -0.9004465371D-01 E(B2PLYPD3) =    -0.76425063301159D+02

 The electronic state is 1-A'.
 Alpha  occ. eigenvalues --  -19.73193  -1.15774  -0.60998  -0.47736  -0.40000
 Alpha virt. eigenvalues --    0.04507   0.10232   0.27540   0.30408   0.30851
 Alpha virt. eigenvalues --    0.36131   0.43975   0.50001   0.56477   0.61759
 Alpha virt. eigenvalues --    0.65668   0.81228   0.93992   0.95910   1.03562

 Mulliken charges:
               1
     1  O   -0.440184
     2  H    0.220569
     3  H    0.219615
 Sum of Mulliken charges =   0.00000

 Dipole moment (field-independent basis, Debye):
    X=             -0.0011    Y=             -1.9834    Z=              0.0000  Tot=              1.9834
 Quadrupole moment (field-independent basis, Debye-Ang):
   XX=             -4.3991   YY=             -6.2837   ZZ=             -7.5912
   XY=             -0.0056   XZ=              0.0000   YZ=              0.0000

 1\1\GINC-NODE12\SP\RB2PLYPD3-FC\def2QZVP\H2O1\BOITTIER\26-Aug-2020\0\\
 #p B2PLYPD3/Def2QZVP\\h2o\\0,1\O,0,-5.326605,-0.765357,0.922618\H,0,-4
 .368927,-0.700609,0.908587\H,0,-5.609308,0.130362,0.735092\\Version=ES
 64L-G09RevD.01\State=1-A'\HF=-76.3350186\MP2=-76.4250633\RMSD=4.212e-0
 9\PG=CS [SG(H2O1)]\\@

 ... UNTIL SCIENCE IS MIXED WITH EMOTION AND APPEALS TO THE HEART AND

 Normal termination of Gaussian 09 at Wed Aug 26 09:22:05 2020.
