 Gaussian 09, Revision D.01,
 Gaussian 09:  ES64L-G09RevD.01 24-Apr-2013

 --------------------
 #p B2PLYPD3/Def2QZVP
 --------------------

 ---
 h2o
 ---
 Symbolic Z-matrix:
 Charge =  0 Multiplicity = 1

                         Standard orientation:
 ---------------------------------------------------------------------
 Center     Atomic      Atomic             Coordinates (Angstroms)
 Number     Number       Type             X           Y           Z
 ---------------------------------------------------------------------
      1          8           0        0.000000    0.114304    0.000000
      2          1           0        0.773318   -0.451355    0.000000
      3          1           0       -0.773318   -0.463076    0.000000
 ---------------------------------------------------------------------

 SCF Done:  E(RB2PLYPD3) =  -76.3349307939     A.U. after   10 cycles
 E2(B2PLYPD3) =    -0.9002111137D-01 E(B2PLYPD3) =    -0.76424951905253D+02

 The electronic state is 1-A'.
 Alpha  occ. eigenvalues --  -19.73075  -1.15372  -0.61583  -0.46968  -0.39881
 Alpha virt. eigenvalues --    0.04547   0.10139   0.27492   0.30427   0.31170
 Alpha virt. eigenvalues --    0.35371   0.43881   0.50711   0.55863   0.62886
 Alpha virt. eigenvalues --    0.65653   0.80905   0.93528   0.96057   1.04169

 Mulliken charges:
               1
     1  O   -0.450790
     2  H    0.223849
     3  H    0.226940
 Sum of Mulliken charges =   0.00000

 Dipole moment (field-independent basis, Debye):
    X=              0.0033    Y=             -1.9250    Z=              0.0000  Tot=              1.9250
 Quadrupole moment (field-independent basis, Debye-Ang):
   XX=             -4.2268   YY=             -6.3989   ZZ=             -7.6048
   XY=              0.0200   XZ=              0.0000   YZ=              0.0000

 1\1\GINC-NODE10\SP\RB2PLYPD3-FC\def2QZVP\H2O1\BOITTIER\26-Aug-2020\0\\
 #p B2PLYPD3/Def2QZVP\\h2o\\0,1\O,0,-5.326605,-0.762137,0.922072\H,0,-4
 .368927,-0.767978,0.893605\H,0,-5.609308,0.14621,0.759671\\Version=ES6
 4L-G09RevD.01\State=1-A'\HF=-76.3349308\MP2=-76.4249519\RMSD=3.866e-09
 \PG=CS [SG(H2O1)]\\@

 Spring appears, and we are once more children.

 Normal termination of Gaussian 09 at Wed Aug 26 11:35:01 2020.
