 Gaussian 09, Revision D.01,
 Gaussian 09:  ES64L-G09RevD.01 24-Apr-2013

 --------------------
 #p B2PLYPD3/Def2QZVP
 --------------------

 ---
 h2o
 ---
 Symbolic Z-matrix:
 Charge =  0 Multiplicity = 1

                         Standard orientation:
 ---------------------------------------------------------------------
 Center     Atomic      Atomic             Coordinates (Angstroms)
 Number     Number       Type             X           Y           Z
 ---------------------------------------------------------------------
      1          8           0        0.000000    0.114573    0.000000
      2          1           0        0.763488   -0.463964    0.000000
      3          1           0       -0.763488   -0.452618    0.000000
 ---------------------------------------------------------------------

 SCF Done:  E(RB2PLYPD3) =  -76.3352238531     A.U. after   10 cycles
 E2(B2PLYPD3) =    -0.8981242550D-01 E(B2PLYPD3) =    -0.76425036278609D+02

 The electronic state is 1-A'.
 Alpha  occ. eigenvalues --  -19.72998  -1.15764  -0.61763  -0.47218  -0.39963
 Alpha virt. eigenvalues --    0.04612   0.10220   0.27462   0.30406   0.31224
 Alpha virt. eigenvalues --    0.35824   0.44086   0.50601   0.56074   0.62693
 Alpha virt. eigenvalues --    0.65493   0.81162   0.93807   0.95885   1.04508

 Mulliken charges:
               1
     1  O   -0.443196
     2  H    0.223167
     3  H    0.220029
 Sum of Mulliken charges =   0.00000

 Dipole moment (field-independent basis, Debye):
    X=             -0.0033    Y=             -1.9334    Z=              0.0000  Tot=              1.9334
 Quadrupole moment (field-independent basis, Debye-Ang):
   XX=             -4.2788   YY=             -6.3699   ZZ=             -7.5869
   XY=             -0.0190   XZ=              0.0000   YZ=              0.0000

 1\1\GINC-NODE29\SP\RB2PLYPD3-FC\def2QZVP\H2O1\BOITTIER\26-Aug-2020\0\\
 #p B2PLYPD3/Def2QZVP\\h2o\\0,1\O,0,-5.326605,-0.762967,0.91831\H,0,-4.
 368927,-0.743693,0.928353\H,0,-5.609308,0.135208,0.78422\\Version=ES64
 L-G09RevD.01\State=1-A'\HF=-76.3352239\MP2=-76.4250363\RMSD=3.993e-09\
 PG=CS [SG(H2O1)]\\@

 A successful marriage requires falling in love

 Normal termination of Gaussian 09 at Wed Aug 26 10:35:25 2020.
