 Gaussian 09, Revision D.01,
 Gaussian 09:  ES64L-G09RevD.01 24-Apr-2013

 --------------------
 #p B2PLYPD3/Def2QZVP
 --------------------

 ---
 h2o
 ---
 Symbolic Z-matrix:
 Charge =  0 Multiplicity = 1

                         Standard orientation:
 ---------------------------------------------------------------------
 Center     Atomic      Atomic             Coordinates (Angstroms)
 Number     Number       Type             X           Y           Z
 ---------------------------------------------------------------------
      1          8           0        0.000000    0.115127    0.000000
      2          1           0        0.728115   -0.512771    0.000000
      3          1           0       -0.728115   -0.408245    0.000000
 ---------------------------------------------------------------------

 SCF Done:  E(RB2PLYPD3) =  -76.3316305298     A.U. after   10 cycles
 E2(B2PLYPD3) =    -0.8907157158D-01 E(B2PLYPD3) =    -0.76420702101382D+02

 The electronic state is 1-A'.
 Alpha  occ. eigenvalues --  -19.72666  -1.17324  -0.62445  -0.48065  -0.40261
 Alpha virt. eigenvalues --    0.04780   0.10503   0.27303   0.30331   0.31255
 Alpha virt. eigenvalues --    0.37415   0.44996   0.50324   0.56744   0.62106
 Alpha virt. eigenvalues --    0.64869   0.81863   0.94370   0.95432   1.05120

 Mulliken charges:
               1
     1  O   -0.411705
     2  H    0.223159
     3  H    0.188546
 Sum of Mulliken charges =   0.00000

 Dipole moment (field-independent basis, Debye):
    X=             -0.0339    Y=             -1.9580    Z=              0.0000  Tot=              1.9583
 Quadrupole moment (field-independent basis, Debye-Ang):
   XX=             -4.4538   YY=             -6.2620   ZZ=             -7.5220
   XY=             -0.1654   XZ=              0.0000   YZ=              0.0000

 1\1\GINC-NODE24\SP\RB2PLYPD3-FC\def2QZVP\H2O1\BOITTIER\26-Aug-2020\0\\
 #p B2PLYPD3/Def2QZVP\\h2o\\0,1\O,0,-5.326605,-0.762346,0.923619\H,0,-4
 .368927,-0.688144,0.881739\H,0,-5.609308,0.069717,0.74524\\Version=ES6
 4L-G09RevD.01\State=1-A'\HF=-76.3316305\MP2=-76.4207021\RMSD=6.230e-09
 \PG=CS [SG(H2O1)]\\@

 IF YOU WANT TO LEARN FROM THE THEORETICAL PHYSICISTS ABOUT THE

 Normal termination of Gaussian 09 at Wed Aug 26 09:14:42 2020.
