 Gaussian 09, Revision D.01,
 Gaussian 09:  ES64L-G09RevD.01 24-Apr-2013

 --------------------
 #p B2PLYPD3/Def2QZVP
 --------------------

 ---
 h2o
 ---
 Symbolic Z-matrix:
 Charge =  0 Multiplicity = 1

                         Standard orientation:
 ---------------------------------------------------------------------
 Center     Atomic      Atomic             Coordinates (Angstroms)
 Number     Number       Type             X           Y           Z
 ---------------------------------------------------------------------
      1          8           0        0.000000    0.117884    0.000000
      2          1           0        0.767438   -0.457157    0.000000
      3          1           0       -0.767438   -0.485914    0.000000
 ---------------------------------------------------------------------

 SCF Done:  E(RB2PLYPD3) =  -76.3345438682     A.U. after   10 cycles
 E2(B2PLYPD3) =    -0.9028155143D-01 E(B2PLYPD3) =    -0.76424825419596D+02

 The electronic state is 1-A'.
 Alpha  occ. eigenvalues --  -19.73259  -1.15240  -0.60923  -0.47283  -0.39883
 Alpha virt. eigenvalues --    0.04438   0.10117   0.27565   0.30435   0.30818
 Alpha virt. eigenvalues --    0.35469   0.43729   0.50234   0.56098   0.62203
 Alpha virt. eigenvalues --    0.65847   0.80904   0.93509   0.96124   1.03226

 Mulliken charges:
               1
     1  O   -0.450533
     2  H    0.221558
     3  H    0.228975
 Sum of Mulliken charges =   0.00000

 Dipole moment (field-independent basis, Debye):
    X=              0.0089    Y=             -1.9625    Z=              0.0000  Tot=              1.9625
 Quadrupole moment (field-independent basis, Debye-Ang):
   XX=             -4.3048   YY=             -6.3395   ZZ=             -7.6145
   XY=              0.0477   XZ=              0.0000   YZ=              0.0000

 1\1\GINC-NODE19\SP\RB2PLYPD3-FC\def2QZVP\H2O1\BOITTIER\26-Aug-2020\0\\
 #p B2PLYPD3/Def2QZVP\\h2o\\0,1\O,0,-5.326605,-0.765368,0.917288\H,0,-4
 .368927,-0.728871,0.951255\H,0,-5.609308,0.15881,0.777618\\Version=ES6
 4L-G09RevD.01\State=1-A'\HF=-76.3345439\MP2=-76.4248254\RMSD=4.121e-09
 \PG=CS [SG(H2O1)]\\@

 MARY HAD A LITTLE LAMB

 Normal termination of Gaussian 09 at Wed Aug 26 09:52:49 2020.
