 Gaussian 09, Revision D.01,
 Gaussian 09:  ES64L-G09RevD.01 24-Apr-2013

 --------------------
 #p B2PLYPD3/Def2QZVP
 --------------------

 ---
 h2o
 ---
 Symbolic Z-matrix:
 Charge =  0 Multiplicity = 1

                         Standard orientation:
 ---------------------------------------------------------------------
 Center     Atomic      Atomic             Coordinates (Angstroms)
 Number     Number       Type             X           Y           Z
 ---------------------------------------------------------------------
      1          8           0        0.000000    0.116937    0.000000
      2          1           0        0.761268   -0.466002    0.000000
      3          1           0       -0.761268   -0.469498    0.000000
 ---------------------------------------------------------------------

 SCF Done:  E(RB2PLYPD3) =  -76.3350979791     A.U. after   10 cycles
 E2(B2PLYPD3) =    -0.9002377987D-01 E(B2PLYPD3) =    -0.76425121758953D+02

 The electronic state is 1-A'.
 Alpha  occ. eigenvalues --  -19.73138  -1.15601  -0.61277  -0.47391  -0.39949
 Alpha virt. eigenvalues --    0.04530   0.10192   0.27517   0.30416   0.30996
 Alpha virt. eigenvalues --    0.35806   0.43939   0.50303   0.56201   0.62262
 Alpha virt. eigenvalues --    0.65656   0.81110   0.93774   0.95962   1.03839

 Mulliken charges:
               1
     1  O   -0.444704
     2  H    0.221880
     3  H    0.222824
 Sum of Mulliken charges =   0.00000

 Dipole moment (field-independent basis, Debye):
    X=              0.0011    Y=             -1.9573    Z=              0.0000  Tot=              1.9573
 Quadrupole moment (field-independent basis, Debye-Ang):
   XX=             -4.3219   YY=             -6.3356   ZZ=             -7.5967
   XY=              0.0058   XZ=              0.0000   YZ=              0.0000

 1\1\GINC-NODE35\SP\RB2PLYPD3-FC\def2QZVP\H2O1\BOITTIER\26-Aug-2020\0\\
 #p B2PLYPD3/Def2QZVP\\h2o\\0,1\O,0,-5.326605,-0.764652,0.917877\H,0,-4
 .368927,-0.72447,0.942072\H,0,-5.609308,0.142946,0.777237\\Version=ES6
 4L-G09RevD.01\State=1-A'\HF=-76.335098\MP2=-76.4251218\RMSD=4.023e-09\
 PG=CS [SG(H2O1)]\\@

 K N O W I N G  IS A BARRIER WHICH PREVENTS LEARNING

 Normal termination of Gaussian 09 at Wed Aug 26 08:42:22 2020.
