 Gaussian 09, Revision D.01,
 Gaussian 09:  ES64L-G09RevD.01 24-Apr-2013

 --------------------
 #p B2PLYPD3/Def2QZVP
 --------------------

 ---
 h2o
 ---
 Symbolic Z-matrix:
 Charge =  0 Multiplicity = 1

                         Standard orientation:
 ---------------------------------------------------------------------
 Center     Atomic      Atomic             Coordinates (Angstroms)
 Number     Number       Type             X           Y           Z
 ---------------------------------------------------------------------
      1          8           0        0.000000    0.118312    0.000000
      2          1           0        0.758970   -0.468815    0.000000
      3          1           0       -0.758970   -0.477678    0.000000
 ---------------------------------------------------------------------

 SCF Done:  E(RB2PLYPD3) =  -76.3349542554     A.U. after   10 cycles
 E2(B2PLYPD3) =    -0.9012707556D-01 E(B2PLYPD3) =    -0.76425081330939D+02

 The electronic state is 1-A'.
 Alpha  occ. eigenvalues --  -19.73209  -1.15547  -0.61018  -0.47514  -0.39949
 Alpha virt. eigenvalues --    0.04487   0.10184   0.27546   0.30419   0.30867
 Alpha virt. eigenvalues --    0.35834   0.43876   0.50131   0.56294   0.62002
 Alpha virt. eigenvalues --    0.65733   0.81098   0.93785   0.95995   1.03492

 Mulliken charges:
               1
     1  O   -0.444763
     2  H    0.221195
     3  H    0.223568
 Sum of Mulliken charges =   0.00000

 Dipole moment (field-independent basis, Debye):
    X=              0.0028    Y=             -1.9716    Z=              0.0000  Tot=              1.9716
 Quadrupole moment (field-independent basis, Debye-Ang):
   XX=             -4.3521   YY=             -6.3128   ZZ=             -7.6006
   XY=              0.0145   XZ=              0.0000   YZ=              0.0000

 1\1\GINC-NODE30\SP\RB2PLYPD3-FC\def2QZVP\H2O1\BOITTIER\26-Aug-2020\0\\
 #p B2PLYPD3/Def2QZVP\\h2o\\0,1\O,0,-5.326605,-0.765558,0.918141\H,0,-4
 .368927,-0.712091,0.945481\H,0,-5.609308,0.145062,0.769515\\Version=ES
 64L-G09RevD.01\State=1-A'\HF=-76.3349543\MP2=-76.4250813\RMSD=4.091e-0
 9\PG=CS [SG(H2O1)]\\@

 CLIMB THE MOUNTAINS AND GET THEIR GOOD TIDINGS.

 Normal termination of Gaussian 09 at Wed Aug 26 08:32:19 2020.
