 Gaussian 09, Revision D.01,
 Gaussian 09:  ES64L-G09RevD.01 24-Apr-2013

 --------------------
 #p B2PLYPD3/Def2QZVP
 --------------------

 ---
 h2o
 ---
 Symbolic Z-matrix:
 Charge =  0 Multiplicity = 1

                         Standard orientation:
 ---------------------------------------------------------------------
 Center     Atomic      Atomic             Coordinates (Angstroms)
 Number     Number       Type             X           Y           Z
 ---------------------------------------------------------------------
      1          8           0        0.000000    0.118094    0.000000
      2          1           0        0.710796   -0.538999    0.000000
      3          1           0       -0.710796   -0.405754    0.000000
 ---------------------------------------------------------------------

 SCF Done:  E(RB2PLYPD3) =  -76.3286949662     A.U. after   10 cycles
 E2(B2PLYPD3) =    -0.8903969118D-01 E(B2PLYPD3) =    -0.76417734657337D+02

 The electronic state is 1-A'.
 Alpha  occ. eigenvalues --  -19.72689  -1.17798  -0.62081  -0.48615  -0.40359
 Alpha virt. eigenvalues --    0.04721   0.10592   0.27291   0.30314   0.30999
 Alpha virt. eigenvalues --    0.37939   0.45248   0.49943   0.57144   0.61404
 Alpha virt. eigenvalues --    0.64785   0.81937   0.94464   0.95429   1.04760

 Mulliken charges:
               1
     1  O   -0.400798
     2  H    0.223542
     3  H    0.177256
 Sum of Mulliken charges =   0.00000

 Dipole moment (field-independent basis, Debye):
    X=             -0.0468    Y=             -1.9951    Z=              0.0000  Tot=              1.9956
 Quadrupole moment (field-independent basis, Debye-Ang):
   XX=             -4.5729   YY=             -6.1766   ZZ=             -7.5085
   XY=             -0.2015   XZ=              0.0000   YZ=              0.0000

 1\1\GINC-NODE05\SP\RB2PLYPD3-FC\def2QZVP\H2O1\BOITTIER\26-Aug-2020\0\\
 #p B2PLYPD3/Def2QZVP\\h2o\\0,1\O,0,-5.326605,-0.76292,0.928848\H,0,-4.
 368927,-0.650853,0.843423\H,0,-5.609308,0.041625,0.699861\\Version=ES6
 4L-G09RevD.01\State=1-A'\HF=-76.328695\MP2=-76.4177347\RMSD=6.679e-09\
 PG=CS [SG(H2O1)]\\@

 10 WHATSOEVER THY HAND FINDETH TO DO, DO IT WITH THY

 Normal termination of Gaussian 09 at Wed Aug 26 10:02:31 2020.
