 Gaussian 09, Revision D.01,
 Gaussian 09:  ES64L-G09RevD.01 24-Apr-2013

 --------------------
 #p B2PLYPD3/Def2QZVP
 --------------------

 ---
 h2o
 ---
 Symbolic Z-matrix:
 Charge =  0 Multiplicity = 1

                         Standard orientation:
 ---------------------------------------------------------------------
 Center     Atomic      Atomic             Coordinates (Angstroms)
 Number     Number       Type             X           Y           Z
 ---------------------------------------------------------------------
      1          8           0        0.000000    0.117850    0.000000
      2          1           0        0.775249   -0.445026    0.000000
      3          1           0       -0.775249   -0.497778    0.000000
 ---------------------------------------------------------------------

 SCF Done:  E(RB2PLYPD3) =  -76.3337290254     A.U. after   10 cycles
 E2(B2PLYPD3) =    -0.9047108883D-01 E(B2PLYPD3) =    -0.76424200114278D+02

 The electronic state is 1-A'.
 Alpha  occ. eigenvalues --  -19.73328  -1.14926  -0.60750  -0.47083  -0.39817
 Alpha virt. eigenvalues --    0.04366   0.10047   0.27589   0.30452   0.30699
 Alpha virt. eigenvalues --    0.35127   0.43575   0.50293   0.55922   0.62334
 Alpha virt. eigenvalues --    0.65979   0.80686   0.93193   0.96266   1.02812

 Mulliken charges:
               1
     1  O   -0.456074
     2  H    0.221498
     3  H    0.234575
 Sum of Mulliken charges =   0.00000

 Dipole moment (field-independent basis, Debye):
    X=              0.0159    Y=             -1.9573    Z=              0.0000  Tot=              1.9573
 Quadrupole moment (field-independent basis, Debye-Ang):
   XX=             -4.2657   YY=             -6.3588   ZZ=             -7.6297
   XY=              0.0886   XZ=              0.0000   YZ=              0.0000

 1\1\GINC-NODE21\SP\RB2PLYPD3-FC\def2QZVP\H2O1\BOITTIER\26-Aug-2020\0\\
 #p B2PLYPD3/Def2QZVP\\h2o\\0,1\O,0,-5.326605,-0.765127,0.919045\H,0,-4
 .368927,-0.744985,0.936001\H,0,-5.609308,0.171067,0.765326\\Version=ES
 64L-G09RevD.01\State=1-A'\HF=-76.333729\MP2=-76.4242001\RMSD=4.399e-09
 \PG=CS [SG(H2O1)]\\@

 Sacred cows make the best hamburger.

 Normal termination of Gaussian 09 at Wed Aug 26 09:48:27 2020.
