 Gaussian 09, Revision D.01,
 Gaussian 09:  ES64L-G09RevD.01 24-Apr-2013

 --------------------
 #p B2PLYPD3/Def2QZVP
 --------------------

 ---
 h2o
 ---
 Symbolic Z-matrix:
 Charge =  0 Multiplicity = 1

                         Standard orientation:
 ---------------------------------------------------------------------
 Center     Atomic      Atomic             Coordinates (Angstroms)
 Number     Number       Type             X           Y           Z
 ---------------------------------------------------------------------
      1          8           0        0.000000    0.118814    0.000000
      2          1           0        0.739211   -0.496109    0.000000
      3          1           0       -0.739211   -0.454402    0.000000
 ---------------------------------------------------------------------

 SCF Done:  E(RB2PLYPD3) =  -76.3346542279     A.U. after   10 cycles
 E2(B2PLYPD3) =    -0.8972833706D-01 E(B2PLYPD3) =    -0.76424382564975D+02

 The electronic state is 1-A'.
 Alpha  occ. eigenvalues --  -19.73050  -1.16350  -0.61328  -0.48019  -0.40108
 Alpha virt. eigenvalues --    0.04595   0.10346   0.27477   0.30379   0.30955
 Alpha virt. eigenvalues --    0.36722   0.44301   0.49974   0.56713   0.61629
 Alpha virt. eigenvalues --    0.65411   0.81491   0.94317   0.95696   1.04101

 Mulliken charges:
               1
     1  O   -0.429819
     2  H    0.221053
     3  H    0.208767
 Sum of Mulliken charges =   0.00000

 Dipole moment (field-independent basis, Debye):
    X=             -0.0139    Y=             -1.9876    Z=              0.0000  Tot=              1.9876
 Quadrupole moment (field-independent basis, Debye-Ang):
   XX=             -4.4534   YY=             -6.2539   ZZ=             -7.5659
   XY=             -0.0658   XZ=              0.0000   YZ=              0.0000

 1\1\GINC-NODE39\SP\RB2PLYPD3-FC\def2QZVP\H2O1\BOITTIER\26-Aug-2020\0\\
 #p B2PLYPD3/Def2QZVP\\h2o\\0,1\O,0,-5.326605,-0.765089,0.922894\H,0,-4
 .368927,-0.680957,0.904509\H,0,-5.609308,0.106418,0.73431\\Version=ES6
 4L-G09RevD.01\State=1-A'\HF=-76.3346542\MP2=-76.4243826\RMSD=4.763e-09
 \PG=CS [SG(H2O1)]\\@

 LAW OF COMPENSATION:

 Normal termination of Gaussian 09 at Wed Aug 26 11:19:29 2020.
