 Gaussian 09, Revision D.01,
 Gaussian 09:  ES64L-G09RevD.01 24-Apr-2013

 --------------------
 #p B2PLYPD3/Def2QZVP
 --------------------

 ---
 h2o
 ---
 Symbolic Z-matrix:
 Charge =  0 Multiplicity = 1

                         Standard orientation:
 ---------------------------------------------------------------------
 Center     Atomic      Atomic             Coordinates (Angstroms)
 Number     Number       Type             X           Y           Z
 ---------------------------------------------------------------------
      1          8           0        0.000000    0.113529    0.000000
      2          1           0        0.761626   -0.468177    0.000000
      3          1           0       -0.761626   -0.440054    0.000000
 ---------------------------------------------------------------------

 SCF Done:  E(RB2PLYPD3) =  -76.3351352173     A.U. after   10 cycles
 E2(B2PLYPD3) =    -0.8965498494D-01 E(B2PLYPD3) =    -0.76424790202194D+02

 The electronic state is 1-A'.
 Alpha  occ. eigenvalues --  -19.72908  -1.15961  -0.62046  -0.47207  -0.39994
 Alpha virt. eigenvalues --    0.04667   0.10255   0.27426   0.30395   0.31332
 Alpha virt. eigenvalues --    0.35964   0.44223   0.50717   0.56071   0.62845
 Alpha virt. eigenvalues --    0.65368   0.81254   0.93886   0.95806   1.04868

 Mulliken charges:
               1
     1  O   -0.440035
     2  H    0.224003
     3  H    0.216032
 Sum of Mulliken charges =   0.00000

 Dipole moment (field-independent basis, Debye):
    X=             -0.0082    Y=             -1.9244    Z=              0.0000  Tot=              1.9244
 Quadrupole moment (field-independent basis, Debye-Ang):
   XX=             -4.2737   YY=             -6.3770   ZZ=             -7.5770
   XY=             -0.0473   XZ=              0.0000   YZ=              0.0000

 1\1\GINC-NODE01\SP\RB2PLYPD3-FC\def2QZVP\H2O1\BOITTIER\26-Aug-2020\0\\
 #p B2PLYPD3/Def2QZVP\\h2o\\0,1\O,0,-5.326605,-0.762535,0.915621\H,0,-4
 .368927,-0.744527,0.946994\H,0,-5.609308,0.129127,0.80817\\Version=ES6
 4L-G09RevD.01\State=1-A'\HF=-76.3351352\MP2=-76.4247902\RMSD=4.180e-09
 \PG=CS [SG(H2O1)]\\@

 THERE IS AN OLD, OLD RECIPE IN MAINE FOR STEWING COOT. PLACE THE

 Normal termination of Gaussian 09 at Wed Aug 26 08:30:20 2020.
