 Gaussian 09, Revision D.01,
 Gaussian 09:  ES64L-G09RevD.01 24-Apr-2013

 --------------------
 #p B2PLYPD3/Def2QZVP
 --------------------

 ---
 h2o
 ---
 Symbolic Z-matrix:
 Charge =  0 Multiplicity = 1

                         Standard orientation:
 ---------------------------------------------------------------------
 Center     Atomic      Atomic             Coordinates (Angstroms)
 Number     Number       Type             X           Y           Z
 ---------------------------------------------------------------------
      1          8           0        0.000000    0.115764    0.000000
      2          1           0        0.743082   -0.491691    0.000000
      3          1           0       -0.743082   -0.434421    0.000000
 ---------------------------------------------------------------------

 SCF Done:  E(RB2PLYPD3) =  -76.3344163054     A.U. after   10 cycles
 E2(B2PLYPD3) =    -0.8947001401D-01 E(B2PLYPD3) =    -0.76423886319447D+02

 The electronic state is 1-A'.
 Alpha  occ. eigenvalues --  -19.72874  -1.16539  -0.61962  -0.47764  -0.40122
 Alpha virt. eigenvalues --    0.04693   0.10371   0.27404   0.30368   0.31204
 Alpha virt. eigenvalues --    0.36726   0.44495   0.50328   0.56515   0.62195
 Alpha virt. eigenvalues --    0.65212   0.81571   0.94242   0.95606   1.04774

 Mulliken charges:
               1
     1  O   -0.427567
     2  H    0.222447
     3  H    0.205120
 Sum of Mulliken charges =   0.00000

 Dipole moment (field-independent basis, Debye):
    X=             -0.0181    Y=             -1.9564    Z=              0.0000  Tot=              1.9565
 Quadrupole moment (field-independent basis, Debye-Ang):
   XX=             -4.3930   YY=             -6.2996   ZZ=             -7.5544
   XY=             -0.0925   XZ=              0.0000   YZ=              0.0000

 1\1\GINC-NODE21\SP\RB2PLYPD3-FC\def2QZVP\H2O1\BOITTIER\26-Aug-2020\0\\
 #p B2PLYPD3/Def2QZVP\\h2o\\0,1\O,0,-5.326605,-0.762947,0.922995\H,0,-4
 .368927,-0.708358,0.890665\H,0,-5.609308,0.09955,0.74678\\Version=ES64
 L-G09RevD.01\State=1-A'\HF=-76.3344163\MP2=-76.4238863\RMSD=4.989e-09\
 PG=CS [SG(H2O1)]\\@

 HICKORY, DICKORY, DOCK

 Normal termination of Gaussian 09 at Wed Aug 26 10:52:37 2020.
