 Gaussian 09, Revision D.01,
 Gaussian 09:  ES64L-G09RevD.01 24-Apr-2013

 --------------------
 #p B2PLYPD3/Def2QZVP
 --------------------

 ---
 h2o
 ---
 Symbolic Z-matrix:
 Charge =  0 Multiplicity = 1

                         Standard orientation:
 ---------------------------------------------------------------------
 Center     Atomic      Atomic             Coordinates (Angstroms)
 Number     Number       Type             X           Y           Z
 ---------------------------------------------------------------------
      1          8           0        0.000000    0.123725    0.000000
      2          1           0        0.758352   -0.466835    0.000000
      3          1           0       -0.758352   -0.522961    0.000000
 ---------------------------------------------------------------------

 SCF Done:  E(RB2PLYPD3) =  -76.3329499782     A.U. after   10 cycles
 E2(B2PLYPD3) =    -0.9076710388D-01 E(B2PLYPD3) =    -0.76423717082104D+02

 The electronic state is 1-A'.
 Alpha  occ. eigenvalues --  -19.73568  -1.14982  -0.59820  -0.47763  -0.39877
 Alpha virt. eigenvalues --    0.04234   0.10062   0.27696   0.30202   0.30447
 Alpha virt. eigenvalues --    0.35517   0.43475   0.49546   0.56449   0.61150
 Alpha virt. eigenvalues --    0.66177   0.80813   0.93446   0.96310   1.01798

 Mulliken charges:
               1
     1  O   -0.450518
     2  H    0.218346
     3  H    0.232172
 Sum of Mulliken charges =   0.00000

 Dipole moment (field-independent basis, Debye):
    X=              0.0193    Y=             -2.0214    Z=              0.0000  Tot=              2.0215
 Quadrupole moment (field-independent basis, Debye-Ang):
   XX=             -4.4307   YY=             -6.2418   ZZ=             -7.6332
   XY=              0.0889   XZ=              0.0000   YZ=              0.0000

 1\1\GINC-NODE30\SP\RB2PLYPD3-FC\def2QZVP\H2O1\BOITTIER\26-Aug-2020\0\\
 #p B2PLYPD3/Def2QZVP\\h2o\\0,1\O,0,-5.326605,-0.767708,0.926117\H,0,-4
 .368927,-0.69177,0.895384\H,0,-5.609308,0.159136,0.693008\\Version=ES6
 4L-G09RevD.01\State=1-A'\HF=-76.33295\MP2=-76.4237171\RMSD=4.630e-09\P
 G=CS [SG(H2O1)]\\@

 THE ONLY TROUBLE WITH A SURE THING IS THE UNCERTAINTY.

 Normal termination of Gaussian 09 at Wed Aug 26 09:01:57 2020.
