 Gaussian 09, Revision D.01,
 Gaussian 09:  ES64L-G09RevD.01 24-Apr-2013

 --------------------
 #p B2PLYPD3/Def2QZVP
 --------------------

 ---
 h2o
 ---
 Symbolic Z-matrix:
 Charge =  0 Multiplicity = 1

                         Standard orientation:
 ---------------------------------------------------------------------
 Center     Atomic      Atomic             Coordinates (Angstroms)
 Number     Number       Type             X           Y           Z
 ---------------------------------------------------------------------
      1          8           0        0.000000    0.119425    0.000000
      2          1           0        0.759221   -0.467042    0.000000
      3          1           0       -0.759221   -0.488357    0.000000
 ---------------------------------------------------------------------

 SCF Done:  E(RB2PLYPD3) =  -76.3346643988     A.U. after   10 cycles
 E2(B2PLYPD3) =    -0.9026371682D-01 E(B2PLYPD3) =    -0.76424928115606D+02

 The electronic state is 1-A'.
 Alpha  occ. eigenvalues --  -19.73287  -1.15414  -0.60761  -0.47559  -0.39931
 Alpha virt. eigenvalues --    0.04435   0.10157   0.27578   0.30426   0.30736
 Alpha virt. eigenvalues --    0.35756   0.43781   0.50008   0.56322   0.61827
 Alpha virt. eigenvalues --    0.65833   0.81033   0.93716   0.96063   1.03110

 Mulliken charges:
               1
     1  O   -0.446349
     2  H    0.220374
     3  H    0.225975
 Sum of Mulliken charges =   0.00000

 Dipole moment (field-independent basis, Debye):
    X=              0.0069    Y=             -1.9818    Z=              0.0000  Tot=              1.9818
 Quadrupole moment (field-independent basis, Debye-Ang):
   XX=             -4.3663   YY=             -6.2995   ZZ=             -7.6080
   XY=              0.0346   XZ=              0.0000   YZ=              0.0000

 1\1\GINC-NODE24\SP\RB2PLYPD3-FC\def2QZVP\H2O1\BOITTIER\26-Aug-2020\0\\
 #p B2PLYPD3/Def2QZVP\\h2o\\0,1\O,0,-5.326605,-0.765274,0.923996\H,0,-4
 .368927,-0.715272,0.897303\H,0,-5.609308,0.143696,0.724828\\Version=ES
 64L-G09RevD.01\State=1-A'\HF=-76.3346644\MP2=-76.4249281\RMSD=4.177e-0
 9\PG=CS [SG(H2O1)]\\@

 WE ARE PERHAPS NOT FAR REMOVED FROM THE TIME WHEN WE SHALL BE ABLE TO SUBMIT

 Normal termination of Gaussian 09 at Wed Aug 26 09:14:05 2020.
