 Gaussian 09, Revision D.01,
 Gaussian 09:  ES64L-G09RevD.01 24-Apr-2013

 --------------------
 #p B2PLYPD3/Def2QZVP
 --------------------

 ---
 h2o
 ---
 Symbolic Z-matrix:
 Charge =  0 Multiplicity = 1

                         Standard orientation:
 ---------------------------------------------------------------------
 Center     Atomic      Atomic             Coordinates (Angstroms)
 Number     Number       Type             X           Y           Z
 ---------------------------------------------------------------------
      1          8           0        0.000000    0.116921    0.000000
      2          1           0        0.764363   -0.462165    0.000000
      3          1           0       -0.764363   -0.473200    0.000000
 ---------------------------------------------------------------------

 SCF Done:  E(RB2PLYPD3) =  -76.3349777679     A.U. after   10 cycles
 E2(B2PLYPD3) =    -0.9009613026D-01 E(B2PLYPD3) =    -0.76425073898118D+02

 The electronic state is 1-A'.
 Alpha  occ. eigenvalues --  -19.73166  -1.15472  -0.61210  -0.47315  -0.39922
 Alpha virt. eigenvalues --    0.04506   0.10165   0.27528   0.30423   0.30968
 Alpha virt. eigenvalues --    0.35662   0.43871   0.50325   0.56136   0.62312
 Alpha virt. eigenvalues --    0.65710   0.81032   0.93675   0.96017   1.03704

 Mulliken charges:
               1
     1  O   -0.447075
     2  H    0.222070
     3  H    0.225004
 Sum of Mulliken charges =   0.00000

 Dipole moment (field-independent basis, Debye):
    X=              0.0034    Y=             -1.9553    Z=              0.0000  Tot=              1.9553
 Quadrupole moment (field-independent basis, Debye-Ang):
   XX=             -4.3066   YY=             -6.3438   ZZ=             -7.6027
   XY=              0.0183   XZ=              0.0000   YZ=              0.0000

 1\1\GINC-NODE31\SP\RB2PLYPD3-FC\def2QZVP\H2O1\BOITTIER\26-Aug-2020\0\\
 #p B2PLYPD3/Def2QZVP\\h2o\\0,1\O,0,-5.326605,-0.764757,0.916847\H,0,-4
 .368927,-0.728954,0.950943\H,0,-5.609308,0.149104,0.784822\\Version=ES
 64L-G09RevD.01\State=1-A'\HF=-76.3349778\MP2=-76.4250739\RMSD=4.003e-0
 9\PG=CS [SG(H2O1)]\\@

 EVANS BOLDLY PUT 50 ATM. OF ETHYLENE IN A CELL WITH 25 ATM. OF OXYGEN.

 Normal termination of Gaussian 09 at Wed Aug 26 10:21:53 2020.
