 Gaussian 09, Revision D.01,
 Gaussian 09:  ES64L-G09RevD.01 24-Apr-2013

 --------------------
 #p B2PLYPD3/Def2QZVP
 --------------------

 ---
 h2o
 ---
 Symbolic Z-matrix:
 Charge =  0 Multiplicity = 1

                         Standard orientation:
 ---------------------------------------------------------------------
 Center     Atomic      Atomic             Coordinates (Angstroms)
 Number     Number       Type             X           Y           Z
 ---------------------------------------------------------------------
      1          8           0        0.000000    0.116638    0.000000
      2          1           0        0.749886   -0.486157    0.000000
      3          1           0       -0.749886   -0.446946    0.000000
 ---------------------------------------------------------------------

 SCF Done:  E(RB2PLYPD3) =  -76.3349467742     A.U. after   10 cycles
 E2(B2PLYPD3) =    -0.8972393884D-01 E(B2PLYPD3) =    -0.76424670713006D+02

 The electronic state is 1-A'.
 Alpha  occ. eigenvalues --  -19.73004  -1.16132  -0.61605  -0.47648  -0.40050
 Alpha virt. eigenvalues --    0.04617   0.10297   0.27460   0.30389   0.31092
 Alpha virt. eigenvalues --    0.36360   0.44241   0.50268   0.56417   0.62147
 Alpha virt. eigenvalues --    0.65417   0.81386   0.94077   0.95758   1.04322

 Mulliken charges:
               1
     1  O   -0.434956
     2  H    0.223124
     3  H    0.211832
 Sum of Mulliken charges =   0.00000

 Dipole moment (field-independent basis, Debye):
    X=             -0.0124    Y=             -1.9609    Z=              0.0000  Tot=              1.9610
 Quadrupole moment (field-independent basis, Debye-Ang):
   XX=             -4.3726   YY=             -6.3083   ZZ=             -7.5729
   XY=             -0.0637   XZ=              0.0000   YZ=              0.0000

 1\1\GINC-NODE38\SP\RB2PLYPD3-FC\def2QZVP\H2O1\BOITTIER\26-Aug-2020\0\\
 #p B2PLYPD3/Def2QZVP\\h2o\\0,1\O,0,-5.326605,-0.762054,0.92841\H,0,-4.
 368927,-0.728274,0.842369\H,0,-5.609308,0.105179,0.709454\\Version=ES6
 4L-G09RevD.01\State=1-A'\HF=-76.3349468\MP2=-76.4246707\RMSD=4.515e-09
 \PG=CS [SG(H2O1)]\\@

 ...THE PHYSICISTS HAVE MADE THEIR UNIVERSE, AND IF YOU DO NOT LIKE

 Normal termination of Gaussian 09 at Wed Aug 26 09:13:26 2020.
