 Gaussian 09, Revision D.01,
 Gaussian 09:  ES64L-G09RevD.01 24-Apr-2013

 --------------------
 #p B2PLYPD3/Def2QZVP
 --------------------

 ---
 h2o
 ---
 Symbolic Z-matrix:
 Charge =  0 Multiplicity = 1

                         Standard orientation:
 ---------------------------------------------------------------------
 Center     Atomic      Atomic             Coordinates (Angstroms)
 Number     Number       Type             X           Y           Z
 ---------------------------------------------------------------------
      1          8           0        0.000000    0.121143    0.000000
      2          1           0        0.748610   -0.481974    0.000000
      3          1           0       -0.748610   -0.487173    0.000000
 ---------------------------------------------------------------------

 SCF Done:  E(RB2PLYPD3) =  -76.3347031826     A.U. after   10 cycles
 E2(B2PLYPD3) =    -0.9021871113D-01 E(B2PLYPD3) =    -0.76424921893720D+02

 The electronic state is 1-A'.
 Alpha  occ. eigenvalues --  -19.73305  -1.15666  -0.60594  -0.47904  -0.39994
 Alpha virt. eigenvalues --    0.04438   0.10213   0.27588   0.30413   0.30659
 Alpha virt. eigenvalues --    0.36127   0.43866   0.49772   0.56604   0.61390
 Alpha virt. eigenvalues --    0.65793   0.81180   0.94013   0.95981   1.03047

 Mulliken charges:
               1
     1  O   -0.440841
     2  H    0.219718
     3  H    0.221123
 Sum of Mulliken charges =   0.00000

 Dipole moment (field-independent basis, Debye):
    X=              0.0018    Y=             -2.0040    Z=              0.0000  Tot=              2.0040
 Quadrupole moment (field-independent basis, Debye-Ang):
   XX=             -4.4414   YY=             -6.2511   ZZ=             -7.5984
   XY=              0.0082   XZ=              0.0000   YZ=              0.0000

 1\1\GINC-NODE19\SP\RB2PLYPD3-FC\def2QZVP\H2O1\BOITTIER\26-Aug-2020\0\\
 #p B2PLYPD3/Def2QZVP\\h2o\\0,1\O,0,-5.326605,-0.766396,0.92424\H,0,-4.
 368927,-0.685609,0.902029\H,0,-5.609308,0.131983,0.715771\\Version=ES6
 4L-G09RevD.01\State=1-A'\HF=-76.3347032\MP2=-76.4249219\RMSD=4.300e-09
 \PG=CS [SG(H2O1)]\\@

 Normal termination of Gaussian 09 at Wed Aug 26 12:47:14 2020.
