 Gaussian 09, Revision D.01,
 Gaussian 09:  ES64L-G09RevD.01 24-Apr-2013

 --------------------
 #p B2PLYPD3/Def2QZVP
 --------------------

 ---
 h2o
 ---
 Symbolic Z-matrix:
 Charge =  0 Multiplicity = 1

                         Standard orientation:
 ---------------------------------------------------------------------
 Center     Atomic      Atomic             Coordinates (Angstroms)
 Number     Number       Type             X           Y           Z
 ---------------------------------------------------------------------
      1          8           0        0.000000    0.116145    0.000000
      2          1           0        0.756406   -0.473339    0.000000
      3          1           0       -0.756406   -0.455817    0.000000
 ---------------------------------------------------------------------

 SCF Done:  E(RB2PLYPD3) =  -76.3352056620     A.U. after   10 cycles
 E2(B2PLYPD3) =    -0.8981899798D-01 E(B2PLYPD3) =    -0.76425024659957D+02

 The electronic state is 1-A'.
 Alpha  occ. eigenvalues --  -19.73036  -1.15899  -0.61570  -0.47469  -0.40002
 Alpha virt. eigenvalues --    0.04598   0.10251   0.27475   0.30400   0.31114
 Alpha virt. eigenvalues --    0.36079   0.44120   0.50364   0.56274   0.62321
 Alpha virt. eigenvalues --    0.65497   0.81266   0.93945   0.95836   1.04287

 Mulliken charges:
               1
     1  O   -0.439686
     2  H    0.222299
     3  H    0.217387
 Sum of Mulliken charges =   0.00000

 Dipole moment (field-independent basis, Debye):
    X=             -0.0054    Y=             -1.9526    Z=              0.0000  Tot=              1.9526
 Quadrupole moment (field-independent basis, Debye-Ang):
   XX=             -4.3346   YY=             -6.3322   ZZ=             -7.5824
   XY=             -0.0288   XZ=              0.0000   YZ=              0.0000

 1\1\GINC-NODE04\SP\RB2PLYPD3-FC\def2QZVP\H2O1\BOITTIER\26-Aug-2020\0\\
 #p B2PLYPD3/Def2QZVP\\h2o\\0,1\O,0,-5.326605,-0.763052,0.923721\H,0,-4
 .368927,-0.730554,0.885806\H,0,-5.609308,0.123428,0.740629\\Version=ES
 64L-G09RevD.01\State=1-A'\HF=-76.3352057\MP2=-76.4250247\RMSD=4.154e-0
 9\PG=CS [SG(H2O1)]\\@

 HE THAT RISETH LATE MUST TROT ALL DAY.

 Normal termination of Gaussian 09 at Wed Aug 26 09:38:13 2020.
