 Gaussian 09, Revision D.01,
 Gaussian 09:  ES64L-G09RevD.01 24-Apr-2013

 --------------------
 #p B2PLYPD3/Def2QZVP
 --------------------

 ---
 h2o
 ---
 Symbolic Z-matrix:
 Charge =  0 Multiplicity = 1

                         Standard orientation:
 ---------------------------------------------------------------------
 Center     Atomic      Atomic             Coordinates (Angstroms)
 Number     Number       Type             X           Y           Z
 ---------------------------------------------------------------------
      1          8           0        0.000000    0.113041    0.000000
      2          1           0        0.784746   -0.436794    0.000000
      3          1           0       -0.784746   -0.467533    0.000000
 ---------------------------------------------------------------------

 SCF Done:  E(RB2PLYPD3) =  -76.3342887155     A.U. after   10 cycles
 E2(B2PLYPD3) =    -0.9016817593D-01 E(B2PLYPD3) =    -0.76424456891474D+02

 The electronic state is 1-A'.
 Alpha  occ. eigenvalues --  -19.73099  -1.15022  -0.61572  -0.46627  -0.39798
 Alpha virt. eigenvalues --    0.04500   0.10063   0.27499   0.30446   0.31187
 Alpha virt. eigenvalues --    0.34896   0.43725   0.50973   0.55582   0.63276
 Alpha virt. eigenvalues --    0.65763   0.80606   0.93233   0.96228   1.04003

 Mulliken charges:
               1
     1  O   -0.458334
     2  H    0.225278
     3  H    0.233056
 Sum of Mulliken charges =   0.00000

 Dipole moment (field-independent basis, Debye):
    X=              0.0083    Y=             -1.9059    Z=              0.0000  Tot=              1.9059
 Quadrupole moment (field-independent basis, Debye-Ang):
   XX=             -4.1526   YY=             -6.4435   ZZ=             -7.6204
   XY=              0.0536   XZ=              0.0000   YZ=              0.0000

 1\1\GINC-NODE02\SP\RB2PLYPD3-FC\def2QZVP\H2O1\BOITTIER\26-Aug-2020\0\\
 #p B2PLYPD3/Def2QZVP\\h2o\\0,1\O,0,-5.326605,-0.762089,0.916805\H,0,-4
 .368927,-0.787695,0.935307\H,0,-5.609308,0.165156,0.801966\\Version=ES
 64L-G09RevD.01\State=1-A'\HF=-76.3342887\MP2=-76.4244569\RMSD=3.951e-0
 9\PG=CS [SG(H2O1)]\\@

 In the race for quality, there is no finish line.

 Normal termination of Gaussian 09 at Wed Aug 26 08:32:52 2020.
