 Gaussian 09, Revision D.01,
 Gaussian 09:  ES64L-G09RevD.01 24-Apr-2013

 --------------------
 #p B2PLYPD3/Def2QZVP
 --------------------

 ---
 h2o
 ---
 Symbolic Z-matrix:
 Charge =  0 Multiplicity = 1

                         Standard orientation:
 ---------------------------------------------------------------------
 Center     Atomic      Atomic             Coordinates (Angstroms)
 Number     Number       Type             X           Y           Z
 ---------------------------------------------------------------------
      1          8           0        0.000000    0.115587    0.000000
      2          1           0        0.759547   -0.468552    0.000000
      3          1           0       -0.759547   -0.456143    0.000000
 ---------------------------------------------------------------------

 SCF Done:  E(RB2PLYPD3) =  -76.3352313660     A.U. after   10 cycles
 E2(B2PLYPD3) =    -0.8983069779D-01 E(B2PLYPD3) =    -0.76425062063757D+02

 The electronic state is 1-A'.
 Alpha  occ. eigenvalues --  -19.73029  -1.15824  -0.61625  -0.47366  -0.39983
 Alpha virt. eigenvalues --    0.04599   0.10234   0.27473   0.30404   0.31150
 Alpha virt. eigenvalues --    0.35960   0.44093   0.50450   0.56190   0.62462
 Alpha virt. eigenvalues --    0.65507   0.81216   0.93879   0.95862   1.04344

 Mulliken charges:
               1
     1  O   -0.441434
     2  H    0.222442
     3  H    0.218992
 Sum of Mulliken charges =   0.00000

 Dipole moment (field-independent basis, Debye):
    X=             -0.0038    Y=             -1.9454    Z=              0.0000  Tot=              1.9454
 Quadrupole moment (field-independent basis, Debye-Ang):
   XX=             -4.3118   YY=             -6.3473   ZZ=             -7.5852
   XY=             -0.0206   XZ=              0.0000   YZ=              0.0000

 1\1\GINC-NODE32\SP\RB2PLYPD3-FC\def2QZVP\H2O1\BOITTIER\26-Aug-2020\0\\
 #p B2PLYPD3/Def2QZVP\\h2o\\0,1\O,0,-5.326605,-0.763481,0.919598\H,0,-4
 .368927,-0.73217,0.921208\H,0,-5.609308,0.131904,0.770764\\Version=ES6
 4L-G09RevD.01\State=1-A'\HF=-76.3352314\MP2=-76.4250621\RMSD=4.066e-09
 \PG=CS [SG(H2O1)]\\@

      TO SUSPECT YOUR OWN MORTALITY IS TO KNOW THE BEGINNING OF TERROR.

 Normal termination of Gaussian 09 at Wed Aug 26 09:41:20 2020.
