 Gaussian 09, Revision D.01,
 Gaussian 09:  ES64L-G09RevD.01 24-Apr-2013

 --------------------
 #p B2PLYPD3/Def2QZVP
 --------------------

 ---
 h2o
 ---
 Symbolic Z-matrix:
 Charge =  0 Multiplicity = 1

                         Standard orientation:
 ---------------------------------------------------------------------
 Center     Atomic      Atomic             Coordinates (Angstroms)
 Number     Number       Type             X           Y           Z
 ---------------------------------------------------------------------
      1          8           0        0.000000    0.117631    0.000000
      2          1           0        0.740497   -0.508574    0.000000
      3          1           0       -0.740497   -0.432474    0.000000
 ---------------------------------------------------------------------

 SCF Done:  E(RB2PLYPD3) =  -76.3338897526     A.U. after   10 cycles
 E2(B2PLYPD3) =    -0.8962881756D-01 E(B2PLYPD3) =    -0.76423518570155D+02

 The electronic state is 1-A'.
 Alpha  occ. eigenvalues --  -19.72975  -1.16447  -0.61579  -0.47907  -0.40114
 Alpha virt. eigenvalues --    0.04617   0.10358   0.27441   0.30374   0.30986
 Alpha virt. eigenvalues --    0.36733   0.44418   0.50112   0.56614   0.61866
 Alpha virt. eigenvalues --    0.65316   0.81514   0.94164   0.95697   1.04157

 Mulliken charges:
               1
     1  O   -0.428130
     2  H    0.225410
     3  H    0.202721
 Sum of Mulliken charges =   0.00000

 Dipole moment (field-independent basis, Debye):
    X=             -0.0249    Y=             -1.9753    Z=              0.0000  Tot=              1.9754
 Quadrupole moment (field-independent basis, Debye-Ang):
   XX=             -4.4306   YY=             -6.2687   ZZ=             -7.5614
   XY=             -0.1212   XZ=              0.0000   YZ=              0.0000

 1\1\GINC-NODE25\SP\RB2PLYPD3-FC\def2QZVP\H2O1\BOITTIER\26-Aug-2020\0\\
 #p B2PLYPD3/Def2QZVP\\h2o\\0,1\O,0,-5.326605,-0.760409,0.934314\H,0,-4
 .368927,-0.72716,0.785268\H,0,-5.609308,0.077752,0.672558\\Version=ES6
 4L-G09RevD.01\State=1-A'\HF=-76.3338898\MP2=-76.4235186\RMSD=5.352e-09
 \PG=CS [SG(H2O1)]\\@

 A ROPE OVER THE TOP OF A FENCE HAS THE SAME LENGTH ON EACH SIDE.

 Normal termination of Gaussian 09 at Wed Aug 26 08:40:57 2020.
