 Gaussian 09, Revision D.01,
 Gaussian 09:  ES64L-G09RevD.01 24-Apr-2013

 --------------------
 #p B2PLYPD3/Def2QZVP
 --------------------

 ---
 h2o
 ---
 Symbolic Z-matrix:
 Charge =  0 Multiplicity = 1

                         Standard orientation:
 ---------------------------------------------------------------------
 Center     Atomic      Atomic             Coordinates (Angstroms)
 Number     Number       Type             X           Y           Z
 ---------------------------------------------------------------------
      1          8           0        0.000000    0.120084    0.000000
      2          1           0        0.773175   -0.460662    0.000000
      3          1           0       -0.773175   -0.500014    0.000000
 ---------------------------------------------------------------------

 SCF Done:  E(RB2PLYPD3) =  -76.3334476583     A.U. after   10 cycles
 E2(B2PLYPD3) =    -0.9067731161D-01 E(B2PLYPD3) =    -0.76424124969918D+02

 The electronic state is 1-A'.
 Alpha  occ. eigenvalues --  -19.73460  -1.14770  -0.60308  -0.47245  -0.39805
 Alpha virt. eigenvalues --    0.04292   0.10014   0.27645   0.30460   0.30499
 Alpha virt. eigenvalues --    0.35084   0.43435   0.50014   0.56042   0.61931
 Alpha virt. eigenvalues --    0.66139   0.80645   0.93183   0.96322   1.02312

 Mulliken charges:
               1
     1  O   -0.457121
     2  H    0.223798
     3  H    0.233324
 Sum of Mulliken charges =   0.00000

 Dipole moment (field-independent basis, Debye):
    X=              0.0124    Y=             -1.9795    Z=              0.0000  Tot=              1.9795
 Quadrupole moment (field-independent basis, Debye-Ang):
   XX=             -4.3071   YY=             -6.3266   ZZ=             -7.6388
   XY=              0.0651   XZ=              0.0000   YZ=              0.0000

 1\1\GINC-NODE20\SP\RB2PLYPD3-FC\def2QZVP\H2O1\BOITTIER\26-Aug-2020\0\\
 #p B2PLYPD3/Def2QZVP\\h2o\\0,1\O,0,-5.326605,-0.76708,0.908125\H,0,-4.
 368927,-0.723084,1.034549\H,0,-5.609308,0.180413,0.83988\\Version=ES64
 L-G09RevD.01\State=1-A'\HF=-76.3334477\MP2=-76.424125\RMSD=4.198e-09\P
 G=CS [SG(H2O1)]\\@

 Boundary, n.  In political geography, an imaginary

 Normal termination of Gaussian 09 at Wed Aug 26 08:41:00 2020.
