 Gaussian 09, Revision D.01,
 Gaussian 09:  ES64L-G09RevD.01 24-Apr-2013

 --------------------
 #p B2PLYPD3/Def2QZVP
 --------------------

 ---
 h2o
 ---
 Symbolic Z-matrix:
 Charge =  0 Multiplicity = 1

                         Standard orientation:
 ---------------------------------------------------------------------
 Center     Atomic      Atomic             Coordinates (Angstroms)
 Number     Number       Type             X           Y           Z
 ---------------------------------------------------------------------
      1          8           0        0.000000    0.114581    0.000000
      2          1           0        0.782704   -0.437806    0.000000
      3          1           0       -0.782704   -0.478842    0.000000
 ---------------------------------------------------------------------

 SCF Done:  E(RB2PLYPD3) =  -76.3340748715     A.U. after   10 cycles
 E2(B2PLYPD3) =    -0.9028588927D-01 E(B2PLYPD3) =    -0.76424360760781D+02

 The electronic state is 1-A'.
 Alpha  occ. eigenvalues --  -19.73181  -1.14953  -0.61287  -0.46750  -0.39796
 Alpha virt. eigenvalues --    0.04450   0.10050   0.27530   0.30450   0.31018
 Alpha virt. eigenvalues --    0.34934   0.43656   0.50756   0.55670   0.62985
 Alpha virt. eigenvalues --    0.65847   0.80610   0.93181   0.96251   1.03548

 Mulliken charges:
               1
     1  O   -0.458322
     2  H    0.224026
     3  H    0.234296
 Sum of Mulliken charges =   0.00000

 Dipole moment (field-independent basis, Debye):
    X=              0.0115    Y=             -1.9219    Z=              0.0000  Tot=              1.9219
 Quadrupole moment (field-independent basis, Debye-Ang):
   XX=             -4.1838   YY=             -6.4190   ZZ=             -7.6252
   XY=              0.0708   XZ=              0.0000   YZ=              0.0000

 1\1\GINC-NODE13\SP\RB2PLYPD3-FC\def2QZVP\H2O1\BOITTIER\26-Aug-2020\0\\
 #p B2PLYPD3/Def2QZVP\\h2o\\0,1\O,0,-5.326605,-0.763117,0.917175\H,0,-4
 .368927,-0.77536,0.938644\H,0,-5.609308,0.169275,0.792668\\Version=ES6
 4L-G09RevD.01\State=1-A'\HF=-76.3340749\MP2=-76.4243608\RMSD=4.135e-09
 \PG=CS [SG(H2O1)]\\@

 UNDER MOST GREENE GRASSE LY MOST GREATE SNAKES.

 Normal termination of Gaussian 09 at Wed Aug 26 11:26:06 2020.
