 Gaussian 09, Revision D.01,
 Gaussian 09:  ES64L-G09RevD.01 24-Apr-2013

 --------------------
 #p B2PLYPD3/Def2QZVP
 --------------------

 ---
 h2o
 ---
 Symbolic Z-matrix:
 Charge =  0 Multiplicity = 1

                         Standard orientation:
 ---------------------------------------------------------------------
 Center     Atomic      Atomic             Coordinates (Angstroms)
 Number     Number       Type             X           Y           Z
 ---------------------------------------------------------------------
      1          8           0        0.000000    0.115061    0.000000
      2          1           0        0.775765   -0.446551    0.000000
      3          1           0       -0.775765   -0.473939    0.000000
 ---------------------------------------------------------------------

 SCF Done:  E(RB2PLYPD3) =  -76.3346040835     A.U. after   10 cycles
 E2(B2PLYPD3) =    -0.9016556090D-01 E(B2PLYPD3) =    -0.76424769644404D+02

 The electronic state is 1-A'.
 Alpha  occ. eigenvalues --  -19.73148  -1.15191  -0.61354  -0.46944  -0.39850
 Alpha virt. eigenvalues --    0.04492   0.10102   0.27520   0.30437   0.31052
 Alpha virt. eigenvalues --    0.35226   0.43769   0.50636   0.55834   0.62797
 Alpha virt. eigenvalues --    0.65760   0.80801   0.93395   0.96139   1.03766

 Mulliken charges:
               1
     1  O   -0.453567
     2  H    0.223256
     3  H    0.230311
 Sum of Mulliken charges =   0.00000

 Dipole moment (field-independent basis, Debye):
    X=              0.0079    Y=             -1.9307    Z=              0.0000  Tot=              1.9308
 Quadrupole moment (field-independent basis, Debye-Ang):
   XX=             -4.2249   YY=             -6.3957   ZZ=             -7.6141
   XY=              0.0467   XZ=              0.0000   YZ=              0.0000

 1\1\GINC-NODE20\SP\RB2PLYPD3-FC\def2QZVP\H2O1\BOITTIER\26-Aug-2020\0\\
 #p B2PLYPD3/Def2QZVP\\h2o\\0,1\O,0,-5.326605,-0.763253,0.918717\H,0,-4
 .368927,-0.762291,0.927118\H,0,-5.609308,0.158387,0.779467\\Version=ES
 64L-G09RevD.01\State=1-A'\HF=-76.3346041\MP2=-76.4247696\RMSD=3.991e-0
 9\PG=CS [SG(H2O1)]\\@

 BE CAREFUL NOT TO BECOME TOO GOOD OF A SONGBIRD OR

 Normal termination of Gaussian 09 at Wed Aug 26 10:35:06 2020.
