 Gaussian 09, Revision D.01,
 Gaussian 09:  ES64L-G09RevD.01 24-Apr-2013

 --------------------
 #p B2PLYPD3/Def2QZVP
 --------------------

 ---
 h2o
 ---
 Symbolic Z-matrix:
 Charge =  0 Multiplicity = 1

                         Standard orientation:
 ---------------------------------------------------------------------
 Center     Atomic      Atomic             Coordinates (Angstroms)
 Number     Number       Type             X           Y           Z
 ---------------------------------------------------------------------
      1          8           0        0.000000    0.117965    0.000000
      2          1           0        0.766189   -0.460911    0.000000
      3          1           0       -0.766189   -0.482812    0.000000
 ---------------------------------------------------------------------

 SCF Done:  E(RB2PLYPD3) =  -76.3346522089     A.U. after   10 cycles
 E2(B2PLYPD3) =    -0.9026013089D-01 E(B2PLYPD3) =    -0.76424912339765D+02

 The electronic state is 1-A'.
 Alpha  occ. eigenvalues --  -19.73254  -1.15282  -0.60933  -0.47319  -0.39892
 Alpha virt. eigenvalues --    0.04446   0.10127   0.27563   0.30433   0.30830
 Alpha virt. eigenvalues --    0.35520   0.43747   0.50215   0.56129   0.62169
 Alpha virt. eigenvalues --    0.65833   0.80934   0.93557   0.96104   1.03274

 Mulliken charges:
               1
     1  O   -0.449740
     2  H    0.222031
     3  H    0.227709
 Sum of Mulliken charges =   0.00000

 Dipole moment (field-independent basis, Debye):
    X=              0.0068    Y=             -1.9640    Z=              0.0000  Tot=              1.9640
 Quadrupole moment (field-independent basis, Debye-Ang):
   XX=             -4.3121   YY=             -6.3355   ZZ=             -7.6125
   XY=              0.0362   XZ=              0.0000   YZ=              0.0000

 1\1\GINC-NODE18\SP\RB2PLYPD3-FC\def2QZVP\H2O1\BOITTIER\26-Aug-2020\0\\
 #p B2PLYPD3/Def2QZVP\\h2o\\0,1\O,0,-5.326605,-0.765634,0.914863\H,0,-4
 .368927,-0.724164,0.972097\H,0,-5.609308,0.158346,0.795202\\Version=ES
 64L-G09RevD.01\State=1-A'\HF=-76.3346522\MP2=-76.4249123\RMSD=4.067e-0
 9\PG=CS [SG(H2O1)]\\@

 THE VALUE OF PHILOSOPHY IS, IN FACT, TO BE SOUGHT LARGELY IN ITS

 Normal termination of Gaussian 09 at Wed Aug 26 11:25:48 2020.
