 Gaussian 09, Revision D.01,
 Gaussian 09:  ES64L-G09RevD.01 24-Apr-2013

 --------------------
 #p B2PLYPD3/Def2QZVP
 --------------------

 ---
 h2o
 ---
 Symbolic Z-matrix:
 Charge =  0 Multiplicity = 1

                         Standard orientation:
 ---------------------------------------------------------------------
 Center     Atomic      Atomic             Coordinates (Angstroms)
 Number     Number       Type             X           Y           Z
 ---------------------------------------------------------------------
      1          8           0        0.000000    0.111625    0.000000
      2          1           0        0.760830   -0.473166    0.000000
      3          1           0       -0.760830   -0.419836    0.000000
 ---------------------------------------------------------------------

 SCF Done:  E(RB2PLYPD3) =  -76.3346277487     A.U. after   10 cycles
 E2(B2PLYPD3) =    -0.8943664018D-01 E(B2PLYPD3) =    -0.76424064388883D+02

 The electronic state is 1-A'.
 Alpha  occ. eigenvalues --  -19.72768  -1.16209  -0.62502  -0.47117  -0.40028
 Alpha virt. eigenvalues --    0.04741   0.10295   0.27370   0.30381   0.31489
 Alpha virt. eigenvalues --    0.36087   0.44418   0.50954   0.56004   0.63172
 Alpha virt. eigenvalues --    0.65189   0.81345   0.93932   0.95724   1.05281

 Mulliken charges:
               1
     1  O   -0.436093
     2  H    0.225843
     3  H    0.210250
 Sum of Mulliken charges =   0.00000

 Dipole moment (field-independent basis, Debye):
    X=             -0.0150    Y=             -1.9061    Z=              0.0000  Tot=              1.9062
 Quadrupole moment (field-independent basis, Debye-Ang):
   XX=             -4.2519   YY=             -6.3959   ZZ=             -7.5644
   XY=             -0.0905   XZ=              0.0000   YZ=              0.0000

 1\1\GINC-NODE21\SP\RB2PLYPD3-FC\def2QZVP\H2O1\BOITTIER\26-Aug-2020\0\\
 #p B2PLYPD3/Def2QZVP\\h2o\\0,1\O,0,-5.326605,-0.761389,0.91159\H,0,-4.
 368927,-0.753952,0.971937\H,0,-5.609308,0.120226,0.847185\\Version=ES6
 4L-G09RevD.01\State=1-A'\HF=-76.3346277\MP2=-76.4240644\RMSD=4.690e-09
 \PG=CS [SG(H2O1)]\\@

 IN-LAWS ARE LIKE SEEDS. YOU DON'T NEED THEM

 Normal termination of Gaussian 09 at Wed Aug 26 08:49:17 2020.
