 Gaussian 09, Revision D.01,
 Gaussian 09:  ES64L-G09RevD.01 24-Apr-2013

 --------------------
 #p B2PLYPD3/Def2QZVP
 --------------------

 ---
 h2o
 ---
 Symbolic Z-matrix:
 Charge =  0 Multiplicity = 1

                         Standard orientation:
 ---------------------------------------------------------------------
 Center     Atomic      Atomic             Coordinates (Angstroms)
 Number     Number       Type             X           Y           Z
 ---------------------------------------------------------------------
      1          8           0        0.000000    0.120698    0.000000
      2          1           0        0.765741   -0.456866    0.000000
      3          1           0       -0.765741   -0.508722    0.000000
 ---------------------------------------------------------------------

 SCF Done:  E(RB2PLYPD3) =  -76.3335968847     A.U. after   10 cycles
 E2(B2PLYPD3) =    -0.9057394444D-01 E(B2PLYPD3) =    -0.76424170829137D+02

 The electronic state is 1-A'.
 Alpha  occ. eigenvalues --  -19.73431  -1.15012  -0.60336  -0.47448  -0.39858
 Alpha virt. eigenvalues --    0.04317   0.10069   0.27635   0.30447   0.30478
 Alpha virt. eigenvalues --    0.35392   0.43556   0.49904   0.56208   0.61732
 Alpha virt. eigenvalues --    0.66051   0.80800   0.93358   0.96253   1.02371

 Mulliken charges:
               1
     1  O   -0.452323
     2  H    0.219703
     3  H    0.232620
 Sum of Mulliken charges =   0.00000

 Dipole moment (field-independent basis, Debye):
    X=              0.0167    Y=             -1.9895    Z=              0.0000  Tot=              1.9895
 Quadrupole moment (field-independent basis, Debye-Ang):
   XX=             -4.3521   YY=             -6.2990   ZZ=             -7.6285
   XY=              0.0845   XZ=              0.0000   YZ=              0.0000

 1\1\GINC-NODE39\SP\RB2PLYPD3-FC\def2QZVP\H2O1\BOITTIER\26-Aug-2020\0\\
 #p B2PLYPD3/Def2QZVP\\h2o\\0,1\O,0,-5.326605,-0.766035,0.92451\H,0,-4.
 368927,-0.720301,0.898027\H,0,-5.609308,0.160904,0.716201\\Version=ES6
 4L-G09RevD.01\State=1-A'\HF=-76.3335969\MP2=-76.4241708\RMSD=4.475e-09
 \PG=CS [SG(H2O1)]\\@

 ALL MY ATTEMPTS TO ADAPT THE THEORETICAL FOUNDATIONS OF PHYSICS

 Normal termination of Gaussian 09 at Wed Aug 26 08:30:06 2020.
