 Gaussian 09, Revision D.01,
 Gaussian 09:  ES64L-G09RevD.01 24-Apr-2013

 --------------------
 #p B2PLYPD3/Def2QZVP
 --------------------

 ---
 h2o
 ---
 Symbolic Z-matrix:
 Charge =  0 Multiplicity = 1

                         Standard orientation:
 ---------------------------------------------------------------------
 Center     Atomic      Atomic             Coordinates (Angstroms)
 Number     Number       Type             X           Y           Z
 ---------------------------------------------------------------------
      1          8           0        0.000000    0.112195    0.000000
      2          1           0        0.790934   -0.429616    0.000000
      3          1           0       -0.790934   -0.467942    0.000000
 ---------------------------------------------------------------------

 SCF Done:  E(RB2PLYPD3) =  -76.3338548904     A.U. after   10 cycles
 E2(B2PLYPD3) =    -0.9023440529D-01 E(B2PLYPD3) =    -0.76424089295733D+02

 The electronic state is 1-A'.
 Alpha  occ. eigenvalues --  -19.73101  -1.14850  -0.61594  -0.46435  -0.39754
 Alpha virt. eigenvalues --    0.04478   0.10025   0.27497   0.30456   0.31211
 Alpha virt. eigenvalues --    0.34648   0.43652   0.51145   0.55425   0.63514
 Alpha virt. eigenvalues --    0.65816   0.80431   0.93086   0.96321   1.03941

 Mulliken charges:
               1
     1  O   -0.462309
     2  H    0.226403
     3  H    0.235906
 Sum of Mulliken charges =   0.00000

 Dipole moment (field-independent basis, Debye):
    X=              0.0100    Y=             -1.8938    Z=              0.0000  Tot=              1.8939
 Quadrupole moment (field-independent basis, Debye-Ang):
   XX=             -4.1099   YY=             -6.4696   ZZ=             -7.6281
   XY=              0.0678   XZ=              0.0000   YZ=              0.0000

 1\1\GINC-NODE40\SP\RB2PLYPD3-FC\def2QZVP\H2O1\BOITTIER\26-Aug-2020\0\\
 #p B2PLYPD3/Def2QZVP\\h2o\\0,1\O,0,-5.326605,-0.761232,0.918894\H,0,-4
 .368927,-0.805502,0.913595\H,0,-5.609308,0.169252,0.790781\\Version=ES
 64L-G09RevD.01\State=1-A'\HF=-76.3338549\MP2=-76.4240893\RMSD=4.030e-0
 9\PG=CS [SG(H2O1)]\\@

 I WANT IT ALL - RICH, THIN, AND CHOCOLATE.

 Normal termination of Gaussian 09 at Wed Aug 26 09:23:19 2020.
