 Gaussian 09, Revision D.01,
 Gaussian 09:  ES64L-G09RevD.01 24-Apr-2013

 --------------------
 #p B2PLYPD3/Def2QZVP
 --------------------

 ---
 h2o
 ---
 Symbolic Z-matrix:
 Charge =  0 Multiplicity = 1

                         Standard orientation:
 ---------------------------------------------------------------------
 Center     Atomic      Atomic             Coordinates (Angstroms)
 Number     Number       Type             X           Y           Z
 ---------------------------------------------------------------------
      1          8           0        0.000000    0.121930    0.000000
      2          1           0        0.778285   -0.446097    0.000000
      3          1           0       -0.778285   -0.529342    0.000000
 ---------------------------------------------------------------------

 SCF Done:  E(RB2PLYPD3) =  -76.3314067987     A.U. after   10 cycles
 E2(B2PLYPD3) =    -0.9103200815D-01 E(B2PLYPD3) =    -0.76422438806841D+02

 The electronic state is 1-A'.
 Alpha  occ. eigenvalues --  -19.73622  -1.14390  -0.59798  -0.47180  -0.39739
 Alpha virt. eigenvalues --    0.04137   0.09921   0.27705   0.30093   0.30479
 Alpha virt. eigenvalues --    0.34803   0.43231   0.49838   0.55951   0.61740
 Alpha virt. eigenvalues --    0.66362   0.80394   0.92697   0.96511   1.01475

 Mulliken charges:
               1
     1  O   -0.461789
     2  H    0.221362
     3  H    0.240427
 Sum of Mulliken charges =   0.00000

 Dipole moment (field-independent basis, Debye):
    X=              0.0266    Y=             -1.9927    Z=              0.0000  Tot=              1.9929
 Quadrupole moment (field-independent basis, Debye-Ang):
   XX=             -4.3074   YY=             -6.3127   ZZ=             -7.6601
   XY=              0.1374   XZ=              0.0000   YZ=              0.0000

 1\1\GINC-NODE37\SP\RB2PLYPD3-FC\def2QZVP\H2O1\BOITTIER\26-Aug-2020\0\\
 #p B2PLYPD3/Def2QZVP\\h2o\\0,1\O,0,-5.326605,-0.768398,0.912586\H,0,-4
 .368927,-0.720912,1.00735\H,0,-5.609308,0.199323,0.796493\\Version=ES6
 4L-G09RevD.01\State=1-A'\HF=-76.3314068\MP2=-76.4224388\RMSD=4.910e-09
 \PG=CS [SG(H2O1)]\\@

 THE DIFFICULTY IN SCIENCE IS OFTEN NOT SO MUCH HOW

 Normal termination of Gaussian 09 at Wed Aug 26 09:14:07 2020.
