 Gaussian 09, Revision D.01,
 Gaussian 09:  ES64L-G09RevD.01 24-Apr-2013

 --------------------
 #p B2PLYPD3/Def2QZVP
 --------------------

 ---
 h2o
 ---
 Symbolic Z-matrix:
 Charge =  0 Multiplicity = 1

                         Standard orientation:
 ---------------------------------------------------------------------
 Center     Atomic      Atomic             Coordinates (Angstroms)
 Number     Number       Type             X           Y           Z
 ---------------------------------------------------------------------
      1          8           0        0.000000    0.113585    0.000000
      2          1           0        0.782438   -0.439008    0.000000
      3          1           0       -0.782438   -0.469670    0.000000
 ---------------------------------------------------------------------

 SCF Done:  E(RB2PLYPD3) =  -76.3343725521     A.U. after   10 cycles
 E2(B2PLYPD3) =    -0.9016927801D-01 E(B2PLYPD3) =    -0.76424541830161D+02

 The electronic state is 1-A'.
 Alpha  occ. eigenvalues --  -19.73113  -1.15064  -0.61512  -0.46709  -0.39811
 Alpha virt. eigenvalues --    0.04497   0.10073   0.27505   0.30444   0.31149
 Alpha virt. eigenvalues --    0.34981   0.43735   0.50881   0.55647   0.63148
 Alpha virt. eigenvalues --    0.65763   0.80659   0.93270   0.96204   1.03932

 Mulliken charges:
               1
     1  O   -0.457104
     2  H    0.224656
     3  H    0.232448
 Sum of Mulliken charges =   0.00000

 Dipole moment (field-independent basis, Debye):
    X=              0.0084    Y=             -1.9125    Z=              0.0000  Tot=              1.9125
 Quadrupole moment (field-independent basis, Debye-Ang):
   XX=             -4.1716   YY=             -6.4309   ZZ=             -7.6189
   XY=              0.0532   XZ=              0.0000   YZ=              0.0000

 1\1\GINC-NODE02\SP\RB2PLYPD3-FC\def2QZVP\H2O1\BOITTIER\26-Aug-2020\0\\
 #p B2PLYPD3/Def2QZVP\\h2o\\0,1\O,0,-5.326605,-0.762241,0.91863\H,0,-4.
 368927,-0.78253,0.921724\H,0,-5.609308,0.162431,0.786508\\Version=ES64
 L-G09RevD.01\State=1-A'\HF=-76.3343726\MP2=-76.4245418\RMSD=3.969e-09\
 PG=CS [SG(H2O1)]\\@

 NOTHING WILL BE ATTEMPTED IF ALL POSSIBLE OBJECTIONS

 Normal termination of Gaussian 09 at Wed Aug 26 12:08:46 2020.
