 Gaussian 09, Revision D.01,
 Gaussian 09:  ES64L-G09RevD.01 24-Apr-2013

 --------------------
 #p B2PLYPD3/Def2QZVP
 --------------------

 ---
 h2o
 ---
 Symbolic Z-matrix:
 Charge =  0 Multiplicity = 1

                         Standard orientation:
 ---------------------------------------------------------------------
 Center     Atomic      Atomic             Coordinates (Angstroms)
 Number     Number       Type             X           Y           Z
 ---------------------------------------------------------------------
      1          8           0        0.000000    0.122057    0.000000
      2          1           0        0.744298   -0.488441    0.000000
      3          1           0       -0.744298   -0.488013    0.000000
 ---------------------------------------------------------------------

 SCF Done:  E(RB2PLYPD3) =  -76.3345908781     A.U. after   10 cycles
 E2(B2PLYPD3) =    -0.9022986950D-01 E(B2PLYPD3) =    -0.76424820747587D+02

 The electronic state is 1-A'.
 Alpha  occ. eigenvalues --  -19.73328  -1.15743  -0.60472  -0.48053  -0.40016
 Alpha virt. eigenvalues --    0.04427   0.10231   0.27598   0.30410   0.30602
 Alpha virt. eigenvalues --    0.36256   0.43882   0.49662   0.56724   0.61182
 Alpha virt. eigenvalues --    0.65794   0.81216   0.94126   0.95964   1.02952

 Mulliken charges:
               1
     1  O   -0.438954
     2  H    0.219535
     3  H    0.219419
 Sum of Mulliken charges =   0.00000

 Dipole moment (field-independent basis, Debye):
    X=             -0.0001    Y=             -2.0149    Z=              0.0000  Tot=              2.0149
 Quadrupole moment (field-independent basis, Debye-Ang):
   XX=             -4.4748   YY=             -6.2287   ZZ=             -7.5961
   XY=             -0.0007   XZ=              0.0000   YZ=              0.0000

 1\1\GINC-NODE28\SP\RB2PLYPD3-FC\def2QZVP\H2O1\BOITTIER\26-Aug-2020\0\\
 #p B2PLYPD3/Def2QZVP\\h2o\\0,1\O,0,-5.326605,-0.767195,0.923457\H,0,-4
 .368927,-0.670084,0.913042\H,0,-5.609308,0.129245,0.716966\\Version=ES
 64L-G09RevD.01\State=1-A'\HF=-76.3345909\MP2=-76.4248207\RMSD=4.392e-0
 9\PG=CS [SG(H2O1)]\\@

 A MAN SHOULD NEVER BE ASHAMED TO OWN HE HAS BEEN IN THE WRONG

 Normal termination of Gaussian 09 at Wed Aug 26 09:03:25 2020.
