 Gaussian 09, Revision D.01,
 Gaussian 09:  ES64L-G09RevD.01 24-Apr-2013

 --------------------
 #p B2PLYPD3/Def2QZVP
 --------------------

 ---
 h2o
 ---
 Symbolic Z-matrix:
 Charge =  0 Multiplicity = 1

                         Standard orientation:
 ---------------------------------------------------------------------
 Center     Atomic      Atomic             Coordinates (Angstroms)
 Number     Number       Type             X           Y           Z
 ---------------------------------------------------------------------
      1          8           0        0.000000    0.115674    0.000000
      2          1           0        0.753143   -0.478050    0.000000
      3          1           0       -0.753143   -0.447345    0.000000
 ---------------------------------------------------------------------

 SCF Done:  E(RB2PLYPD3) =  -76.3351036118     A.U. after   10 cycles
 E2(B2PLYPD3) =    -0.8969034118D-01 E(B2PLYPD3) =    -0.76424793952993D+02

 The electronic state is 1-A'.
 Alpha  occ. eigenvalues --  -19.72971  -1.16096  -0.61754  -0.47523  -0.40037
 Alpha virt. eigenvalues --    0.04638   0.10288   0.27448   0.30390   0.31177
 Alpha virt. eigenvalues --    0.36260   0.44242   0.50398   0.56320   0.62353
 Alpha virt. eigenvalues --    0.65395   0.81363   0.94038   0.95757   1.04533

 Mulliken charges:
               1
     1  O   -0.436220
     2  H    0.222519
     3  H    0.213700
 Sum of Mulliken charges =   0.00000

 Dipole moment (field-independent basis, Debye):
    X=             -0.0095    Y=             -1.9499    Z=              0.0000  Tot=              1.9500
 Quadrupole moment (field-independent basis, Debye-Ang):
   XX=             -4.3439   YY=             -6.3288   ZZ=             -7.5733
   XY=             -0.0504   XZ=              0.0000   YZ=              0.0000

 1\1\GINC-NODE14\SP\RB2PLYPD3-FC\def2QZVP\H2O1\BOITTIER\26-Aug-2020\0\\
 #p B2PLYPD3/Def2QZVP\\h2o\\0,1\O,0,-5.326605,-0.762805,0.923362\H,0,-4
 .368927,-0.727172,0.887079\H,0,-5.609308,0.116092,0.744938\\Version=ES
 64L-G09RevD.01\State=1-A'\HF=-76.3351036\MP2=-76.424794\RMSD=4.343e-09
 \PG=CS [SG(H2O1)]\\@

 EVERYTHING'S GOT A MORAL, IF ONLY YOU CAN FIND IT.

 Normal termination of Gaussian 09 at Wed Aug 26 09:30:36 2020.
