 Gaussian 09, Revision D.01,
 Gaussian 09:  ES64L-G09RevD.01 24-Apr-2013

 --------------------
 #p B2PLYPD3/Def2QZVP
 --------------------

 ---
 h2o
 ---
 Symbolic Z-matrix:
 Charge =  0 Multiplicity = 1

                         Standard orientation:
 ---------------------------------------------------------------------
 Center     Atomic      Atomic             Coordinates (Angstroms)
 Number     Number       Type             X           Y           Z
 ---------------------------------------------------------------------
      1          8           0        0.000000    0.117810    0.000000
      2          1           0        0.746564   -0.485873    0.000000
      3          1           0       -0.746564   -0.456610    0.000000
 ---------------------------------------------------------------------

 SCF Done:  E(RB2PLYPD3) =  -76.3350029824     A.U. after   10 cycles
 E2(B2PLYPD3) =    -0.8977936381D-01 E(B2PLYPD3) =    -0.76424782346219D+02

 The electronic state is 1-A'.
 Alpha  occ. eigenvalues --  -19.73054  -1.16141  -0.61406  -0.47792  -0.40061
 Alpha virt. eigenvalues --    0.04593   0.10303   0.27481   0.30389   0.31013
 Alpha virt. eigenvalues --    0.36446   0.44209   0.50117   0.56532   0.61899
 Alpha virt. eigenvalues --    0.65461   0.81400   0.94160   0.95756   1.04144

 Mulliken charges:
               1
     1  O   -0.434232
     2  H    0.221327
     3  H    0.212904
 Sum of Mulliken charges =   0.00000

 Dipole moment (field-independent basis, Debye):
    X=             -0.0095    Y=             -1.9740    Z=              0.0000  Tot=              1.9740
 Quadrupole moment (field-independent basis, Debye-Ang):
   XX=             -4.4047   YY=             -6.2859   ZZ=             -7.5737
   XY=             -0.0470   XZ=              0.0000   YZ=              0.0000

 1\1\GINC-NODE25\SP\RB2PLYPD3-FC\def2QZVP\H2O1\BOITTIER\26-Aug-2020\0\\
 #p B2PLYPD3/Def2QZVP\\h2o\\0,1\O,0,-5.326605,-0.764313,0.923278\H,0,-4
 .368927,-0.701498,0.896855\H,0,-5.609308,0.114546,0.736188\\Version=ES
 64L-G09RevD.01\State=1-A'\HF=-76.335003\MP2=-76.4247823\RMSD=4.442e-09
 \PG=CS [SG(H2O1)]\\@

 ALL OUR THINKING ABOUT NATURE MUST NECESSARILY MOVE IN CIRCLES OR SPIRALS;

 Normal termination of Gaussian 09 at Wed Aug 26 09:54:12 2020.
