 Gaussian 09, Revision D.01,
 Gaussian 09:  ES64L-G09RevD.01 24-Apr-2013

 --------------------
 #p B2PLYPD3/Def2QZVP
 --------------------

 ---
 h2o
 ---
 Symbolic Z-matrix:
 Charge =  0 Multiplicity = 1

                         Standard orientation:
 ---------------------------------------------------------------------
 Center     Atomic      Atomic             Coordinates (Angstroms)
 Number     Number       Type             X           Y           Z
 ---------------------------------------------------------------------
      1          8           0        0.000000    0.115519    0.000000
      2          1           0        0.761785   -0.465543    0.000000
      3          1           0       -0.761785   -0.458610    0.000000
 ---------------------------------------------------------------------

 SCF Done:  E(RB2PLYPD3) =  -76.3352176922     A.U. after   10 cycles
 E2(B2PLYPD3) =    -0.8987634582D-01 E(B2PLYPD3) =    -0.76425094038057D+02

 The electronic state is 1-A'.
 Alpha  occ. eigenvalues --  -19.73046  -1.15734  -0.61588  -0.47308  -0.39965
 Alpha virt. eigenvalues --    0.04586   0.10216   0.27480   0.30408   0.31140
 Alpha virt. eigenvalues --    0.35857   0.44046   0.50474   0.56142   0.62507
 Alpha virt. eigenvalues --    0.65543   0.81164   0.93818   0.95899   1.04277

 Mulliken charges:
               1
     1  O   -0.443158
     2  H    0.222533
     3  H    0.220625
 Sum of Mulliken charges =   0.00000

 Dipole moment (field-independent basis, Debye):
    X=             -0.0021    Y=             -1.9435    Z=              0.0000  Tot=              1.9435
 Quadrupole moment (field-independent basis, Debye-Ang):
   XX=             -4.3000   YY=             -6.3541   ZZ=             -7.5892
   XY=             -0.0115   XZ=              0.0000   YZ=              0.0000

 1\1\GINC-NODE15\SP\RB2PLYPD3-FC\def2QZVP\H2O1\BOITTIER\26-Aug-2020\0\\
 #p B2PLYPD3/Def2QZVP\\h2o\\0,1\O,0,-5.326605,-0.763153,0.921218\H,0,-4
 .368927,-0.739024,0.906388\H,0,-5.609308,0.133517,0.759967\\Version=ES
 64L-G09RevD.01\State=1-A'\HF=-76.3352177\MP2=-76.425094\RMSD=4.006e-09
 \PG=CS [SG(H2O1)]\\@

 IT IS NOT EASY TO DESCRIBE

 Normal termination of Gaussian 09 at Wed Aug 26 09:40:47 2020.
