 Gaussian 09, Revision D.01,
 Gaussian 09:  ES64L-G09RevD.01 24-Apr-2013

 --------------------
 #p B2PLYPD3/Def2QZVP
 --------------------

 ---
 h2o
 ---
 Symbolic Z-matrix:
 Charge =  0 Multiplicity = 1

                         Standard orientation:
 ---------------------------------------------------------------------
 Center     Atomic      Atomic             Coordinates (Angstroms)
 Number     Number       Type             X           Y           Z
 ---------------------------------------------------------------------
      1          8           0        0.000000    0.110701    0.000000
      2          1           0        0.779473   -0.447474    0.000000
      3          1           0       -0.779473   -0.438133    0.000000
 ---------------------------------------------------------------------

 SCF Done:  E(RB2PLYPD3) =  -76.3348717399     A.U. after   10 cycles
 E2(B2PLYPD3) =    -0.8978838832D-01 E(B2PLYPD3) =    -0.76424660128169D+02

 The electronic state is 1-A'.
 Alpha  occ. eigenvalues --  -19.72894  -1.15483  -0.62229  -0.46634  -0.39876
 Alpha virt. eigenvalues --    0.04645   0.10153   0.27425   0.30419   0.31502
 Alpha virt. eigenvalues --    0.35225   0.44027   0.51234   0.55611   0.63604
 Alpha virt. eigenvalues --    0.65476   0.80853   0.93543   0.96037   1.05106

 Mulliken charges:
               1
     1  O   -0.451302
     2  H    0.226905
     3  H    0.224397
 Sum of Mulliken charges =   0.00000

 Dipole moment (field-independent basis, Debye):
    X=             -0.0025    Y=             -1.8862    Z=              0.0000  Tot=              1.8862
 Quadrupole moment (field-independent basis, Debye-Ang):
   XX=             -4.1476   YY=             -6.4583   ZZ=             -7.5964
   XY=             -0.0164   XZ=              0.0000   YZ=              0.0000

 1\1\GINC-NODE29\SP\RB2PLYPD3-FC\def2QZVP\H2O1\BOITTIER\26-Aug-2020\0\\
 #p B2PLYPD3/Def2QZVP\\h2o\\0,1\O,0,-5.326605,-0.759968,0.920131\H,0,-4
 .368927,-0.79737,0.895812\H,0,-5.609308,0.140896,0.788527\\Version=ES6
 4L-G09RevD.01\State=1-A'\HF=-76.3348717\MP2=-76.4246601\RMSD=3.775e-09
 \PG=CS [SG(H2O1)]\\@

 HE WHO LAUGHS LAST PROBABLY DIDN'T GET THE JOKE.

 Normal termination of Gaussian 09 at Wed Aug 26 09:23:36 2020.
