 Gaussian 09, Revision D.01,
 Gaussian 09:  ES64L-G09RevD.01 24-Apr-2013

 --------------------
 #p B2PLYPD3/Def2QZVP
 --------------------

 ---
 h2o
 ---
 Symbolic Z-matrix:
 Charge =  0 Multiplicity = 1

                         Standard orientation:
 ---------------------------------------------------------------------
 Center     Atomic      Atomic             Coordinates (Angstroms)
 Number     Number       Type             X           Y           Z
 ---------------------------------------------------------------------
      1          8           0        0.000000    0.120931    0.000000
      2          1           0        0.732129   -0.506503    0.000000
      3          1           0       -0.732129   -0.460944    0.000000
 ---------------------------------------------------------------------

 SCF Done:  E(RB2PLYPD3) =  -76.3342665779     A.U. after   10 cycles
 E2(B2PLYPD3) =    -0.8982010146D-01 E(B2PLYPD3) =    -0.76424086679337D+02

 The electronic state is 1-A'.
 Alpha  occ. eigenvalues --  -19.73129  -1.16410  -0.60974  -0.48295  -0.40134
 Alpha virt. eigenvalues --    0.04545   0.10363   0.27510   0.30377   0.30792
 Alpha virt. eigenvalues --    0.36893   0.44279   0.49732   0.56929   0.61188
 Alpha virt. eigenvalues --    0.65464   0.81499   0.94463   0.95706   1.03749

 Mulliken charges:
               1
     1  O   -0.427683
     2  H    0.220575
     3  H    0.207108
 Sum of Mulliken charges =   0.00000

 Dipole moment (field-independent basis, Debye):
    X=             -0.0160    Y=             -2.0113    Z=              0.0000  Tot=              2.0113
 Quadrupole moment (field-independent basis, Debye-Ang):
   XX=             -4.5161   YY=             -6.2095   ZZ=             -7.5661
   XY=             -0.0702   XZ=              0.0000   YZ=              0.0000

 1\1\GINC-NODE18\SP\RB2PLYPD3-FC\def2QZVP\H2O1\BOITTIER\26-Aug-2020\0\\
 #p B2PLYPD3/Def2QZVP\\h2o\\0,1\O,0,-5.326605,-0.766146,0.924638\H,0,-4
 .368927,-0.657636,0.896996\H,0,-5.609308,0.100008,0.713812\\Version=ES
 64L-G09RevD.01\State=1-A'\HF=-76.3342666\MP2=-76.4240867\RMSD=4.968e-0
 9\PG=CS [SG(H2O1)]\\@

 "A LITTLE BIT GOES A LONG WAY"

 Normal termination of Gaussian 09 at Wed Aug 26 08:32:32 2020.
