 Gaussian 09, Revision D.01,
 Gaussian 09:  ES64L-G09RevD.01 24-Apr-2013

 --------------------
 #p B2PLYPD3/Def2QZVP
 --------------------

 ---
 h2o
 ---
 Symbolic Z-matrix:
 Charge =  0 Multiplicity = 1

                         Standard orientation:
 ---------------------------------------------------------------------
 Center     Atomic      Atomic             Coordinates (Angstroms)
 Number     Number       Type             X           Y           Z
 ---------------------------------------------------------------------
      1          8           0        0.000000    0.119672    0.000000
      2          1           0        0.773878   -0.446195    0.000000
      3          1           0       -0.773878   -0.511185    0.000000
 ---------------------------------------------------------------------

 SCF Done:  E(RB2PLYPD3) =  -76.3330733169     A.U. after   10 cycles
 E2(B2PLYPD3) =    -0.9065180293D-01 E(B2PLYPD3) =    -0.76423725119823D+02

 The electronic state is 1-A'.
 Alpha  occ. eigenvalues --  -19.73435  -1.14795  -0.60383  -0.47196  -0.39804
 Alpha virt. eigenvalues --    0.04290   0.10018   0.27632   0.30459   0.30471
 Alpha virt. eigenvalues --    0.35102   0.43474   0.50070   0.55996   0.62024
 Alpha virt. eigenvalues --    0.66103   0.80633   0.93085   0.96337   1.02290

 Mulliken charges:
               1
     1  O   -0.456832
     2  H    0.220527
     3  H    0.236305
 Sum of Mulliken charges =   0.00000

 Dipole moment (field-independent basis, Debye):
    X=              0.0202    Y=             -1.9749    Z=              0.0000  Tot=              1.9751
 Quadrupole moment (field-independent basis, Debye-Ang):
   XX=             -4.2977   YY=             -6.3317   ZZ=             -7.6380
   XY=              0.1078   XZ=              0.0000   YZ=              0.0000

 1\1\GINC-NODE31\SP\RB2PLYPD3-FC\def2QZVP\H2O1\BOITTIER\26-Aug-2020\0\\
 #p B2PLYPD3/Def2QZVP\\h2o\\0,1\O,0,-5.326605,-0.7664,0.918816\H,0,-4.3
 68927,-0.731339,0.945594\H,0,-5.609308,0.17779,0.759278\\Version=ES64L
 -G09RevD.01\State=1-A'\HF=-76.3330733\MP2=-76.4237251\RMSD=4.624e-09\P
 G=CS [SG(H2O1)]\\@

 NOT WHAT WE DID SHALL BE THE TEST

 Normal termination of Gaussian 09 at Wed Aug 26 08:30:08 2020.
