 Gaussian 09, Revision D.01,
 Gaussian 09:  ES64L-G09RevD.01 24-Apr-2013

 --------------------
 #p B2PLYPD3/Def2QZVP
 --------------------

 ---
 h2o
 ---
 Symbolic Z-matrix:
 Charge =  0 Multiplicity = 1

                         Standard orientation:
 ---------------------------------------------------------------------
 Center     Atomic      Atomic             Coordinates (Angstroms)
 Number     Number       Type             X           Y           Z
 ---------------------------------------------------------------------
      1          8           0        0.000000    0.119194    0.000000
      2          1           0        0.756799   -0.470498    0.000000
      3          1           0       -0.756799   -0.483057    0.000000
 ---------------------------------------------------------------------

 SCF Done:  E(RB2PLYPD3) =  -76.3348515886     A.U. after   10 cycles
 E2(B2PLYPD3) =    -0.9017882237D-01 E(B2PLYPD3) =    -0.76425030410977D+02

 The electronic state is 1-A'.
 Alpha  occ. eigenvalues --  -19.73249  -1.15541  -0.60865  -0.47609  -0.39954
 Alpha virt. eigenvalues --    0.04464   0.10184   0.27563   0.30419   0.30790
 Alpha virt. eigenvalues --    0.35881   0.43851   0.50020   0.56368   0.61826
 Alpha virt. eigenvalues --    0.65770   0.81103   0.93815   0.96007   1.03300

 Mulliken charges:
               1
     1  O   -0.444280
     2  H    0.220463
     3  H    0.223817
 Sum of Mulliken charges =   0.00000

 Dipole moment (field-independent basis, Debye):
    X=              0.0041    Y=             -1.9811    Z=              0.0000  Tot=              1.9811
 Quadrupole moment (field-independent basis, Debye-Ang):
   XX=             -4.3748   YY=             -6.2963   ZZ=             -7.6019
   XY=              0.0203   XZ=              0.0000   YZ=              0.0000

 1\1\GINC-NODE35\SP\RB2PLYPD3-FC\def2QZVP\H2O1\BOITTIER\26-Aug-2020\0\\
 #p B2PLYPD3/Def2QZVP\\h2o\\0,1\O,0,-5.326605,-0.765333,0.923017\H,0,-4
 .368927,-0.71034,0.905383\H,0,-5.609308,0.139715,0.732178\\Version=ES6
 4L-G09RevD.01\State=1-A'\HF=-76.3348516\MP2=-76.4250304\RMSD=4.154e-09
 \PG=CS [SG(H2O1)]\\@

 NEVER TEACH A PIG TO SING.

 Normal termination of Gaussian 09 at Wed Aug 26 11:09:00 2020.
