 Gaussian 09, Revision D.01,
 Gaussian 09:  ES64L-G09RevD.01 24-Apr-2013

 --------------------
 #p B2PLYPD3/Def2QZVP
 --------------------

 ---
 h2o
 ---
 Symbolic Z-matrix:
 Charge =  0 Multiplicity = 1

                         Standard orientation:
 ---------------------------------------------------------------------
 Center     Atomic      Atomic             Coordinates (Angstroms)
 Number     Number       Type             X           Y           Z
 ---------------------------------------------------------------------
      1          8           0        0.000000    0.117658    0.000000
      2          1           0        0.781569   -0.436310    0.000000
      3          1           0       -0.781569   -0.504952    0.000000
 ---------------------------------------------------------------------

 SCF Done:  E(RB2PLYPD3) =  -76.3329599708     A.U. after   10 cycles
 E2(B2PLYPD3) =    -0.9060814507D-01 E(B2PLYPD3) =    -0.76423568115878D+02

 The electronic state is 1-A'.
 Alpha  occ. eigenvalues --  -19.73371  -1.14693  -0.60644  -0.46914  -0.39765
 Alpha virt. eigenvalues --    0.04312   0.09994   0.27602   0.30465   0.30606
 Alpha virt. eigenvalues --    0.34872   0.43466   0.50365   0.55772   0.62467
 Alpha virt. eigenvalues --    0.66071   0.80505   0.92935   0.96371   1.02527

 Mulliken charges:
               1
     1  O   -0.460297
     2  H    0.221888
     3  H    0.238409
 Sum of Mulliken charges =   0.00000

 Dipole moment (field-independent basis, Debye):
    X=              0.0203    Y=             -1.9515    Z=              0.0000  Tot=              1.9516
 Quadrupole moment (field-independent basis, Debye-Ang):
   XX=             -4.2316   YY=             -6.3761   ZZ=             -7.6411
   XY=              0.1165   XZ=              0.0000   YZ=              0.0000

 1\1\GINC-NODE08\SP\RB2PLYPD3-FC\def2QZVP\H2O1\BOITTIER\26-Aug-2020\0\\
 #p B2PLYPD3/Def2QZVP\\h2o\\0,1\O,0,-5.326605,-0.765085,0.918399\H,0,-4
 .368927,-0.756503,0.940987\H,0,-5.609308,0.181908,0.770831\\Version=ES
 64L-G09RevD.01\State=1-A'\HF=-76.33296\MP2=-76.4235681\RMSD=4.658e-09\
 PG=CS [SG(H2O1)]\\@

 THE PROGRESS OF RIVERS TO THE SEA IS NOT AS RAPID

 Normal termination of Gaussian 09 at Wed Aug 26 08:30:16 2020.
