 Gaussian 09, Revision D.01,
 Gaussian 09:  ES64L-G09RevD.01 24-Apr-2013

 --------------------
 #p B2PLYPD3/Def2QZVP
 --------------------

 ---
 h2o
 ---
 Symbolic Z-matrix:
 Charge =  0 Multiplicity = 1

                         Standard orientation:
 ---------------------------------------------------------------------
 Center     Atomic      Atomic             Coordinates (Angstroms)
 Number     Number       Type             X           Y           Z
 ---------------------------------------------------------------------
      1          8           0        0.000000    0.115023    0.000000
      2          1           0        0.761934   -0.467495    0.000000
      3          1           0       -0.761934   -0.452689    0.000000
 ---------------------------------------------------------------------

 SCF Done:  E(RB2PLYPD3) =  -76.3352131298     A.U. after   10 cycles
 E2(B2PLYPD3) =    -0.8982511011D-01 E(B2PLYPD3) =    -0.76425038239931D+02

 The electronic state is 1-A'.
 Alpha  occ. eigenvalues --  -19.73013  -1.15783  -0.61697  -0.47279  -0.39970
 Alpha virt. eigenvalues --    0.04605   0.10225   0.27467   0.30406   0.31187
 Alpha virt. eigenvalues --    0.35876   0.44085   0.50535   0.56121   0.62593
 Alpha virt. eigenvalues --    0.65502   0.81182   0.93830   0.95879   1.04419

 Mulliken charges:
               1
     1  O   -0.442553
     2  H    0.223326
     3  H    0.219226
 Sum of Mulliken charges =   0.00000

 Dipole moment (field-independent basis, Debye):
    X=             -0.0044    Y=             -1.9386    Z=              0.0000  Tot=              1.9386
 Quadrupole moment (field-independent basis, Debye-Ang):
   XX=             -4.2925   YY=             -6.3603   ZZ=             -7.5865
   XY=             -0.0247   XZ=              0.0000   YZ=              0.0000

 1\1\GINC-NODE04\SP\RB2PLYPD3-FC\def2QZVP\H2O1\BOITTIER\26-Aug-2020\0\\
 #p B2PLYPD3/Def2QZVP\\h2o\\0,1\O,0,-5.326605,-0.763615,0.914979\H,0,-4
 .368927,-0.735149,0.958719\H,0,-5.609308,0.137039,0.806619\\Version=ES
 64L-G09RevD.01\State=1-A'\HF=-76.3352131\MP2=-76.4250382\RMSD=4.040e-0
 9\PG=CS [SG(H2O1)]\\@

 Where a calculator on the ENIAC is equipped with 18,000

 Normal termination of Gaussian 09 at Wed Aug 26 12:42:44 2020.
