 Gaussian 09, Revision D.01,
 Gaussian 09:  ES64L-G09RevD.01 24-Apr-2013

 --------------------
 #p B2PLYPD3/Def2QZVP
 --------------------

 ---
 h2o
 ---
 Symbolic Z-matrix:
 Charge =  0 Multiplicity = 1

                         Standard orientation:
 ---------------------------------------------------------------------
 Center     Atomic      Atomic             Coordinates (Angstroms)
 Number     Number       Type             X           Y           Z
 ---------------------------------------------------------------------
      1          8           0        0.000000    0.118012    0.000000
      2          1           0        0.773522   -0.447275    0.000000
      3          1           0       -0.773522   -0.496817    0.000000
 ---------------------------------------------------------------------

 SCF Done:  E(RB2PLYPD3) =  -76.3338655443     A.U. after   10 cycles
 E2(B2PLYPD3) =    -0.9044682503D-01 E(B2PLYPD3) =    -0.76424312369374D+02

 The electronic state is 1-A'.
 Alpha  occ. eigenvalues --  -19.73323  -1.14979  -0.60755  -0.47134  -0.39829
 Alpha virt. eigenvalues --    0.04375   0.10059   0.27588   0.30449   0.30706
 Alpha virt. eigenvalues --    0.35195   0.43598   0.50262   0.55965   0.62280
 Alpha virt. eigenvalues --    0.65962   0.80728   0.93251   0.96243   1.02851

 Mulliken charges:
               1
     1  O   -0.455012
     2  H    0.221326
     3  H    0.233686
 Sum of Mulliken charges =   0.00000

 Dipole moment (field-independent basis, Debye):
    X=              0.0150    Y=             -1.9599    Z=              0.0000  Tot=              1.9599
 Quadrupole moment (field-independent basis, Debye-Ang):
   XX=             -4.2765   YY=             -6.3526   ZZ=             -7.6273
   XY=              0.0829   XZ=              0.0000   YZ=              0.0000

 1\1\GINC-NODE13\SP\RB2PLYPD3-FC\def2QZVP\H2O1\BOITTIER\26-Aug-2020\0\\
 #p B2PLYPD3/Def2QZVP\\h2o\\0,1\O,0,-5.326605,-0.765175,0.91947\H,0,-4.
 368927,-0.74153,0.932889\H,0,-5.609308,0.168375,0.761628\\Version=ES64
 L-G09RevD.01\State=1-A'\HF=-76.3338655\MP2=-76.4243124\RMSD=4.358e-09\
 PG=CS [SG(H2O1)]\\@

 "TIGER, TIGER BURNING BRIGHT

 Normal termination of Gaussian 09 at Wed Aug 26 10:13:31 2020.
