 Gaussian 09, Revision D.01,
 Gaussian 09:  ES64L-G09RevD.01 24-Apr-2013

 --------------------
 #p B2PLYPD3/Def2QZVP
 --------------------

 ---
 h2o
 ---
 Symbolic Z-matrix:
 Charge =  0 Multiplicity = 1

                         Standard orientation:
 ---------------------------------------------------------------------
 Center     Atomic      Atomic             Coordinates (Angstroms)
 Number     Number       Type             X           Y           Z
 ---------------------------------------------------------------------
      1          8           0        0.000000    0.113654    0.000000
      2          1           0        0.778802   -0.443916    0.000000
      3          1           0       -0.778802   -0.465313    0.000000
 ---------------------------------------------------------------------

 SCF Done:  E(RB2PLYPD3) =  -76.3346676824     A.U. after   10 cycles
 E2(B2PLYPD3) =    -0.9008567717D-01 E(B2PLYPD3) =    -0.76424753359523D+02

 The electronic state is 1-A'.
 Alpha  occ. eigenvalues --  -19.73084  -1.15208  -0.61590  -0.46802  -0.39842
 Alpha virt. eigenvalues --    0.04527   0.10104   0.27495   0.30436   0.31185
 Alpha virt. eigenvalues --    0.35144   0.43809   0.50840   0.55726   0.63081
 Alpha virt. eigenvalues --    0.65701   0.80769   0.93389   0.96136   1.04113

 Mulliken charges:
               1
     1  O   -0.454345
     2  H    0.224405
     3  H    0.229940
 Sum of Mulliken charges =   0.00000

 Dipole moment (field-independent basis, Debye):
    X=              0.0059    Y=             -1.9154    Z=              0.0000  Tot=              1.9154
 Quadrupole moment (field-independent basis, Debye-Ang):
   XX=             -4.1907   YY=             -6.4209   ZZ=             -7.6119
   XY=              0.0369   XZ=              0.0000   YZ=              0.0000

 1\1\GINC-NODE28\SP\RB2PLYPD3-FC\def2QZVP\H2O1\BOITTIER\26-Aug-2020\0\\
 #p B2PLYPD3/Def2QZVP\\h2o\\0,1\O,0,-5.326605,-0.762386,0.9179\H,0,-4.3
 68927,-0.775063,0.928331\H,0,-5.609308,0.157285,0.791333\\Version=ES64
 L-G09RevD.01\State=1-A'\HF=-76.3346677\MP2=-76.4247534\RMSD=3.885e-09\
 PG=CS [SG(H2O1)]\\@

 REALITY IS FOR PEOPLE WHO CAN'T FACE SCIENCE FICTION.

 Normal termination of Gaussian 09 at Wed Aug 26 11:56:35 2020.
