 Gaussian 09, Revision D.01,
 Gaussian 09:  ES64L-G09RevD.01 24-Apr-2013

 --------------------
 #p B2PLYPD3/Def2QZVP
 --------------------

 ---
 h2o
 ---
 Symbolic Z-matrix:
 Charge =  0 Multiplicity = 1

                         Standard orientation:
 ---------------------------------------------------------------------
 Center     Atomic      Atomic             Coordinates (Angstroms)
 Number     Number       Type             X           Y           Z
 ---------------------------------------------------------------------
      1          8           0        0.000000    0.119452    0.000000
      2          1           0        0.752638   -0.476450    0.000000
      3          1           0       -0.752638   -0.479167    0.000000
 ---------------------------------------------------------------------

 SCF Done:  E(RB2PLYPD3) =  -76.3349441219     A.U. after   10 cycles
 E2(B2PLYPD3) =    -0.9011099611D-01 E(B2PLYPD3) =    -0.76425055118035D+02

 The electronic state is 1-A'.
 Alpha  occ. eigenvalues --  -19.73227  -1.15688  -0.60896  -0.47725  -0.39986
 Alpha virt. eigenvalues --    0.04484   0.10215   0.27554   0.30412   0.30804
 Alpha virt. eigenvalues --    0.36057   0.43921   0.49969   0.56465   0.61721
 Alpha virt. eigenvalues --    0.65718   0.81185   0.93944   0.95949   1.03405

 Mulliken charges:
               1
     1  O   -0.441513
     2  H    0.220387
     3  H    0.221126
 Sum of Mulliken charges =   0.00000

 Dipole moment (field-independent basis, Debye):
    X=              0.0009    Y=             -1.9859    Z=              0.0000  Tot=              1.9859
 Quadrupole moment (field-independent basis, Debye-Ang):
   XX=             -4.3985   YY=             -6.2824   ZZ=             -7.5955
   XY=              0.0044   XZ=              0.0000   YZ=              0.0000

 1\1\GINC-NODE05\SP\RB2PLYPD3-FC\def2QZVP\H2O1\BOITTIER\26-Aug-2020\0\\
 #p B2PLYPD3/Def2QZVP\\h2o\\0,1\O,0,-5.326605,-0.765644,0.922368\H,0,-4
 .368927,-0.699951,0.912358\H,0,-5.609308,0.134303,0.735332\\Version=ES
 64L-G09RevD.01\State=1-A'\HF=-76.3349441\MP2=-76.4250551\RMSD=4.198e-0
 9\PG=CS [SG(H2O1)]\\@

 NEVER LISTEN TO CRITICISM

 Normal termination of Gaussian 09 at Wed Aug 26 12:55:20 2020.
