 Gaussian 09, Revision D.01,
 Gaussian 09:  ES64L-G09RevD.01 24-Apr-2013

 --------------------
 #p B2PLYPD3/Def2QZVP
 --------------------

 ---
 h2o
 ---
 Symbolic Z-matrix:
 Charge =  0 Multiplicity = 1

                         Standard orientation:
 ---------------------------------------------------------------------
 Center     Atomic      Atomic             Coordinates (Angstroms)
 Number     Number       Type             X           Y           Z
 ---------------------------------------------------------------------
      1          8           0        0.000000    0.121747    0.000000
      2          1           0        0.764156   -0.467232    0.000000
      3          1           0       -0.764156   -0.506744    0.000000
 ---------------------------------------------------------------------

 SCF Done:  E(RB2PLYPD3) =  -76.3335595903     A.U. after   10 cycles
 E2(B2PLYPD3) =    -0.9065939791D-01 E(B2PLYPD3) =    -0.76424218988211D+02

 The electronic state is 1-A'.
 Alpha  occ. eigenvalues --  -19.73489  -1.14958  -0.60137  -0.47541  -0.39857
 Alpha virt. eigenvalues --    0.04289   0.10058   0.27661   0.30403   0.30449
 Alpha virt. eigenvalues --    0.35386   0.43496   0.49779   0.56281   0.61534
 Alpha virt. eigenvalues --    0.66119   0.80790   0.93405   0.96273   1.02175

 Mulliken charges:
               1
     1  O   -0.452548
     2  H    0.221396
     3  H    0.231152
 Sum of Mulliken charges =   0.00000

 Dipole moment (field-independent basis, Debye):
    X=              0.0130    Y=             -2.0002    Z=              0.0000  Tot=              2.0002
 Quadrupole moment (field-independent basis, Debye-Ang):
   XX=             -4.3747   YY=             -6.2826   ZZ=             -7.6317
   XY=              0.0639   XZ=              0.0000   YZ=              0.0000

 1\1\GINC-NODE14\SP\RB2PLYPD3-FC\def2QZVP\H2O1\BOITTIER\26-Aug-2020\0\\
 #p B2PLYPD3/Def2QZVP\\h2o\\0,1\O,0,-5.326605,-0.768271,0.912757\H,0,-4
 .368927,-0.696246,1.00493\H,0,-5.609308,0.17263,0.795629\\Version=ES64
 L-G09RevD.01\State=1-A'\HF=-76.3335596\MP2=-76.424219\RMSD=4.320e-09\P
 G=CS [SG(H2O1)]\\@

 TO DETECT ERRORS, THE PROGRAMMER MUST HAVE A CONNIVING MIND,

 Normal termination of Gaussian 09 at Wed Aug 26 09:11:38 2020.
