 Gaussian 09, Revision D.01,
 Gaussian 09:  ES64L-G09RevD.01 24-Apr-2013

 --------------------
 #p B2PLYPD3/Def2QZVP
 --------------------

 ---
 h2o
 ---
 Symbolic Z-matrix:
 Charge =  0 Multiplicity = 1

                         Standard orientation:
 ---------------------------------------------------------------------
 Center     Atomic      Atomic             Coordinates (Angstroms)
 Number     Number       Type             X           Y           Z
 ---------------------------------------------------------------------
      1          8           0        0.000000    0.117909    0.000000
      2          1           0        0.762789   -0.462486    0.000000
      3          1           0       -0.762789   -0.480783    0.000000
 ---------------------------------------------------------------------

 SCF Done:  E(RB2PLYPD3) =  -76.3348404670     A.U. after   10 cycles
 E2(B2PLYPD3) =    -0.9017192194D-01 E(B2PLYPD3) =    -0.76425012388958D+02

 The electronic state is 1-A'.
 Alpha  occ. eigenvalues --  -19.73218  -1.15431  -0.61023  -0.47400  -0.39922
 Alpha virt. eigenvalues --    0.04475   0.10158   0.27549   0.30425   0.30870
 Alpha virt. eigenvalues --    0.35681   0.43826   0.50200   0.56199   0.62126
 Alpha virt. eigenvalues --    0.65766   0.81023   0.93673   0.96042   1.03442

 Mulliken charges:
               1
     1  O   -0.447109
     2  H    0.221139
     3  H    0.225971
 Sum of Mulliken charges =   0.00000

 Dipole moment (field-independent basis, Debye):
    X=              0.0057    Y=             -1.9655    Z=              0.0000  Tot=              1.9655
 Quadrupole moment (field-independent basis, Debye-Ang):
   XX=             -4.3279   YY=             -6.3275   ZZ=             -7.6056
   XY=              0.0301   XZ=              0.0000   YZ=              0.0000

 1\1\GINC-NODE30\SP\RB2PLYPD3-FC\def2QZVP\H2O1\BOITTIER\26-Aug-2020\0\\
 #p B2PLYPD3/Def2QZVP\\h2o\\0,1\O,0,-5.326605,-0.764673,0.921931\H,0,-4
 .368927,-0.727035,0.910071\H,0,-5.609308,0.145846,0.744978\\Version=ES
 64L-G09RevD.01\State=1-A'\HF=-76.3348405\MP2=-76.4250124\RMSD=4.083e-0
 9\PG=CS [SG(H2O1)]\\@

 IT IS A PROFOUNDLY ERRONEOUS TRUISM ... THAT WE SHOULD CULTIVATE

 Normal termination of Gaussian 09 at Wed Aug 26 09:30:06 2020.
