 Gaussian 09, Revision D.01,
 Gaussian 09:  ES64L-G09RevD.01 24-Apr-2013

 --------------------
 #p B2PLYPD3/Def2QZVP
 --------------------

 ---
 h2o
 ---
 Symbolic Z-matrix:
 Charge =  0 Multiplicity = 1

                         Standard orientation:
 ---------------------------------------------------------------------
 Center     Atomic      Atomic             Coordinates (Angstroms)
 Number     Number       Type             X           Y           Z
 ---------------------------------------------------------------------
      1          8           0        0.000000    0.113080    0.000000
      2          1           0        0.756493   -0.474833    0.000000
      3          1           0       -0.756493   -0.429809    0.000000
 ---------------------------------------------------------------------

 SCF Done:  E(RB2PLYPD3) =  -76.3348452064     A.U. after   10 cycles
 E2(B2PLYPD3) =    -0.8948641664D-01 E(B2PLYPD3) =    -0.76424331623048D+02

 The electronic state is 1-A'.
 Alpha  occ. eigenvalues --  -19.72825  -1.16240  -0.62275  -0.47303  -0.40046
 Alpha virt. eigenvalues --    0.04717   0.10306   0.27391   0.30381   0.31393
 Alpha virt. eigenvalues --    0.36230   0.44394   0.50735   0.56152   0.62849
 Alpha virt. eigenvalues --    0.65232   0.81399   0.94011   0.95699   1.05116

 Mulliken charges:
               1
     1  O   -0.434767
     2  H    0.223982
     3  H    0.210785
 Sum of Mulliken charges =   0.00000

 Dipole moment (field-independent basis, Debye):
    X=             -0.0132    Y=             -1.9229    Z=              0.0000  Tot=              1.9230
 Quadrupole moment (field-independent basis, Debye-Ang):
   XX=             -4.2925   YY=             -6.3678   ZZ=             -7.5643
   XY=             -0.0753   XZ=              0.0000   YZ=              0.0000

 1\1\GINC-NODE25\SP\RB2PLYPD3-FC\def2QZVP\H2O1\BOITTIER\26-Aug-2020\0\\
 #p B2PLYPD3/Def2QZVP\\h2o\\0,1\O,0,-5.326605,-0.762095,0.916943\H,0,-4
 .368927,-0.739827,0.933713\H,0,-5.609308,0.117384,0.800297\\Version=ES
 64L-G09RevD.01\State=1-A'\HF=-76.3348452\MP2=-76.4243316\RMSD=4.549e-0
 9\PG=CS [SG(H2O1)]\\@

 IF AT FIRST YOU DON'T SUCCEED, TRY, TRY AGAIN.

 Normal termination of Gaussian 09 at Wed Aug 26 08:30:15 2020.
