 Gaussian 09, Revision D.01,
 Gaussian 09:  ES64L-G09RevD.01 24-Apr-2013

 --------------------
 #p B2PLYPD3/Def2QZVP
 --------------------

 ---
 h2o
 ---
 Symbolic Z-matrix:
 Charge =  0 Multiplicity = 1

                         Standard orientation:
 ---------------------------------------------------------------------
 Center     Atomic      Atomic             Coordinates (Angstroms)
 Number     Number       Type             X           Y           Z
 ---------------------------------------------------------------------
      1          8           0        0.000000    0.114370    0.000000
      2          1           0        0.730655   -0.509698    0.000000
      3          1           0       -0.730655   -0.405261    0.000000
 ---------------------------------------------------------------------

 SCF Done:  E(RB2PLYPD3) =  -76.3317066146     A.U. after   10 cycles
 E2(B2PLYPD3) =    -0.8904497694D-01 E(B2PLYPD3) =    -0.76420751591535D+02

 The electronic state is 1-A'.
 Alpha  occ. eigenvalues --  -19.72639  -1.17296  -0.62572  -0.47963  -0.40251
 Alpha virt. eigenvalues --    0.04797   0.10495   0.27293   0.30331   0.31309
 Alpha virt. eigenvalues --    0.37340   0.44999   0.50423   0.56664   0.62271
 Alpha virt. eigenvalues --    0.64852   0.81858   0.94331   0.95431   1.05212

 Mulliken charges:
               1
     1  O   -0.412470
     2  H    0.223487
     3  H    0.188983
 Sum of Mulliken charges =   0.00000

 Dipole moment (field-independent basis, Debye):
    X=             -0.0333    Y=             -1.9493    Z=              0.0000  Tot=              1.9496
 Quadrupole moment (field-independent basis, Debye-Ang):
   XX=             -4.4318   YY=             -6.2776   ZZ=             -7.5221
   XY=             -0.1666   XZ=              0.0000   YZ=              0.0000

 1\1\GINC-NODE04\SP\RB2PLYPD3-FC\def2QZVP\H2O1\BOITTIER\26-Aug-2020\0\\
 #p B2PLYPD3/Def2QZVP\\h2o\\0,1\O,0,-5.326605,-0.761795,0.923688\H,0,-4
 .368927,-0.697988,0.877869\H,0,-5.609308,0.070751,0.748134\\Version=ES
 64L-G09RevD.01\State=1-A'\HF=-76.3317066\MP2=-76.4207516\RMSD=6.215e-0
 9\PG=CS [SG(H2O1)]\\@

 ALMOST ALL THE CHEMICAL PROCESSES WHICH OCCUR IN NATURE,

 Normal termination of Gaussian 09 at Wed Aug 26 11:37:10 2020.
