 Gaussian 09, Revision D.01,
 Gaussian 09:  ES64L-G09RevD.01 24-Apr-2013

 --------------------
 #p B2PLYPD3/Def2QZVP
 --------------------

 ---
 h2o
 ---
 Symbolic Z-matrix:
 Charge =  0 Multiplicity = 1

                         Standard orientation:
 ---------------------------------------------------------------------
 Center     Atomic      Atomic             Coordinates (Angstroms)
 Number     Number       Type             X           Y           Z
 ---------------------------------------------------------------------
      1          8           0        0.000000    0.120112    0.000000
      2          1           0        0.751210   -0.487572    0.000000
      3          1           0       -0.751210   -0.473321    0.000000
 ---------------------------------------------------------------------

 SCF Done:  E(RB2PLYPD3) =  -76.3348202584     A.U. after   10 cycles
 E2(B2PLYPD3) =    -0.9015609163D-01 E(B2PLYPD3) =    -0.76424976350017D+02

 The electronic state is 1-A'.
 Alpha  occ. eigenvalues --  -19.73259  -1.15675  -0.60776  -0.47790  -0.39988
 Alpha virt. eigenvalues --    0.04464   0.10213   0.27567   0.30413   0.30742
 Alpha virt. eigenvalues --    0.36080   0.43899   0.49892   0.56515   0.61595
 Alpha virt. eigenvalues --    0.65749   0.81180   0.93958   0.95965   1.03248

 Mulliken charges:
               1
     1  O   -0.441319
     2  H    0.222590
     3  H    0.218728
 Sum of Mulliken charges =   0.00000

 Dipole moment (field-independent basis, Debye):
    X=             -0.0047    Y=             -1.9929    Z=              0.0000  Tot=              1.9929
 Quadrupole moment (field-independent basis, Debye-Ang):
   XX=             -4.4145   YY=             -6.2704   ZZ=             -7.5969
   XY=             -0.0228   XZ=              0.0000   YZ=              0.0000

 1\1\GINC-NODE21\SP\RB2PLYPD3-FC\def2QZVP\H2O1\BOITTIER\26-Aug-2020\0\\
 #p B2PLYPD3/Def2QZVP\\h2o\\0,1\O,0,-5.326605,-0.762845,0.932975\H,0,-4
 .368927,-0.723123,0.811029\H,0,-5.609308,0.112686,0.668394\\Version=ES
 64L-G09RevD.01\State=1-A'\HF=-76.3348203\MP2=-76.4249764\RMSD=4.268e-0
 9\PG=CS [SG(H2O1)]\\@

 NOTHING MAKES A PERSON MORE PRODUCTIVE THAN THE LAST MINUTE.

 Normal termination of Gaussian 09 at Wed Aug 26 09:22:02 2020.
