 Gaussian 09, Revision D.01,
 Gaussian 09:  ES64L-G09RevD.01 24-Apr-2013

 --------------------
 #p B2PLYPD3/Def2QZVP
 --------------------

 ---
 h2o
 ---
 Symbolic Z-matrix:
 Charge =  0 Multiplicity = 1

                         Standard orientation:
 ---------------------------------------------------------------------
 Center     Atomic      Atomic             Coordinates (Angstroms)
 Number     Number       Type             X           Y           Z
 ---------------------------------------------------------------------
      1          8           0        0.000000    0.117794    0.000000
      2          1           0        0.753061   -0.476739    0.000000
      3          1           0       -0.753061   -0.465614    0.000000
 ---------------------------------------------------------------------

 SCF Done:  E(RB2PLYPD3) =  -76.3351414540     A.U. after   10 cycles
 E2(B2PLYPD3) =    -0.8992782888D-01 E(B2PLYPD3) =    -0.76425069282912D+02

 The electronic state is 1-A'.
 Alpha  occ. eigenvalues --  -19.73117  -1.15858  -0.61267  -0.47634  -0.40006
 Alpha virt. eigenvalues --    0.04552   0.10247   0.27508   0.30403   0.30974
 Alpha virt. eigenvalues --    0.36142   0.44054   0.50154   0.56401   0.61997
 Alpha virt. eigenvalues --    0.65580   0.81262   0.93989   0.95863   1.03911

 Mulliken charges:
               1
     1  O   -0.439467
     2  H    0.221281
     3  H    0.218186
 Sum of Mulliken charges =   0.00000

 Dipole moment (field-independent basis, Debye):
    X=             -0.0035    Y=             -1.9702    Z=              0.0000  Tot=              1.9702
 Quadrupole moment (field-independent basis, Debye-Ang):
   XX=             -4.3734   YY=             -6.3036   ZZ=             -7.5860
   XY=             -0.0180   XZ=              0.0000   YZ=              0.0000

 1\1\GINC-NODE08\SP\RB2PLYPD3-FC\def2QZVP\H2O1\BOITTIER\26-Aug-2020\0\\
 #p B2PLYPD3/Def2QZVP\\h2o\\0,1\O,0,-5.326605,-0.764232,0.923596\H,0,-4
 .368927,-0.713788,0.893965\H,0,-5.609308,0.125547,0.734287\\Version=ES
 64L-G09RevD.01\State=1-A'\HF=-76.3351415\MP2=-76.4250693\RMSD=4.188e-0
 9\PG=CS [SG(H2O1)]\\@

 CHILDREN YOU ARE VERY LITTLE,

 Normal termination of Gaussian 09 at Wed Aug 26 10:08:28 2020.
