 Gaussian 09, Revision D.01,
 Gaussian 09:  ES64L-G09RevD.01 24-Apr-2013

 --------------------
 #p B2PLYPD3/Def2QZVP
 --------------------

 ---
 h2o
 ---
 Symbolic Z-matrix:
 Charge =  0 Multiplicity = 1

                         Standard orientation:
 ---------------------------------------------------------------------
 Center     Atomic      Atomic             Coordinates (Angstroms)
 Number     Number       Type             X           Y           Z
 ---------------------------------------------------------------------
      1          8           0        0.000000    0.123660    0.000000
      2          1           0        0.729957   -0.510330    0.000000
      3          1           0       -0.729957   -0.478953    0.000000
 ---------------------------------------------------------------------

 SCF Done:  E(RB2PLYPD3) =  -76.3340784110     A.U. after   10 cycles
 E2(B2PLYPD3) =    -0.9010471249D-01 E(B2PLYPD3) =    -0.76424183123538D+02

 The electronic state is 1-A'.
 Alpha  occ. eigenvalues --  -19.73302  -1.16170  -0.60374  -0.48481  -0.40109
 Alpha virt. eigenvalues --    0.04442   0.10321   0.27587   0.30389   0.30548
 Alpha virt. eigenvalues --    0.36767   0.44069   0.49473   0.57072   0.60726
 Alpha virt. eigenvalues --    0.65664   0.81379   0.94514   0.95829   1.03065

 Mulliken charges:
               1
     1  O   -0.430652
     2  H    0.219809
     3  H    0.210843
 Sum of Mulliken charges =   0.00000

 Dipole moment (field-independent basis, Debye):
    X=             -0.0115    Y=             -2.0377    Z=              0.0000  Tot=              2.0377
 Quadrupole moment (field-independent basis, Debye-Ang):
   XX=             -4.5648   YY=             -6.1711   ZZ=             -7.5798
   XY=             -0.0475   XZ=              0.0000   YZ=              0.0000

 1\1\GINC-NODE16\SP\RB2PLYPD3-FC\def2QZVP\H2O1\BOITTIER\26-Aug-2020\0\\
 #p B2PLYPD3/Def2QZVP\\h2o\\0,1\O,0,-5.326605,-0.767532,0.926545\H,0,-4
 .368927,-0.639778,0.890308\H,0,-5.609308,0.104333,0.69009\\Version=ES6
 4L-G09RevD.01\State=1-A'\HF=-76.3340784\MP2=-76.4241831\RMSD=4.863e-09
 \PG=CS [SG(H2O1)]\\@

 TELEVISION IS CALLED A MEDIUM BECAUSE IT ISN'T

 Normal termination of Gaussian 09 at Wed Aug 26 08:33:08 2020.
