 Gaussian 09, Revision D.01,
 Gaussian 09:  ES64L-G09RevD.01 24-Apr-2013

 --------------------
 #p B2PLYPD3/Def2QZVP
 --------------------

 ---
 h2o
 ---
 Symbolic Z-matrix:
 Charge =  0 Multiplicity = 1

                         Standard orientation:
 ---------------------------------------------------------------------
 Center     Atomic      Atomic             Coordinates (Angstroms)
 Number     Number       Type             X           Y           Z
 ---------------------------------------------------------------------
      1          8           0        0.000000    0.115960    0.000000
      2          1           0        0.767328   -0.457579    0.000000
      3          1           0       -0.767328   -0.470098    0.000000
 ---------------------------------------------------------------------

 SCF Done:  E(RB2PLYPD3) =  -76.3349896101     A.U. after   10 cycles
 E2(B2PLYPD3) =    -0.9005907100D-01 E(B2PLYPD3) =    -0.76425048681067D+02

 The electronic state is 1-A'.
 Alpha  occ. eigenvalues --  -19.73129  -1.15450  -0.61357  -0.47195  -0.39910
 Alpha virt. eigenvalues --    0.04524   0.10159   0.27513   0.30424   0.31044
 Alpha virt. eigenvalues --    0.35573   0.43883   0.50461   0.56042   0.62517
 Alpha virt. eigenvalues --    0.65682   0.80999   0.93627   0.96023   1.03885

 Mulliken charges:
               1
     1  O   -0.448140
     2  H    0.222407
     3  H    0.225732
 Sum of Mulliken charges =   0.00000

 Dipole moment (field-independent basis, Debye):
    X=              0.0037    Y=             -1.9444    Z=              0.0000  Tot=              1.9444
 Quadrupole moment (field-independent basis, Debye-Ang):
   XX=             -4.2789   YY=             -6.3632   ZZ=             -7.6027
   XY=              0.0210   XZ=              0.0000   YZ=              0.0000

 1\1\GINC-NODE25\SP\RB2PLYPD3-FC\def2QZVP\H2O1\BOITTIER\26-Aug-2020\0\\
 #p B2PLYPD3/Def2QZVP\\h2o\\0,1\O,0,-5.326605,-0.763368,0.921704\H,0,-4
 .368927,-0.746724,0.903963\H,0,-5.609308,0.144658,0.754901\\Version=ES
 64L-G09RevD.01\State=1-A'\HF=-76.3349896\MP2=-76.4250487\RMSD=3.960e-0
 9\PG=CS [SG(H2O1)]\\@

            ARSENIC

 Normal termination of Gaussian 09 at Wed Aug 26 10:43:57 2020.
