 Gaussian 09, Revision D.01,
 Gaussian 09:  ES64L-G09RevD.01 24-Apr-2013

 --------------------
 #p B2PLYPD3/Def2QZVP
 --------------------

 ---
 h2o
 ---
 Symbolic Z-matrix:
 Charge =  0 Multiplicity = 1

                         Standard orientation:
 ---------------------------------------------------------------------
 Center     Atomic      Atomic             Coordinates (Angstroms)
 Number     Number       Type             X           Y           Z
 ---------------------------------------------------------------------
      1          8           0        0.000000    0.119277    0.000000
      2          1           0        0.768747   -0.453515    0.000000
      3          1           0       -0.768747   -0.500697    0.000000
 ---------------------------------------------------------------------

 SCF Done:  E(RB2PLYPD3) =  -76.3338929955     A.U. after   10 cycles
 E2(B2PLYPD3) =    -0.9047737367D-01 E(B2PLYPD3) =    -0.76424370369209D+02

 The electronic state is 1-A'.
 Alpha  occ. eigenvalues --  -19.73364  -1.15040  -0.60584  -0.47311  -0.39852
 Alpha virt. eigenvalues --    0.04359   0.10074   0.27606   0.30446   0.30618
 Alpha virt. eigenvalues --    0.35339   0.43600   0.50082   0.56105   0.62002
 Alpha virt. eigenvalues --    0.65985   0.80796   0.93348   0.96225   1.02682

 Mulliken charges:
               1
     1  O   -0.452947
     2  H    0.220557
     3  H    0.232390
 Sum of Mulliken charges =   0.00000

 Dipole moment (field-independent basis, Debye):
    X=              0.0148    Y=             -1.9746    Z=              0.0000  Tot=              1.9746
 Quadrupole moment (field-independent basis, Debye-Ang):
   XX=             -4.3176   YY=             -6.3248   ZZ=             -7.6256
   XY=              0.0778   XZ=              0.0000   YZ=              0.0000

 1\1\GINC-NODE12\SP\RB2PLYPD3-FC\def2QZVP\H2O1\BOITTIER\26-Aug-2020\0\\
 #p B2PLYPD3/Def2QZVP\\h2o\\0,1\O,0,-5.326605,-0.76601,0.919652\H,0,-4.
 368927,-0.725604,0.936467\H,0,-5.609308,0.165811,0.754945\\Version=ES6
 4L-G09RevD.01\State=1-A'\HF=-76.333893\MP2=-76.4243704\RMSD=4.367e-09\
 PG=CS [SG(H2O1)]\\@

 Boundary, n.  In political geography, an imaginary

 Normal termination of Gaussian 09 at Wed Aug 26 08:05:15 2020.
