 Gaussian 09, Revision D.01,
 Gaussian 09:  ES64L-G09RevD.01 24-Apr-2013

 --------------------
 #p B2PLYPD3/Def2QZVP
 --------------------

 ---
 h2o
 ---
 Symbolic Z-matrix:
 Charge =  0 Multiplicity = 1

                         Standard orientation:
 ---------------------------------------------------------------------
 Center     Atomic      Atomic             Coordinates (Angstroms)
 Number     Number       Type             X           Y           Z
 ---------------------------------------------------------------------
      1          8           0        0.000000    0.121695    0.000000
      2          1           0        0.731332   -0.508112    0.000000
      3          1           0       -0.731332   -0.465451    0.000000
 ---------------------------------------------------------------------

 SCF Done:  E(RB2PLYPD3) =  -76.3342258906     A.U. after   10 cycles
 E2(B2PLYPD3) =    -0.8989446959D-01 E(B2PLYPD3) =    -0.76424120360200D+02

 The electronic state is 1-A'.
 Alpha  occ. eigenvalues --  -19.73176  -1.16352  -0.60809  -0.48352  -0.40129
 Alpha virt. eigenvalues --    0.04518   0.10353   0.27530   0.30380   0.30725
 Alpha virt. eigenvalues --    0.36869   0.44226   0.49657   0.56973   0.61055
 Alpha virt. eigenvalues --    0.65516   0.81469   0.94480   0.95737   1.03564

 Mulliken charges:
               1
     1  O   -0.428379
     2  H    0.220442
     3  H    0.207936
 Sum of Mulliken charges =   0.00000

 Dipole moment (field-independent basis, Debye):
    X=             -0.0151    Y=             -2.0188    Z=              0.0000  Tot=              2.0189
 Quadrupole moment (field-independent basis, Debye-Ang):
   XX=             -4.5306   YY=             -6.1982   ZZ=             -7.5696
   XY=             -0.0654   XZ=              0.0000   YZ=              0.0000

 1\1\GINC-NODE25\SP\RB2PLYPD3-FC\def2QZVP\H2O1\BOITTIER\26-Aug-2020\0\\
 #p B2PLYPD3/Def2QZVP\\h2o\\0,1\O,0,-5.326605,-0.767042,0.922986\H,0,-4
 .368927,-0.647455,0.915572\H,0,-5.609308,0.104174,0.721371\\Version=ES
 64L-G09RevD.01\State=1-A'\HF=-76.3342259\MP2=-76.4241204\RMSD=4.946e-0
 9\PG=CS [SG(H2O1)]\\@

 SUCCESS IS NEVER CERTAIN,

 Normal termination of Gaussian 09 at Wed Aug 26 09:17:40 2020.
