 Gaussian 09, Revision D.01,
 Gaussian 09:  ES64L-G09RevD.01 24-Apr-2013

 --------------------
 #p B2PLYPD3/Def2QZVP
 --------------------

 ---
 h2o
 ---
 Symbolic Z-matrix:
 Charge =  0 Multiplicity = 1

                         Standard orientation:
 ---------------------------------------------------------------------
 Center     Atomic      Atomic             Coordinates (Angstroms)
 Number     Number       Type             X           Y           Z
 ---------------------------------------------------------------------
      1          8           0        0.000000    0.118903    0.000000
      2          1           0        0.811312   -0.396015    0.000000
      3          1           0       -0.811312   -0.555208    0.000000
 ---------------------------------------------------------------------

 SCF Done:  E(RB2PLYPD3) =  -76.3258060899     A.U. after   10 cycles
 E2(B2PLYPD3) =    -0.9154591979D-01 E(B2PLYPD3) =    -0.76417352009668D+02

 The electronic state is 1-A'.
 Alpha  occ. eigenvalues --  -19.73692  -1.13458  -0.59665  -0.46182  -0.39499
 Alpha virt. eigenvalues --    0.03862   0.09684   0.27657   0.29557   0.30535
 Alpha virt. eigenvalues --    0.33881   0.42868   0.50481   0.55080   0.62775
 Alpha virt. eigenvalues --    0.66646   0.79405   0.91187   0.96856   1.00798

 Mulliken charges:
               1
     1  O   -0.480090
     2  H    0.223908
     3  H    0.256182
 Sum of Mulliken charges =   0.00000

 Dipole moment (field-independent basis, Debye):
    X=              0.0442    Y=             -1.9425    Z=              0.0000  Tot=              1.9430
 Quadrupole moment (field-independent basis, Debye-Ang):
   XX=             -4.0973   YY=             -6.4215   ZZ=             -7.7082
   XY=              0.2803   XZ=              0.0000   YZ=              0.0000

 1\1\GINC-NODE05\SP\RB2PLYPD3-FC\def2QZVP\H2O1\BOITTIER\26-Aug-2020\0\\
 #p B2PLYPD3/Def2QZVP\\h2o\\0,1\O,0,-5.326605,-0.766331,0.913775\H,0,-4
 .368927,-0.798217,0.985904\H,0,-5.609308,0.243563,0.800436\\Version=ES
 64L-G09RevD.01\State=1-A'\HF=-76.3258061\MP2=-76.417352\RMSD=6.851e-09
 \PG=CS [SG(H2O1)]\\@

 THERE IS MUCH PLEASURE TO BE GAINED FROM USELESS KNOWLEDGE

 Normal termination of Gaussian 09 at Wed Aug 26 10:25:27 2020.
