 Gaussian 09, Revision D.01,
 Gaussian 09:  ES64L-G09RevD.01 24-Apr-2013

 --------------------
 #p B2PLYPD3/Def2QZVP
 --------------------

 ---
 h2o
 ---
 Symbolic Z-matrix:
 Charge =  0 Multiplicity = 1

                         Standard orientation:
 ---------------------------------------------------------------------
 Center     Atomic      Atomic             Coordinates (Angstroms)
 Number     Number       Type             X           Y           Z
 ---------------------------------------------------------------------
      1          8           0        0.000000    0.122491    0.000000
      2          1           0        0.794740   -0.413198    0.000000
      3          1           0       -0.794740   -0.566729    0.000000
 ---------------------------------------------------------------------

 SCF Done:  E(RB2PLYPD3) =  -76.3266794289     A.U. after   10 cycles
 E2(B2PLYPD3) =    -0.9154005899D-01 E(B2PLYPD3) =    -0.76418219487888D+02

 The electronic state is 1-A'.
 Alpha  occ. eigenvalues --  -19.73782  -1.13747  -0.59325  -0.46733  -0.39596
 Alpha virt. eigenvalues --    0.03867   0.09752   0.27733   0.29402   0.30514
 Alpha virt. eigenvalues --    0.34303   0.42967   0.49895   0.55515   0.61974
 Alpha virt. eigenvalues --    0.66622   0.79814   0.91477   0.96793   1.00635

 Mulliken charges:
               1
     1  O   -0.471340
     2  H    0.219657
     3  H    0.251683
 Sum of Mulliken charges =   0.00000

 Dipole moment (field-independent basis, Debye):
    X=              0.0473    Y=             -1.9859    Z=              0.0000  Tot=              1.9864
 Quadrupole moment (field-independent basis, Debye-Ang):
   XX=             -4.2321   YY=             -6.3356   ZZ=             -7.6963
   XY=              0.2592   XZ=              0.0000   YZ=              0.0000

 1\1\GINC-NODE39\SP\RB2PLYPD3-FC\def2QZVP\H2O1\BOITTIER\26-Aug-2020\0\\
 #p B2PLYPD3/Def2QZVP\\h2o\\0,1\O,0,-5.326605,-0.768255,0.919227\H,0,-4
 .368927,-0.753813,0.954144\H,0,-5.609308,0.229932,0.745047\\Version=ES
 64L-G09RevD.01\State=1-A'\HF=-76.3266794\MP2=-76.4182195\RMSD=6.393e-0
 9\PG=CS [SG(H2O1)]\\@

 A ROPE OVER THE TOP OF A FENCE HAS THE SAME LENGTH ON EACH SIDE.

 Normal termination of Gaussian 09 at Wed Aug 26 09:16:41 2020.
