 Gaussian 09, Revision D.01,
 Gaussian 09:  ES64L-G09RevD.01 24-Apr-2013

 --------------------
 #p B2PLYPD3/Def2QZVP
 --------------------

 ---
 h2o
 ---
 Symbolic Z-matrix:
 Charge =  0 Multiplicity = 1

                         Standard orientation:
 ---------------------------------------------------------------------
 Center     Atomic      Atomic             Coordinates (Angstroms)
 Number     Number       Type             X           Y           Z
 ---------------------------------------------------------------------
      1          8           0        0.000000    0.109501    0.000000
      2          1           0        0.801678   -0.420420    0.000000
      3          1           0       -0.801678   -0.455590    0.000000
 ---------------------------------------------------------------------

 SCF Done:  E(RB2PLYPD3) =  -76.3332883388     A.U. after   10 cycles
 E2(B2PLYPD3) =    -0.9022840633D-01 E(B2PLYPD3) =    -0.76423516745110D+02

 The electronic state is 1-A'.
 Alpha  occ. eigenvalues --  -19.73026  -1.14664  -0.61880  -0.46046  -0.39692
 Alpha virt. eigenvalues --    0.04490   0.09981   0.27465   0.30466   0.31417
 Alpha virt. eigenvalues --    0.34244   0.43606   0.51630   0.55119   0.64140
 Alpha virt. eigenvalues --    0.65835   0.80129   0.92959   0.96465   1.04285

 Mulliken charges:
               1
     1  O   -0.468361
     2  H    0.229906
     3  H    0.238455
 Sum of Mulliken charges =   0.00000

 Dipole moment (field-independent basis, Debye):
    X=              0.0084    Y=             -1.8608    Z=              0.0000  Tot=              1.8608
 Quadrupole moment (field-independent basis, Debye-Ang):
   XX=             -4.0189   YY=             -6.5302   ZZ=             -7.6351
   XY=              0.0640   XZ=              0.0000   YZ=              0.0000

 1\1\GINC-NODE14\SP\RB2PLYPD3-FC\def2QZVP\H2O1\BOITTIER\26-Aug-2020\0\\
 #p B2PLYPD3/Def2QZVP\\h2o\\0,1\O,0,-5.326605,-0.759811,0.91439\H,0,-4.
 368927,-0.835046,0.940799\H,0,-5.609308,0.176064,0.83544\\Version=ES64
 L-G09RevD.01\State=1-A'\HF=-76.3332883\MP2=-76.4235167\RMSD=3.944e-09\
 PG=CS [SG(H2O1)]\\@

 A MATHEMATICIAN IS A MACHINE FOR TURNING COFFEE INTO THEOREMS.

 Normal termination of Gaussian 09 at Wed Aug 26 08:46:59 2020.
