 Gaussian 09, Revision D.01,
 Gaussian 09:  ES64L-G09RevD.01 24-Apr-2013

 --------------------
 #p B2PLYPD3/Def2QZVP
 --------------------

 ---
 h2o
 ---
 Symbolic Z-matrix:
 Charge =  0 Multiplicity = 1

                         Standard orientation:
 ---------------------------------------------------------------------
 Center     Atomic      Atomic             Coordinates (Angstroms)
 Number     Number       Type             X           Y           Z
 ---------------------------------------------------------------------
      1          8           0        0.000000    0.120961    0.000000
      2          1           0        0.751472   -0.483669    0.000000
      3          1           0       -0.751472   -0.484018    0.000000
 ---------------------------------------------------------------------

 SCF Done:  E(RB2PLYPD3) =  -76.3346756210     A.U. after   10 cycles
 E2(B2PLYPD3) =    -0.9026322084D-01 E(B2PLYPD3) =    -0.76424938841794D+02

 The electronic state is 1-A'.
 Alpha  occ. eigenvalues --  -19.73320  -1.15566  -0.60577  -0.47824  -0.39973
 Alpha virt. eigenvalues --    0.04426   0.10192   0.27594   0.30418   0.30653
 Alpha virt. eigenvalues --    0.36009   0.43819   0.49803   0.56538   0.61462
 Alpha virt. eigenvalues --    0.65829   0.81129   0.93926   0.96017   1.02983

 Mulliken charges:
               1
     1  O   -0.442704
     2  H    0.221305
     3  H    0.221399
 Sum of Mulliken charges =   0.00000

 Dipole moment (field-independent basis, Debye):
    X=              0.0001    Y=             -2.0006    Z=              0.0000  Tot=              2.0006
 Quadrupole moment (field-independent basis, Debye-Ang):
   XX=             -4.4251   YY=             -6.2608   ZZ=             -7.6027
   XY=              0.0006   XZ=              0.0000   YZ=              0.0000

 1\1\GINC-NODE05\SP\RB2PLYPD3-FC\def2QZVP\H2O1\BOITTIER\26-Aug-2020\0\\
 #p B2PLYPD3/Def2QZVP\\h2o\\0,1\O,0,-5.326605,-0.767672,0.914535\H,0,-4
 .368927,-0.678766,0.986891\H,0,-5.609308,0.145562,0.784952\\Version=ES
 64L-G09RevD.01\State=1-A'\HF=-76.3346756\MP2=-76.4249388\RMSD=4.242e-0
 9\PG=CS [SG(H2O1)]\\@

 LAW OF COMPENSATION:

 Normal termination of Gaussian 09 at Wed Aug 26 09:33:43 2020.
