 Gaussian 09, Revision D.01,
 Gaussian 09:  ES64L-G09RevD.01 24-Apr-2013

 --------------------
 #p B2PLYPD3/Def2QZVP
 --------------------

 ---
 h2o
 ---
 Symbolic Z-matrix:
 Charge =  0 Multiplicity = 1

                         Standard orientation:
 ---------------------------------------------------------------------
 Center     Atomic      Atomic             Coordinates (Angstroms)
 Number     Number       Type             X           Y           Z
 ---------------------------------------------------------------------
      1          8           0        0.000000    0.118383    0.000000
      2          1           0        0.771721   -0.449433    0.000000
      3          1           0       -0.771721   -0.497633    0.000000
 ---------------------------------------------------------------------

 SCF Done:  E(RB2PLYPD3) =  -76.3339159932     A.U. after   10 cycles
 E2(B2PLYPD3) =    -0.9044563328D-01 E(B2PLYPD3) =    -0.76424361626462D+02

 The electronic state is 1-A'.
 Alpha  occ. eigenvalues --  -19.73331  -1.15013  -0.60714  -0.47196  -0.39839
 Alpha virt. eigenvalues --    0.04374   0.10067   0.27592   0.30447   0.30686
 Alpha virt. eigenvalues --    0.35255   0.43607   0.50205   0.56015   0.62192
 Alpha virt. eigenvalues --    0.65962   0.80760   0.93294   0.96230   1.02820

 Mulliken charges:
               1
     1  O   -0.454110
     2  H    0.221021
     3  H    0.233089
 Sum of Mulliken charges =   0.00000

 Dipole moment (field-independent basis, Debye):
    X=              0.0148    Y=             -1.9644    Z=              0.0000  Tot=              1.9645
 Quadrupole moment (field-independent basis, Debye-Ang):
   XX=             -4.2906   YY=             -6.3434   ZZ=             -7.6260
   XY=              0.0803   XZ=              0.0000   YZ=              0.0000

 1\1\GINC-NODE40\SP\RB2PLYPD3-FC\def2QZVP\H2O1\BOITTIER\26-Aug-2020\0\\
 #p B2PLYPD3/Def2QZVP\\h2o\\0,1\O,0,-5.326605,-0.765293,0.920335\H,0,-4
 .368927,-0.737346,0.926707\H,0,-5.609308,0.166072,0.754001\\Version=ES
 64L-G09RevD.01\State=1-A'\HF=-76.333916\MP2=-76.4243616\RMSD=4.353e-09
 \PG=CS [SG(H2O1)]\\@

 THE WISE MAN HAS THE POWER TO REASON AWAY

 Normal termination of Gaussian 09 at Wed Aug 26 10:43:19 2020.
