 Gaussian 09, Revision D.01,
 Gaussian 09:  ES64L-G09RevD.01 24-Apr-2013

 --------------------
 #p B2PLYPD3/Def2QZVP
 --------------------

 ---
 h2o
 ---
 Symbolic Z-matrix:
 Charge =  0 Multiplicity = 1

                         Standard orientation:
 ---------------------------------------------------------------------
 Center     Atomic      Atomic             Coordinates (Angstroms)
 Number     Number       Type             X           Y           Z
 ---------------------------------------------------------------------
      1          8           0        0.000000    0.123056    0.000000
      2          1           0        0.720919   -0.524217    0.000000
      3          1           0       -0.720919   -0.460227    0.000000
 ---------------------------------------------------------------------

 SCF Done:  E(RB2PLYPD3) =  -76.3332221317     A.U. after   10 cycles
 E2(B2PLYPD3) =    -0.8983438743D-01 E(B2PLYPD3) =    -0.76423056519115D+02

 The electronic state is 1-A'.
 Alpha  occ. eigenvalues --  -19.73167  -1.16653  -0.60683  -0.48666  -0.40193
 Alpha virt. eigenvalues --    0.04508   0.10414   0.27523   0.30367   0.30636
 Alpha virt. eigenvalues --    0.37209   0.44370   0.49510   0.57215   0.60707
 Alpha virt. eigenvalues --    0.65429   0.81545   0.94677   0.95669   1.03548

 Mulliken charges:
               1
     1  O   -0.422236
     2  H    0.220808
     3  H    0.201428
 Sum of Mulliken charges =   0.00000

 Dipole moment (field-independent basis, Debye):
    X=             -0.0236    Y=             -2.0369    Z=              0.0000  Tot=              2.0370
 Quadrupole moment (field-independent basis, Debye-Ang):
   XX=             -4.5977   YY=             -6.1530   ZZ=             -7.5593
   XY=             -0.0957   XZ=              0.0000   YZ=              0.0000

 1\1\GINC-NODE34\SP\RB2PLYPD3-FC\def2QZVP\H2O1\BOITTIER\26-Aug-2020\0\\
 #p B2PLYPD3/Def2QZVP\\h2o\\0,1\O,0,-5.326605,-0.767619,0.924542\H,0,-4
 .368927,-0.621967,0.906541\H,0,-5.609308,0.087913,0.705256\\Version=ES
 64L-G09RevD.01\State=1-A'\HF=-76.3332221\MP2=-76.4230565\RMSD=5.485e-0
 9\PG=CS [SG(H2O1)]\\@

 Make no judgements where you have no compassion.

 Normal termination of Gaussian 09 at Wed Aug 26 08:53:38 2020.
