 Gaussian 09, Revision D.01,
 Gaussian 09:  ES64L-G09RevD.01 24-Apr-2013

 --------------------
 #p B2PLYPD3/Def2QZVP
 --------------------

 ---
 h2o
 ---
 Symbolic Z-matrix:
 Charge =  0 Multiplicity = 1

                         Standard orientation:
 ---------------------------------------------------------------------
 Center     Atomic      Atomic             Coordinates (Angstroms)
 Number     Number       Type             X           Y           Z
 ---------------------------------------------------------------------
      1          8           0        0.000000    0.113727    0.000000
      2          1           0        0.756817   -0.473701    0.000000
      3          1           0       -0.756817   -0.436113    0.000000
 ---------------------------------------------------------------------

 SCF Done:  E(RB2PLYPD3) =  -76.3350077000     A.U. after   10 cycles
 E2(B2PLYPD3) =    -0.8956295777D-01 E(B2PLYPD3) =    -0.76424570657731D+02

 The electronic state is 1-A'.
 Alpha  occ. eigenvalues --  -19.72873  -1.16152  -0.62117  -0.47331  -0.40034
 Alpha virt. eigenvalues --    0.04691   0.10292   0.27410   0.30386   0.31337
 Alpha virt. eigenvalues --    0.36184   0.44326   0.50657   0.56172   0.62741
 Alpha virt. eigenvalues --    0.65294   0.81365   0.93995   0.95730   1.04957

 Mulliken charges:
               1
     1  O   -0.436174
     2  H    0.223535
     3  H    0.212639
 Sum of Mulliken charges =   0.00000

 Dipole moment (field-independent basis, Debye):
    X=             -0.0111    Y=             -1.9290    Z=              0.0000  Tot=              1.9291
 Quadrupole moment (field-independent basis, Debye-Ang):
   XX=             -4.2996   YY=             -6.3615   ZZ=             -7.5687
   XY=             -0.0627   XZ=              0.0000   YZ=              0.0000

 1\1\GINC-NODE27\SP\RB2PLYPD3-FC\def2QZVP\H2O1\BOITTIER\26-Aug-2020\0\\
 #p B2PLYPD3/Def2QZVP\\h2o\\0,1\O,0,-5.326605,-0.762407,0.918086\H,0,-4
 .368927,-0.737419,0.926564\H,0,-5.609308,0.119972,0.789312\\Version=ES
 64L-G09RevD.01\State=1-A'\HF=-76.3350077\MP2=-76.4245707\RMSD=4.398e-0
 9\PG=CS [SG(H2O1)]\\@

 IF THE FACTS DO NOT CONFORM TO THE THEORY, THEY MUST BE DISPOSED OF.

 Normal termination of Gaussian 09 at Wed Aug 26 08:30:18 2020.
