 Gaussian 09, Revision D.01,
 Gaussian 09:  ES64L-G09RevD.01 24-Apr-2013

 --------------------
 #p B2PLYPD3/Def2QZVP
 --------------------

 ---
 h2o
 ---
 Symbolic Z-matrix:
 Charge =  0 Multiplicity = 1

                         Standard orientation:
 ---------------------------------------------------------------------
 Center     Atomic      Atomic             Coordinates (Angstroms)
 Number     Number       Type             X           Y           Z
 ---------------------------------------------------------------------
      1          8           0        0.000000    0.118493    0.000000
      2          1           0        0.745001   -0.487813    0.000000
      3          1           0       -0.745001   -0.460134    0.000000
 ---------------------------------------------------------------------

 SCF Done:  E(RB2PLYPD3) =  -76.3349642160     A.U. after   10 cycles
 E2(B2PLYPD3) =    -0.8982225515D-01 E(B2PLYPD3) =    -0.76424786471170D+02

 The electronic state is 1-A'.
 Alpha  occ. eigenvalues --  -19.73086  -1.16130  -0.61281  -0.47864  -0.40064
 Alpha virt. eigenvalues --    0.04575   0.10302   0.27494   0.30390   0.30958
 Alpha virt. eigenvalues --    0.36476   0.44185   0.50035   0.56588   0.61764
 Alpha virt. eigenvalues --    0.65492   0.81397   0.94188   0.95767   1.04002

 Mulliken charges:
               1
     1  O   -0.434074
     2  H    0.221011
     3  H    0.213063
 Sum of Mulliken charges =   0.00000

 Dipole moment (field-independent basis, Debye):
    X=             -0.0091    Y=             -1.9813    Z=              0.0000  Tot=              1.9814
 Quadrupole moment (field-independent basis, Debye-Ang):
   XX=             -4.4216   YY=             -6.2736   ZZ=             -7.5749
   XY=             -0.0442   XZ=              0.0000   YZ=              0.0000

 1\1\GINC-NODE05\SP\RB2PLYPD3-FC\def2QZVP\H2O1\BOITTIER\26-Aug-2020\0\\
 #p B2PLYPD3/Def2QZVP\\h2o\\0,1\O,0,-5.326605,-0.764866,0.922914\H,0,-4
 .368927,-0.693492,0.9031\H,0,-5.609308,0.115386,0.735641\\Version=ES64
 L-G09RevD.01\State=1-A'\HF=-76.3349642\MP2=-76.4247865\RMSD=4.460e-09\
 PG=CS [SG(H2O1)]\\@

  ON THE CHOICE OF THE CORRECT LANGUAGE -

 Normal termination of Gaussian 09 at Wed Aug 26 11:11:52 2020.
