 Gaussian 09, Revision D.01,
 Gaussian 09:  ES64L-G09RevD.01 24-Apr-2013

 --------------------
 #p B2PLYPD3/Def2QZVP
 --------------------

 ---
 h2o
 ---
 Symbolic Z-matrix:
 Charge =  0 Multiplicity = 1

                         Standard orientation:
 ---------------------------------------------------------------------
 Center     Atomic      Atomic             Coordinates (Angstroms)
 Number     Number       Type             X           Y           Z
 ---------------------------------------------------------------------
      1          8           0        0.000000    0.119328    0.000000
      2          1           0        0.744217   -0.489126    0.000000
      3          1           0       -0.744217   -0.465499    0.000000
 ---------------------------------------------------------------------

 SCF Done:  E(RB2PLYPD3) =  -76.3349275826     A.U. after   10 cycles
 E2(B2PLYPD3) =    -0.8990167784D-01 E(B2PLYPD3) =    -0.76424829260395D+02

 The electronic state is 1-A'.
 Alpha  occ. eigenvalues --  -19.73137  -1.16066  -0.61103  -0.47925  -0.40058
 Alpha virt. eigenvalues --    0.04545   0.10292   0.27516   0.30393   0.30882
 Alpha virt. eigenvalues --    0.36457   0.44128   0.49942   0.56634   0.61616
 Alpha virt. eigenvalues --    0.65552   0.81368   0.94193   0.95801   1.03783

 Mulliken charges:
               1
     1  O   -0.434787
     2  H    0.220755
     3  H    0.214032
 Sum of Mulliken charges =   0.00000

 Dipole moment (field-independent basis, Debye):
    X=             -0.0079    Y=             -1.9896    Z=              0.0000  Tot=              1.9896
 Quadrupole moment (field-independent basis, Debye-Ang):
   XX=             -4.4369   YY=             -6.2616   ZZ=             -7.5787
   XY=             -0.0375   XZ=              0.0000   YZ=              0.0000

 1\1\GINC-NODE29\SP\RB2PLYPD3-FC\def2QZVP\H2O1\BOITTIER\26-Aug-2020\0\\
 #p B2PLYPD3/Def2QZVP\\h2o\\0,1\O,0,-5.326605,-0.765853,0.920786\H,0,-4
 .368927,-0.682778,0.926007\H,0,-5.609308,0.120464,0.746421\\Version=ES
 64L-G09RevD.01\State=1-A'\HF=-76.3349276\MP2=-76.4248293\RMSD=4.443e-0
 9\PG=CS [SG(H2O1)]\\@

 A SOLDIER'S LIFE IS A LIFE OF HONOR, BUT A DOG WOULD NOT LEAD IT.

 Normal termination of Gaussian 09 at Wed Aug 26 11:48:03 2020.
