 Gaussian 09, Revision D.01,
 Gaussian 09:  ES64L-G09RevD.01 24-Apr-2013

 --------------------
 #p B2PLYPD3/Def2QZVP
 --------------------

 ---
 h2o
 ---
 Symbolic Z-matrix:
 Charge =  0 Multiplicity = 1

                         Standard orientation:
 ---------------------------------------------------------------------
 Center     Atomic      Atomic             Coordinates (Angstroms)
 Number     Number       Type             X           Y           Z
 ---------------------------------------------------------------------
      1          8           0        0.000000    0.118480    0.000000
      2          1           0        0.768603   -0.454968    0.000000
      3          1           0       -0.768603   -0.492871    0.000000
 ---------------------------------------------------------------------

 SCF Done:  E(RB2PLYPD3) =  -76.3342403009     A.U. after   10 cycles
 E2(B2PLYPD3) =    -0.9037960802D-01 E(B2PLYPD3) =    -0.76424619908926D+02

 The electronic state is 1-A'.
 Alpha  occ. eigenvalues --  -19.73310  -1.15129  -0.60764  -0.47281  -0.39865
 Alpha virt. eigenvalues --    0.04399   0.10094   0.27585   0.30441   0.30727
 Alpha virt. eigenvalues --    0.35386   0.43660   0.50172   0.56089   0.62125
 Alpha virt. eigenvalues --    0.65917   0.80842   0.93421   0.96177   1.02963

 Mulliken charges:
               1
     1  O   -0.452030
     2  H    0.221200
     3  H    0.230830
 Sum of Mulliken charges =   0.00000

 Dipole moment (field-independent basis, Debye):
    X=              0.0117    Y=             -1.9673    Z=              0.0000  Tot=              1.9673
 Quadrupole moment (field-independent basis, Debye-Ang):
   XX=             -4.3073   YY=             -6.3348   ZZ=             -7.6204
   XY=              0.0628   XZ=              0.0000   YZ=              0.0000

 1\1\GINC-NODE07\SP\RB2PLYPD3-FC\def2QZVP\H2O1\BOITTIER\26-Aug-2020\0\\
 #p B2PLYPD3/Def2QZVP\\h2o\\0,1\O,0,-5.326605,-0.765719,0.917777\H,0,-4
 .368927,-0.727821,0.949554\H,0,-5.609308,0.163374,0.771606\\Version=ES
 64L-G09RevD.01\State=1-A'\HF=-76.3342403\MP2=-76.4246199\RMSD=4.228e-0
 9\PG=CS [SG(H2O1)]\\@

 A MAN SHOULD NEVER BE ASHAMED TO OWN HE HAS BEEN IN THE WRONG

 Normal termination of Gaussian 09 at Wed Aug 26 12:37:49 2020.
