 Gaussian 09, Revision D.01,
 Gaussian 09:  ES64L-G09RevD.01 24-Apr-2013

 --------------------
 #p B2PLYPD3/Def2QZVP
 --------------------

 ---
 h2o
 ---
 Symbolic Z-matrix:
 Charge =  0 Multiplicity = 1

                         Standard orientation:
 ---------------------------------------------------------------------
 Center     Atomic      Atomic             Coordinates (Angstroms)
 Number     Number       Type             X           Y           Z
 ---------------------------------------------------------------------
      1          8           0        0.000000    0.119998    0.000000
      2          1           0        0.772826   -0.457411    0.000000
      3          1           0       -0.772826   -0.502571    0.000000
 ---------------------------------------------------------------------

 SCF Done:  E(RB2PLYPD3) =  -76.3334209395     A.U. after   10 cycles
 E2(B2PLYPD3) =    -0.9065974634D-01 E(B2PLYPD3) =    -0.76424080685806D+02

 The electronic state is 1-A'.
 Alpha  occ. eigenvalues --  -19.73450  -1.14795  -0.60335  -0.47247  -0.39809
 Alpha virt. eigenvalues --    0.04296   0.10020   0.27641   0.30458   0.30500
 Alpha virt. eigenvalues --    0.35110   0.43454   0.50022   0.56043   0.61943
 Alpha virt. eigenvalues --    0.66122   0.80656   0.93182   0.96317   1.02329

 Mulliken charges:
               1
     1  O   -0.456715
     2  H    0.222874
     3  H    0.233841
 Sum of Mulliken charges =   0.00000

 Dipole moment (field-independent basis, Debye):
    X=              0.0142    Y=             -1.9788    Z=              0.0000  Tot=              1.9789
 Quadrupole moment (field-independent basis, Debye-Ang):
   XX=             -4.3076   YY=             -6.3264   ZZ=             -7.6377
   XY=              0.0747   XZ=              0.0000   YZ=              0.0000

 1\1\GINC-NODE27\SP\RB2PLYPD3-FC\def2QZVP\H2O1\BOITTIER\26-Aug-2020\0\\
 #p B2PLYPD3/Def2QZVP\\h2o\\0,1\O,0,-5.326605,-0.767106,0.910283\H,0,-4
 .368927,-0.722383,1.017585\H,0,-5.609308,0.180123,0.822601\\Version=ES
 64L-G09RevD.01\State=1-A'\HF=-76.3334209\MP2=-76.4240807\RMSD=4.287e-0
 9\PG=CS [SG(H2O1)]\\@

 THE REASON MAN'S BEST FRIEND IS A DOG IS BECAUSE

 Normal termination of Gaussian 09 at Wed Aug 26 08:58:56 2020.
