 Gaussian 09, Revision D.01,
 Gaussian 09:  ES64L-G09RevD.01 24-Apr-2013

 --------------------
 #p B2PLYPD3/Def2QZVP
 --------------------

 ---
 h2o
 ---
 Symbolic Z-matrix:
 Charge =  0 Multiplicity = 1

                         Standard orientation:
 ---------------------------------------------------------------------
 Center     Atomic      Atomic             Coordinates (Angstroms)
 Number     Number       Type             X           Y           Z
 ---------------------------------------------------------------------
      1          8           0        0.000000    0.115314    0.000000
      2          1           0        0.764718   -0.462350    0.000000
      3          1           0       -0.764718   -0.460163    0.000000
 ---------------------------------------------------------------------

 SCF Done:  E(RB2PLYPD3) =  -76.3351720947     A.U. after   10 cycles
 E2(B2PLYPD3) =    -0.8992378471D-01 E(B2PLYPD3) =    -0.76425095879433D+02

 The electronic state is 1-A'.
 Alpha  occ. eigenvalues --  -19.73060  -1.15631  -0.61565  -0.47227  -0.39942
 Alpha virt. eigenvalues --    0.04572   0.10195   0.27486   0.30414   0.31138
 Alpha virt. eigenvalues --    0.35729   0.43995   0.50520   0.56075   0.62585
 Alpha virt. eigenvalues --    0.65579   0.81098   0.93741   0.95943   1.04221

 Mulliken charges:
               1
     1  O   -0.445237
     2  H    0.222916
     3  H    0.222321
 Sum of Mulliken charges =   0.00000

 Dipole moment (field-independent basis, Debye):
    X=             -0.0006    Y=             -1.9398    Z=              0.0000  Tot=              1.9398
 Quadrupole moment (field-independent basis, Debye-Ang):
   XX=             -4.2829   YY=             -6.3643   ZZ=             -7.5937
   XY=             -0.0037   XZ=              0.0000   YZ=              0.0000

 1\1\GINC-NODE29\SP\RB2PLYPD3-FC\def2QZVP\H2O1\BOITTIER\26-Aug-2020\0\\
 #p B2PLYPD3/Def2QZVP\\h2o\\0,1\O,0,-5.326605,-0.763657,0.916821\H,0,-4
 .368927,-0.73956,0.944411\H,0,-5.609308,0.142112,0.791803\\Version=ES6
 4L-G09RevD.01\State=1-A'\HF=-76.3351721\MP2=-76.4250959\RMSD=3.952e-09
 \PG=CS [SG(H2O1)]\\@

 IT MATTERS NOT HOW DEEP YOU PLOW,

 Normal termination of Gaussian 09 at Wed Aug 26 08:30:12 2020.
