 Gaussian 09, Revision D.01,
 Gaussian 09:  ES64L-G09RevD.01 24-Apr-2013

 --------------------
 #p B2PLYPD3/Def2QZVP
 --------------------

 ---
 h2o
 ---
 Symbolic Z-matrix:
 Charge =  0 Multiplicity = 1

                         Standard orientation:
 ---------------------------------------------------------------------
 Center     Atomic      Atomic             Coordinates (Angstroms)
 Number     Number       Type             X           Y           Z
 ---------------------------------------------------------------------
      1          8           0        0.000000    0.118686    0.000000
      2          1           0        0.751608   -0.478290    0.000000
      3          1           0       -0.751608   -0.471199    0.000000
 ---------------------------------------------------------------------

 SCF Done:  E(RB2PLYPD3) =  -76.3350690154     A.U. after   10 cycles
 E2(B2PLYPD3) =    -0.8999714382D-01 E(B2PLYPD3) =    -0.76425066159172D+02

 The electronic state is 1-A'.
 Alpha  occ. eigenvalues --  -19.73164  -1.15819  -0.61094  -0.47713  -0.40006
 Alpha virt. eigenvalues --    0.04524   0.10241   0.27528   0.30405   0.30894
 Alpha virt. eigenvalues --    0.36155   0.44010   0.50047   0.56461   0.61829
 Alpha virt. eigenvalues --    0.65632   0.81248   0.94003   0.95888   1.03691

 Mulliken charges:
               1
     1  O   -0.439639
     2  H    0.220800
     3  H    0.218839
 Sum of Mulliken charges =   0.00000

 Dipole moment (field-independent basis, Debye):
    X=             -0.0023    Y=             -1.9794    Z=              0.0000  Tot=              1.9794
 Quadrupole moment (field-independent basis, Debye-Ang):
   XX=             -4.3928   YY=             -6.2890   ZZ=             -7.5888
   XY=             -0.0114   XZ=              0.0000   YZ=              0.0000

 1\1\GINC-NODE18\SP\RB2PLYPD3-FC\def2QZVP\H2O1\BOITTIER\26-Aug-2020\0\\
 #p B2PLYPD3/Def2QZVP\\h2o\\0,1\O,0,-5.326605,-0.765338,0.921222\H,0,-4
 .368927,-0.700947,0.919547\H,0,-5.609308,0.130404,0.74628\\Version=ES6
 4L-G09RevD.01\State=1-A'\HF=-76.335069\MP2=-76.4250662\RMSD=4.211e-09\
 PG=CS [SG(H2O1)]\\@

 IN-LAWS ARE LIKE SEEDS. YOU DON'T NEED THEM

 Normal termination of Gaussian 09 at Wed Aug 26 08:49:17 2020.
