 Gaussian 09, Revision D.01,
 Gaussian 09:  ES64L-G09RevD.01 24-Apr-2013

 --------------------
 #p B2PLYPD3/Def2QZVP
 --------------------

 ---
 h2o
 ---
 Symbolic Z-matrix:
 Charge =  0 Multiplicity = 1

                         Standard orientation:
 ---------------------------------------------------------------------
 Center     Atomic      Atomic             Coordinates (Angstroms)
 Number     Number       Type             X           Y           Z
 ---------------------------------------------------------------------
      1          8           0        0.000000    0.125691    0.000000
      2          1           0        0.766760   -0.453990    0.000000
      3          1           0       -0.766760   -0.551538    0.000000
 ---------------------------------------------------------------------

 SCF Done:  E(RB2PLYPD3) =  -76.3303681732     A.U. after   10 cycles
 E2(B2PLYPD3) =    -0.9122287031D-01 E(B2PLYPD3) =    -0.76421591043540D+02

 The electronic state is 1-A'.
 Alpha  occ. eigenvalues --  -19.73767  -1.14455  -0.59232  -0.47608  -0.39783
 Alpha virt. eigenvalues --    0.04041   0.09932   0.27773   0.29723   0.30473
 Alpha virt. eigenvalues --    0.35067   0.43207   0.49378   0.56272   0.61012
 Alpha virt. eigenvalues --    0.66459   0.80484   0.92765   0.96570   1.00918

 Mulliken charges:
               1
     1  O   -0.457294
     2  H    0.217514
     3  H    0.239780
 Sum of Mulliken charges =   0.00000

 Dipole moment (field-independent basis, Debye):
    X=              0.0338    Y=             -2.0333    Z=              0.0000  Tot=              2.0336
 Quadrupole moment (field-independent basis, Debye-Ang):
   XX=             -4.4172   YY=             -6.2339   ZZ=             -7.6616
   XY=              0.1550   XZ=              0.0000   YZ=              0.0000

 1\1\GINC-NODE25\SP\RB2PLYPD3-FC\def2QZVP\H2O1\BOITTIER\26-Aug-2020\0\\
 #p B2PLYPD3/Def2QZVP\\h2o\\0,1\O,0,-5.326605,-0.768341,0.928681\H,0,-4
 .368927,-0.702409,0.879115\H,0,-5.609308,0.179911,0.668956\\Version=ES
 64L-G09RevD.01\State=1-A'\HF=-76.3303682\MP2=-76.421591\RMSD=5.195e-09
 \PG=CS [SG(H2O1)]\\@

 OF ALL THE WONDERS OF THE UNIVERSE, THE GREATEST IS MAN.

 Normal termination of Gaussian 09 at Wed Aug 26 08:36:02 2020.
