 Gaussian 09, Revision D.01,
 Gaussian 09:  ES64L-G09RevD.01 24-Apr-2013

 --------------------
 #p B2PLYPD3/Def2QZVP
 --------------------

 ---
 h2o
 ---
 Symbolic Z-matrix:
 Charge =  0 Multiplicity = 1

                         Standard orientation:
 ---------------------------------------------------------------------
 Center     Atomic      Atomic             Coordinates (Angstroms)
 Number     Number       Type             X           Y           Z
 ---------------------------------------------------------------------
      1          8           0        0.000000    0.114422    0.000000
      2          1           0        0.755610   -0.479722    0.000000
      3          1           0       -0.755610   -0.435655    0.000000
 ---------------------------------------------------------------------

 SCF Done:  E(RB2PLYPD3) =  -76.3349200482     A.U. after   10 cycles
 E2(B2PLYPD3) =    -0.8961179584D-01 E(B2PLYPD3) =    -0.76424531844055D+02

 The electronic state is 1-A'.
 Alpha  occ. eigenvalues --  -19.72908  -1.16130  -0.61985  -0.47394  -0.40034
 Alpha virt. eigenvalues --    0.04668   0.10290   0.27423   0.30387   0.31265
 Alpha virt. eigenvalues --    0.36209   0.44300   0.50566   0.56218   0.62607
 Alpha virt. eigenvalues --    0.65329   0.81359   0.93983   0.95749   1.04736

 Mulliken charges:
               1
     1  O   -0.436158
     2  H    0.224443
     3  H    0.211715
 Sum of Mulliken charges =   0.00000

 Dipole moment (field-independent basis, Debye):
    X=             -0.0132    Y=             -1.9364    Z=              0.0000  Tot=              1.9364
 Quadrupole moment (field-independent basis, Debye-Ang):
   XX=             -4.3149   YY=             -6.3496   ZZ=             -7.5706
   XY=             -0.0731   XZ=              0.0000   YZ=              0.0000

 1\1\GINC-NODE04\SP\RB2PLYPD3-FC\def2QZVP\H2O1\BOITTIER\26-Aug-2020\0\\
 #p B2PLYPD3/Def2QZVP\\h2o\\0,1\O,0,-5.326605,-0.760881,0.927127\H,0,-4
 .368927,-0.749048,0.84547\H,0,-5.609308,0.107189,0.726963\\Version=ES6
 4L-G09RevD.01\State=1-A'\HF=-76.33492\MP2=-76.4245318\RMSD=4.522e-09\P
 G=CS [SG(H2O1)]\\@

 BE LIKE A POSTAGE STAMP.  STICK TO ONE THING UNTIL

 Normal termination of Gaussian 09 at Wed Aug 26 08:45:39 2020.
