 Gaussian 09, Revision D.01,
 Gaussian 09:  ES64L-G09RevD.01 24-Apr-2013

 --------------------
 #p B2PLYPD3/Def2QZVP
 --------------------

 ---
 h2o
 ---
 Symbolic Z-matrix:
 Charge =  0 Multiplicity = 1

                         Standard orientation:
 ---------------------------------------------------------------------
 Center     Atomic      Atomic             Coordinates (Angstroms)
 Number     Number       Type             X           Y           Z
 ---------------------------------------------------------------------
      1          8           0        0.000000    0.114583    0.000000
      2          1           0        0.763205   -0.464485    0.000000
      3          1           0       -0.763205   -0.452180    0.000000
 ---------------------------------------------------------------------

 SCF Done:  E(RB2PLYPD3) =  -76.3352242185     A.U. after   10 cycles
 E2(B2PLYPD3) =    -0.8980682346D-01 E(B2PLYPD3) =    -0.76425031041931D+02

 The electronic state is 1-A'.
 Alpha  occ. eigenvalues --  -19.72996  -1.15776  -0.61767  -0.47226  -0.39966
 Alpha virt. eigenvalues --    0.04614   0.10222   0.27461   0.30406   0.31224
 Alpha virt. eigenvalues --    0.35837   0.44092   0.50598   0.56080   0.62687
 Alpha virt. eigenvalues --    0.65488   0.81169   0.93814   0.95881   1.04515

 Mulliken charges:
               1
     1  O   -0.442976
     2  H    0.223191
     3  H    0.219784
 Sum of Mulliken charges =   0.00000

 Dipole moment (field-independent basis, Debye):
    X=             -0.0036    Y=             -1.9337    Z=              0.0000  Tot=              1.9337
 Quadrupole moment (field-independent basis, Debye-Ang):
   XX=             -4.2803   YY=             -6.3690   ZZ=             -7.5864
   XY=             -0.0206   XZ=              0.0000   YZ=              0.0000

 1\1\GINC-NODE13\SP\RB2PLYPD3-FC\def2QZVP\H2O1\BOITTIER\26-Aug-2020\0\\
 #p B2PLYPD3/Def2QZVP\\h2o\\0,1\O,0,-5.326605,-0.763043,0.917773\H,0,-4
 .368927,-0.742519,0.933073\H,0,-5.609308,0.135256,0.788001\\Version=ES
 64L-G09RevD.01\State=1-A'\HF=-76.3352242\MP2=-76.425031\RMSD=4.003e-09
 \PG=CS [SG(H2O1)]\\@

 A true friend is someone who is there for

 Normal termination of Gaussian 09 at Wed Aug 26 10:00:12 2020.
