 Gaussian 09, Revision D.01,
 Gaussian 09:  ES64L-G09RevD.01 24-Apr-2013

 --------------------
 #p B2PLYPD3/Def2QZVP
 --------------------

 ---
 h2o
 ---
 Symbolic Z-matrix:
 Charge =  0 Multiplicity = 1

                         Standard orientation:
 ---------------------------------------------------------------------
 Center     Atomic      Atomic             Coordinates (Angstroms)
 Number     Number       Type             X           Y           Z
 ---------------------------------------------------------------------
      1          8           0        0.000000    0.118915    0.000000
      2          1           0        0.743590   -0.489749    0.000000
      3          1           0       -0.743590   -0.461572    0.000000
 ---------------------------------------------------------------------

 SCF Done:  E(RB2PLYPD3) =  -76.3349139540     A.U. after   10 cycles
 E2(B2PLYPD3) =    -0.8983905942D-01 E(B2PLYPD3) =    -0.76424753013394D+02

 The electronic state is 1-A'.
 Alpha  occ. eigenvalues --  -19.73102  -1.16142  -0.61212  -0.47919  -0.40070
 Alpha virt. eigenvalues --    0.04566   0.10306   0.27500   0.30389   0.30926
 Alpha virt. eigenvalues --    0.36514   0.44181   0.49983   0.56632   0.61675
 Alpha virt. eigenvalues --    0.65504   0.81403   0.94217   0.95768   1.03929

 Mulliken charges:
               1
     1  O   -0.433617
     2  H    0.220857
     3  H    0.212760
 Sum of Mulliken charges =   0.00000

 Dipole moment (field-independent basis, Debye):
    X=             -0.0093    Y=             -1.9861    Z=              0.0000  Tot=              1.9861
 Quadrupole moment (field-independent basis, Debye-Ang):
   XX=             -4.4341   YY=             -6.2648   ZZ=             -7.5749
   XY=             -0.0448   XZ=              0.0000   YZ=              0.0000

 1\1\GINC-NODE07\SP\RB2PLYPD3-FC\def2QZVP\H2O1\BOITTIER\26-Aug-2020\0\\
 #p B2PLYPD3/Def2QZVP\\h2o\\0,1\O,0,-5.326605,-0.765148,0.922953\H,0,-4
 .368927,-0.688273,0.904486\H,0,-5.609308,0.114682,0.733559\\Version=ES
 64L-G09RevD.01\State=1-A'\HF=-76.334914\MP2=-76.424753\RMSD=4.498e-09\
 PG=CS [SG(H2O1)]\\@

 The most important thing in communication is to hear what isn't being said.

 Normal termination of Gaussian 09 at Wed Aug 26 08:32:29 2020.
