 Gaussian 09, Revision D.01,
 Gaussian 09:  ES64L-G09RevD.01 24-Apr-2013

 --------------------
 #p B2PLYPD3/Def2QZVP
 --------------------

 ---
 h2o
 ---
 Symbolic Z-matrix:
 Charge =  0 Multiplicity = 1

                         Standard orientation:
 ---------------------------------------------------------------------
 Center     Atomic      Atomic             Coordinates (Angstroms)
 Number     Number       Type             X           Y           Z
 ---------------------------------------------------------------------
      1          8           0        0.000000    0.114192    0.000000
      2          1           0        0.790818   -0.426858    0.000000
      3          1           0       -0.790818   -0.486679    0.000000
 ---------------------------------------------------------------------

 SCF Done:  E(RB2PLYPD3) =  -76.3331774294     A.U. after   10 cycles
 E2(B2PLYPD3) =    -0.9045032265D-01 E(B2PLYPD3) =    -0.76423627752096D+02

 The electronic state is 1-A'.
 Alpha  occ. eigenvalues --  -19.73229  -1.14662  -0.61164  -0.46530  -0.39730
 Alpha virt. eigenvalues --    0.04385   0.09985   0.27542   0.30467   0.30932
 Alpha virt. eigenvalues --    0.34603   0.43516   0.50881   0.55481   0.63177
 Alpha virt. eigenvalues --    0.65965   0.80359   0.92900   0.96393   1.03181

 Mulliken charges:
               1
     1  O   -0.463977
     2  H    0.224769
     3  H    0.239208
 Sum of Mulliken charges =   0.00000

 Dipole moment (field-independent basis, Debye):
    X=              0.0162    Y=             -1.9130    Z=              0.0000  Tot=              1.9131
 Quadrupole moment (field-independent basis, Debye-Ang):
   XX=             -4.1375   YY=             -6.4435   ZZ=             -7.6393
   XY=              0.1047   XZ=              0.0000   YZ=              0.0000

 1\1\GINC-NODE12\SP\RB2PLYPD3-FC\def2QZVP\H2O1\BOITTIER\26-Aug-2020\0\\
 #p B2PLYPD3/Def2QZVP\\h2o\\0,1\O,0,-5.326605,-0.762704,0.918362\H,0,-4
 .368927,-0.792856,0.926851\H,0,-5.609308,0.180157,0.785953\\Version=ES
 64L-G09RevD.01\State=1-A'\HF=-76.3331774\MP2=-76.4236278\RMSD=4.468e-0
 9\PG=CS [SG(H2O1)]\\@

 REVOLUTIONS HAVE NEVER LIGHTENED THE BURDEN OF TYRANNY:

 Normal termination of Gaussian 09 at Wed Aug 26 08:54:05 2020.
