 Gaussian 09, Revision D.01,
 Gaussian 09:  ES64L-G09RevD.01 24-Apr-2013

 --------------------
 #p B2PLYPD3/Def2QZVP
 --------------------

 ---
 h2o
 ---
 Symbolic Z-matrix:
 Charge =  0 Multiplicity = 1

                         Standard orientation:
 ---------------------------------------------------------------------
 Center     Atomic      Atomic             Coordinates (Angstroms)
 Number     Number       Type             X           Y           Z
 ---------------------------------------------------------------------
      1          8           0        0.000000    0.116556    0.000000
      2          1           0        0.763281   -0.463181    0.000000
      3          1           0       -0.763281   -0.469267    0.000000
 ---------------------------------------------------------------------

 SCF Done:  E(RB2PLYPD3) =  -76.3350801112     A.U. after   10 cycles
 E2(B2PLYPD3) =    -0.9002866345D-01 E(B2PLYPD3) =    -0.76425108774662D+02

 The electronic state is 1-A'.
 Alpha  occ. eigenvalues --  -19.73131  -1.15557  -0.61317  -0.47323  -0.39937
 Alpha virt. eigenvalues --    0.04531   0.10182   0.27514   0.30418   0.31018
 Alpha virt. eigenvalues --    0.35732   0.43925   0.50361   0.56147   0.62356
 Alpha virt. eigenvalues --    0.65659   0.81077   0.93728   0.95979   1.03874

 Mulliken charges:
               1
     1  O   -0.445764
     2  H    0.222064
     3  H    0.223700
 Sum of Mulliken charges =   0.00000

 Dipole moment (field-independent basis, Debye):
    X=              0.0019    Y=             -1.9525    Z=              0.0000  Tot=              1.9525
 Quadrupole moment (field-independent basis, Debye-Ang):
   XX=             -4.3069   YY=             -6.3455   ZZ=             -7.5984
   XY=              0.0101   XZ=              0.0000   YZ=              0.0000

 1\1\GINC-NODE16\SP\RB2PLYPD3-FC\def2QZVP\H2O1\BOITTIER\26-Aug-2020\0\\
 #p B2PLYPD3/Def2QZVP\\h2o\\0,1\O,0,-5.326605,-0.76436,0.918123\H,0,-4.
 368927,-0.730669,0.938372\H,0,-5.609308,0.144476,0.777121\\Version=ES6
 4L-G09RevD.01\State=1-A'\HF=-76.3350801\MP2=-76.4251088\RMSD=3.994e-09
 \PG=CS [SG(H2O1)]\\@

 THE MOST INCOMPREHENSIBLE THING ABOUT THE WORLD

 Normal termination of Gaussian 09 at Wed Aug 26 11:28:45 2020.
