 Gaussian 09, Revision D.01,
 Gaussian 09:  ES64L-G09RevD.01 24-Apr-2013

 --------------------
 #p B2PLYPD3/Def2QZVP
 --------------------

 ---
 h2o
 ---
 Symbolic Z-matrix:
 Charge =  0 Multiplicity = 1

                         Standard orientation:
 ---------------------------------------------------------------------
 Center     Atomic      Atomic             Coordinates (Angstroms)
 Number     Number       Type             X           Y           Z
 ---------------------------------------------------------------------
      1          8           0        0.000000    0.115094    0.000000
      2          1           0        0.756859   -0.475013    0.000000
      3          1           0       -0.756859   -0.445735    0.000000
 ---------------------------------------------------------------------

 SCF Done:  E(RB2PLYPD3) =  -76.3351361310     A.U. after   10 cycles
 E2(B2PLYPD3) =    -0.8971329162D-01 E(B2PLYPD3) =    -0.76424849422641D+02

 The electronic state is 1-A'.
 Alpha  occ. eigenvalues --  -19.72968  -1.15998  -0.61801  -0.47403  -0.40013
 Alpha virt. eigenvalues --    0.04636   0.10267   0.27448   0.30395   0.31208
 Alpha virt. eigenvalues --    0.36115   0.44204   0.50492   0.56224   0.62507
 Alpha virt. eigenvalues --    0.65413   0.81303   0.93955   0.95795   1.04563

 Mulliken charges:
               1
     1  O   -0.438403
     2  H    0.223361
     3  H    0.215043
 Sum of Mulliken charges =   0.00000

 Dipole moment (field-independent basis, Debye):
    X=             -0.0088    Y=             -1.9422    Z=              0.0000  Tot=              1.9422
 Quadrupole moment (field-independent basis, Debye-Ang):
   XX=             -4.3180   YY=             -6.3457   ZZ=             -7.5770
   XY=             -0.0485   XZ=              0.0000   YZ=              0.0000

 1\1\GINC-NODE02\SP\RB2PLYPD3-FC\def2QZVP\H2O1\BOITTIER\26-Aug-2020\0\\
 #p B2PLYPD3/Def2QZVP\\h2o\\0,1\O,0,-5.326605,-0.761898,0.925323\H,0,-4
 .368927,-0.741891,0.866038\H,0,-5.609308,0.116302,0.735038\\Version=ES
 64L-G09RevD.01\State=1-A'\HF=-76.3351361\MP2=-76.4248494\RMSD=4.265e-0
 9\PG=CS [SG(H2O1)]\\@

 SOME PEOPLE TRY TO PULL THE WOOL OVER YOUR EYES

 Normal termination of Gaussian 09 at Wed Aug 26 09:22:50 2020.
