 Gaussian 09, Revision D.01,
 Gaussian 09:  ES64L-G09RevD.01 24-Apr-2013

 --------------------
 #p B2PLYPD3/Def2QZVP
 --------------------

 ---
 h2o
 ---
 Symbolic Z-matrix:
 Charge =  0 Multiplicity = 1

                         Standard orientation:
 ---------------------------------------------------------------------
 Center     Atomic      Atomic             Coordinates (Angstroms)
 Number     Number       Type             X           Y           Z
 ---------------------------------------------------------------------
      1          8           0        0.000000    0.121785    0.000000
      2          1           0        0.724482   -0.518625    0.000000
      3          1           0       -0.724482   -0.455654    0.000000
 ---------------------------------------------------------------------

 SCF Done:  E(RB2PLYPD3) =  -76.3335115607     A.U. after   10 cycles
 E2(B2PLYPD3) =    -0.8975628704D-01 E(B2PLYPD3) =    -0.76423267847698D+02

 The electronic state is 1-A'.
 Alpha  occ. eigenvalues --  -19.73112  -1.16652  -0.60920  -0.48518  -0.40184
 Alpha virt. eigenvalues --    0.04544   0.10410   0.27499   0.30367   0.30737
 Alpha virt. eigenvalues --    0.37161   0.44403   0.49631   0.57101   0.60953
 Alpha virt. eigenvalues --    0.65388   0.81567   0.94599   0.95650   1.03758

 Mulliken charges:
               1
     1  O   -0.422803
     2  H    0.220960
     3  H    0.201844
 Sum of Mulliken charges =   0.00000

 Dipole moment (field-independent basis, Debye):
    X=             -0.0227    Y=             -2.0233    Z=              0.0000  Tot=              2.0234
 Quadrupole moment (field-independent basis, Debye-Ang):
   XX=             -4.5634   YY=             -6.1779   ZZ=             -7.5575
   XY=             -0.0954   XZ=              0.0000   YZ=              0.0000

 1\1\GINC-NODE31\SP\RB2PLYPD3-FC\def2QZVP\H2O1\BOITTIER\26-Aug-2020\0\\
 #p B2PLYPD3/Def2QZVP\\h2o\\0,1\O,0,-5.326605,-0.767152,0.922734\H,0,-4
 .368927,-0.633622,0.918108\H,0,-5.609308,0.092102,0.722555\\Version=ES
 64L-G09RevD.01\State=1-A'\HF=-76.3335116\MP2=-76.4232678\RMSD=5.401e-0
 9\PG=CS [SG(H2O1)]\\@

 ERROR IS A HARDY PLANT... IT FLOURISHETH IN EVERY SOIL.

 Normal termination of Gaussian 09 at Wed Aug 26 09:25:36 2020.
