 Gaussian 09, Revision D.01,
 Gaussian 09:  ES64L-G09RevD.01 24-Apr-2013

 --------------------
 #p B2PLYPD3/Def2QZVP
 --------------------

 ---
 h2o
 ---
 Symbolic Z-matrix:
 Charge =  0 Multiplicity = 1

                         Standard orientation:
 ---------------------------------------------------------------------
 Center     Atomic      Atomic             Coordinates (Angstroms)
 Number     Number       Type             X           Y           Z
 ---------------------------------------------------------------------
      1          8           0        0.000000    0.117912    0.000000
      2          1           0        0.770347   -0.452329    0.000000
      3          1           0       -0.770347   -0.490965    0.000000
 ---------------------------------------------------------------------

 SCF Done:  E(RB2PLYPD3) =  -76.3342584274     A.U. after   10 cycles
 E2(B2PLYPD3) =    -0.9035633697D-01 E(B2PLYPD3) =    -0.76424614764359D+02

 The electronic state is 1-A'.
 Alpha  occ. eigenvalues --  -19.73288  -1.15118  -0.60850  -0.47211  -0.39858
 Alpha virt. eigenvalues --    0.04410   0.10090   0.27575   0.30442   0.30772
 Alpha virt. eigenvalues --    0.35338   0.43668   0.50251   0.56034   0.62245
 Alpha virt. eigenvalues --    0.65900   0.80823   0.93392   0.96179   1.03060

 Mulliken charges:
               1
     1  O   -0.452660
     2  H    0.221424
     3  H    0.231236
 Sum of Mulliken charges =   0.00000

 Dipole moment (field-independent basis, Debye):
    X=              0.0118    Y=             -1.9609    Z=              0.0000  Tot=              1.9610
 Quadrupole moment (field-independent basis, Debye-Ang):
   XX=             -4.2909   YY=             -6.3463   ZZ=             -7.6204
   XY=              0.0644   XZ=              0.0000   YZ=              0.0000

 1\1\GINC-NODE40\SP\RB2PLYPD3-FC\def2QZVP\H2O1\BOITTIER\26-Aug-2020\0\\
 #p B2PLYPD3/Def2QZVP\\h2o\\0,1\O,0,-5.326605,-0.765257,0.91839\H,0,-4.
 368927,-0.735094,0.941893\H,0,-5.609308,0.163244,0.769629\\Version=ES6
 4L-G09RevD.01\State=1-A'\HF=-76.3342584\MP2=-76.4246148\RMSD=4.216e-09
 \PG=CS [SG(H2O1)]\\@

 THE PROBLEM WITH THE LADDER OF SUCCESS IS YOU CAN'T

 Normal termination of Gaussian 09 at Wed Aug 26 08:55:13 2020.
