 Gaussian 09, Revision D.01,
 Gaussian 09:  ES64L-G09RevD.01 24-Apr-2013

 --------------------
 #p B2PLYPD3/Def2QZVP
 --------------------

 ---
 h2o
 ---
 Symbolic Z-matrix:
 Charge =  0 Multiplicity = 1

                         Standard orientation:
 ---------------------------------------------------------------------
 Center     Atomic      Atomic             Coordinates (Angstroms)
 Number     Number       Type             X           Y           Z
 ---------------------------------------------------------------------
      1          8           0        0.000000    0.119261    0.000000
      2          1           0        0.788066   -0.426439    0.000000
      3          1           0       -0.788066   -0.527650    0.000000
 ---------------------------------------------------------------------

 SCF Done:  E(RB2PLYPD3) =  -76.3309170284     A.U. after   10 cycles
 E2(B2PLYPD3) =    -0.9096497867D-01 E(B2PLYPD3) =    -0.76421882007105D+02

 The electronic state is 1-A'.
 Alpha  occ. eigenvalues --  -19.73529  -1.14286  -0.60147  -0.46809  -0.39690
 Alpha virt. eigenvalues --    0.04154   0.09896   0.27655   0.30205   0.30487
 Alpha virt. eigenvalues --    0.34573   0.43246   0.50224   0.55651   0.62326
 Alpha virt. eigenvalues --    0.66300   0.80218   0.92426   0.96556   1.01693

 Mulliken charges:
               1
     1  O   -0.465800
     2  H    0.221402
     3  H    0.244398
 Sum of Mulliken charges =   0.00000

 Dipole moment (field-independent basis, Debye):
    X=              0.0302    Y=             -1.9619    Z=              0.0000  Tot=              1.9621
 Quadrupole moment (field-independent basis, Debye-Ang):
   XX=             -4.2210   YY=             -6.3689   ZZ=             -7.6636
   XY=              0.1720   XZ=              0.0000   YZ=              0.0000

 1\1\GINC-NODE13\SP\RB2PLYPD3-FC\def2QZVP\H2O1\BOITTIER\26-Aug-2020\0\\
 #p B2PLYPD3/Def2QZVP\\h2o\\0,1\O,0,-5.326605,-0.766309,0.917289\H,0,-4
 .368927,-0.7575,0.957438\H,0,-5.609308,0.202495,0.77224\\Version=ES64L
 -G09RevD.01\State=1-A'\HF=-76.330917\MP2=-76.421882\RMSD=5.336e-09\PG=
 CS [SG(H2O1)]\\@

 TOWERING GENIUS DISDAINS A BEATEN PATH.  IT SEEKS

 Normal termination of Gaussian 09 at Wed Aug 26 08:30:22 2020.
