 Gaussian 09, Revision D.01,
 Gaussian 09:  ES64L-G09RevD.01 24-Apr-2013

 --------------------
 #p B2PLYPD3/Def2QZVP
 --------------------

 ---
 h2o
 ---
 Symbolic Z-matrix:
 Charge =  0 Multiplicity = 1

                         Standard orientation:
 ---------------------------------------------------------------------
 Center     Atomic      Atomic             Coordinates (Angstroms)
 Number     Number       Type             X           Y           Z
 ---------------------------------------------------------------------
      1          8           0        0.000000    0.117526    0.000000
      2          1           0        0.751077   -0.479930    0.000000
      3          1           0       -0.751077   -0.460278    0.000000
 ---------------------------------------------------------------------

 SCF Done:  E(RB2PLYPD3) =  -76.3351282658     A.U. after   10 cycles
 E2(B2PLYPD3) =    -0.8985093515D-01 E(B2PLYPD3) =    -0.76424979200998D+02

 The electronic state is 1-A'.
 Alpha  occ. eigenvalues --  -19.73079  -1.15975  -0.61372  -0.47668  -0.40027
 Alpha virt. eigenvalues --    0.04577   0.10269   0.27492   0.30397   0.31014
 Alpha virt. eigenvalues --    0.36252   0.44125   0.50173   0.56431   0.62012
 Alpha virt. eigenvalues --    0.65520   0.81319   0.94050   0.95816   1.04067

 Mulliken charges:
               1
     1  O   -0.437465
     2  H    0.221507
     3  H    0.215958
 Sum of Mulliken charges =   0.00000

 Dipole moment (field-independent basis, Debye):
    X=             -0.0063    Y=             -1.9688    Z=              0.0000  Tot=              1.9688
 Quadrupole moment (field-independent basis, Debye-Ang):
   XX=             -4.3792   YY=             -6.3015   ZZ=             -7.5806
   XY=             -0.0318   XZ=              0.0000   YZ=              0.0000

 1\1\GINC-NODE17\SP\RB2PLYPD3-FC\def2QZVP\H2O1\BOITTIER\26-Aug-2020\0\\
 #p B2PLYPD3/Def2QZVP\\h2o\\0,1\O,0,-5.326605,-0.763905,0.924181\H,0,-4
 .368927,-0.713292,0.887282\H,0,-5.609308,0.119822,0.73162\\Version=ES6
 4L-G09RevD.01\State=1-A'\HF=-76.3351283\MP2=-76.4249792\RMSD=4.270e-09
 \PG=CS [SG(H2O1)]\\@

 SOME PHYSICISTS WOULD PREFER TO COME BACK TO THE IDEA OF AN OBJECTIVE

 Normal termination of Gaussian 09 at Wed Aug 26 10:24:59 2020.
