 Gaussian 09, Revision D.01,
 Gaussian 09:  ES64L-G09RevD.01 24-Apr-2013

 --------------------
 #p B2PLYPD3/Def2QZVP
 --------------------

 ---
 h2o
 ---
 Symbolic Z-matrix:
 Charge =  0 Multiplicity = 1

                         Standard orientation:
 ---------------------------------------------------------------------
 Center     Atomic      Atomic             Coordinates (Angstroms)
 Number     Number       Type             X           Y           Z
 ---------------------------------------------------------------------
      1          8           0        0.000000    0.116183    0.000000
      2          1           0        0.755144   -0.474396    0.000000
      3          1           0       -0.755144   -0.455070    0.000000
 ---------------------------------------------------------------------

 SCF Done:  E(RB2PLYPD3) =  -76.3351991294     A.U. after   10 cycles
 E2(B2PLYPD3) =    -0.8979362011D-01 E(B2PLYPD3) =    -0.76424992749523D+02

 The electronic state is 1-A'.
 Alpha  occ. eigenvalues --  -19.73026  -1.15949  -0.61590  -0.47502  -0.40012
 Alpha virt. eigenvalues --    0.04605   0.10261   0.27471   0.30398   0.31120
 Alpha virt. eigenvalues --    0.36137   0.44146   0.50351   0.56301   0.62296
 Alpha virt. eigenvalues --    0.65477   0.81294   0.93979   0.95815   1.04325

 Mulliken charges:
               1
     1  O   -0.438715
     2  H    0.222083
     3  H    0.216632
 Sum of Mulliken charges =   0.00000

 Dipole moment (field-independent basis, Debye):
    X=             -0.0060    Y=             -1.9537    Z=              0.0000  Tot=              1.9537
 Quadrupole moment (field-independent basis, Debye-Ang):
   XX=             -4.3412   YY=             -6.3284   ZZ=             -7.5802
   XY=             -0.0317   XZ=              0.0000   YZ=              0.0000

 1\1\GINC-NODE11\SP\RB2PLYPD3-FC\def2QZVP\H2O1\BOITTIER\26-Aug-2020\0\\
 #p B2PLYPD3/Def2QZVP\\h2o\\0,1\O,0,-5.326605,-0.763486,0.921869\H,0,-4
 .368927,-0.7244,0.903135\H,0,-5.609308,0.124213,0.75263\\Version=ES64L
 -G09RevD.01\State=1-A'\HF=-76.3351991\MP2=-76.4249927\RMSD=4.189e-09\P
 G=CS [SG(H2O1)]\\@

 IT IS BY EATING THE LIGHT OF A STAR THAT WE EXIST,

 Normal termination of Gaussian 09 at Wed Aug 26 09:44:56 2020.
