 Gaussian 09, Revision D.01,
 Gaussian 09:  ES64L-G09RevD.01 24-Apr-2013

 --------------------
 #p B2PLYPD3/Def2QZVP
 --------------------

 ---
 h2o
 ---
 Symbolic Z-matrix:
 Charge =  0 Multiplicity = 1

                         Standard orientation:
 ---------------------------------------------------------------------
 Center     Atomic      Atomic             Coordinates (Angstroms)
 Number     Number       Type             X           Y           Z
 ---------------------------------------------------------------------
      1          8           0        0.000000    0.113425    0.000000
      2          1           0        0.771671   -0.455922    0.000000
      3          1           0       -0.771671   -0.451478    0.000000
 ---------------------------------------------------------------------

 SCF Done:  E(RB2PLYPD3) =  -76.3350865036     A.U. after   10 cycles
 E2(B2PLYPD3) =    -0.8988501671D-01 E(B2PLYPD3) =    -0.76424971520286D+02

 The electronic state is 1-A'.
 Alpha  occ. eigenvalues --  -19.73000  -1.15535  -0.61821  -0.46963  -0.39908
 Alpha virt. eigenvalues --    0.04597   0.10171   0.27464   0.30418   0.31280
 Alpha virt. eigenvalues --    0.35487   0.43990   0.50808   0.55867   0.63012
 Alpha virt. eigenvalues --    0.65548   0.80988   0.93625   0.95987   1.04543

 Mulliken charges:
               1
     1  O   -0.448343
     2  H    0.224770
     3  H    0.223573
 Sum of Mulliken charges =   0.00000

 Dipole moment (field-independent basis, Debye):
    X=             -0.0013    Y=             -1.9175    Z=              0.0000  Tot=              1.9175
 Quadrupole moment (field-independent basis, Debye-Ang):
   XX=             -4.2230   YY=             -6.4053   ZZ=             -7.5963
   XY=             -0.0076   XZ=              0.0000   YZ=              0.0000

 1\1\GINC-NODE25\SP\RB2PLYPD3-FC\def2QZVP\H2O1\BOITTIER\26-Aug-2020\0\\
 #p B2PLYPD3/Def2QZVP\\h2o\\0,1\O,0,-5.326605,-0.761164,0.923612\H,0,-4
 .368927,-0.773774,0.875393\H,0,-5.609308,0.136444,0.753408\\Version=ES
 64L-G09RevD.01\State=1-A'\HF=-76.3350865\MP2=-76.4249715\RMSD=3.849e-0
 9\PG=CS [SG(H2O1)]\\@

 SLITHERY-DITHERY

 Normal termination of Gaussian 09 at Wed Aug 26 08:45:32 2020.
