 Gaussian 09, Revision D.01,
 Gaussian 09:  ES64L-G09RevD.01 24-Apr-2013

 --------------------
 #p B2PLYPD3/Def2QZVP
 --------------------

 ---
 h2o
 ---
 Symbolic Z-matrix:
 Charge =  0 Multiplicity = 1

                         Standard orientation:
 ---------------------------------------------------------------------
 Center     Atomic      Atomic             Coordinates (Angstroms)
 Number     Number       Type             X           Y           Z
 ---------------------------------------------------------------------
      1          8           0        0.000000    0.115116    0.000000
      2          1           0        0.776256   -0.445843    0.000000
      3          1           0       -0.776256   -0.475086    0.000000
 ---------------------------------------------------------------------

 SCF Done:  E(RB2PLYPD3) =  -76.3345493417     A.U. after   10 cycles
 E2(B2PLYPD3) =    -0.9018390441D-01 E(B2PLYPD3) =    -0.76424733246134D+02

 The electronic state is 1-A'.
 Alpha  occ. eigenvalues --  -19.73157  -1.15165  -0.61329  -0.46935  -0.39845
 Alpha virt. eigenvalues --    0.04485   0.10097   0.27523   0.30439   0.31039
 Alpha virt. eigenvalues --    0.35201   0.43754   0.50633   0.55825   0.62796
 Alpha virt. eigenvalues --    0.65773   0.80784   0.93374   0.96151   1.03720

 Mulliken charges:
               1
     1  O   -0.454002
     2  H    0.223247
     3  H    0.230755
 Sum of Mulliken charges =   0.00000

 Dipole moment (field-independent basis, Debye):
    X=              0.0084    Y=             -1.9310    Z=              0.0000  Tot=              1.9310
 Quadrupole moment (field-independent basis, Debye-Ang):
   XX=             -4.2232   YY=             -6.3963   ZZ=             -7.6154
   XY=              0.0499   XZ=              0.0000   YZ=              0.0000

 1\1\GINC-NODE22\SP\RB2PLYPD3-FC\def2QZVP\H2O1\BOITTIER\26-Aug-2020\0\\
 #p B2PLYPD3/Def2QZVP\\h2o\\0,1\O,0,-5.326605,-0.763311,0.918573\H,0,-4
 .368927,-0.762623,0.928621\H,0,-5.609308,0.159651,0.780255\\Version=ES
 64L-G09RevD.01\State=1-A'\HF=-76.3345493\MP2=-76.4247332\RMSD=4.011e-0
 9\PG=CS [SG(H2O1)]\\@

 In the race for quality, there is no finish line.

 Normal termination of Gaussian 09 at Wed Aug 26 10:49:21 2020.
