 Gaussian 09, Revision D.01,
 Gaussian 09:  ES64L-G09RevD.01 24-Apr-2013

 --------------------
 #p B2PLYPD3/Def2QZVP
 --------------------

 ---
 h2o
 ---
 Symbolic Z-matrix:
 Charge =  0 Multiplicity = 1

                         Standard orientation:
 ---------------------------------------------------------------------
 Center     Atomic      Atomic             Coordinates (Angstroms)
 Number     Number       Type             X           Y           Z
 ---------------------------------------------------------------------
      1          8           0        0.000000    0.118044    0.000000
      2          1           0        0.742337   -0.491733    0.000000
      3          1           0       -0.742337   -0.452619    0.000000
 ---------------------------------------------------------------------

 SCF Done:  E(RB2PLYPD3) =  -76.3347947558     A.U. after   10 cycles
 E2(B2PLYPD3) =    -0.8970990457D-01 E(B2PLYPD3) =    -0.76424504660402D+02

 The electronic state is 1-A'.
 Alpha  occ. eigenvalues --  -19.73028  -1.16301  -0.61443  -0.47905  -0.40094
 Alpha virt. eigenvalues --    0.04608   0.10334   0.27468   0.30381   0.31012
 Alpha virt. eigenvalues --    0.36628   0.44294   0.50070   0.56623   0.61800
 Alpha virt. eigenvalues --    0.65402   0.81472   0.94254   0.95702   1.04216

 Mulliken charges:
               1
     1  O   -0.431100
     2  H    0.221285
     3  H    0.209815
 Sum of Mulliken charges =   0.00000

 Dipole moment (field-independent basis, Debye):
    X=             -0.0128    Y=             -1.9786    Z=              0.0000  Tot=              1.9786
 Quadrupole moment (field-independent basis, Debye-Ang):
   XX=             -4.4280   YY=             -6.2715   ZZ=             -7.5670
   XY=             -0.0623   XZ=              0.0000   YZ=              0.0000

 1\1\GINC-NODE11\SP\RB2PLYPD3-FC\def2QZVP\H2O1\BOITTIER\26-Aug-2020\0\\
 #p B2PLYPD3/Def2QZVP\\h2o\\0,1\O,0,-5.326605,-0.764671,0.922357\H,0,-4
 .368927,-0.690605,0.906276\H,0,-5.609308,0.10939,0.741203\\Version=ES6
 4L-G09RevD.01\State=1-A'\HF=-76.3347948\MP2=-76.4245047\RMSD=4.660e-09
 \PG=CS [SG(H2O1)]\\@

 ABSOLUTISM, OBSOLETISM -- IF IT WORKS, IT'S OUT OF DATE

 Normal termination of Gaussian 09 at Wed Aug 26 12:25:17 2020.
