 Gaussian 09, Revision D.01,
 Gaussian 09:  ES64L-G09RevD.01 24-Apr-2013

 --------------------
 #p B2PLYPD3/Def2QZVP
 --------------------

 ---
 h2o
 ---
 Symbolic Z-matrix:
 Charge =  0 Multiplicity = 1

                         Standard orientation:
 ---------------------------------------------------------------------
 Center     Atomic      Atomic             Coordinates (Angstroms)
 Number     Number       Type             X           Y           Z
 ---------------------------------------------------------------------
      1          8           0        0.000000    0.114782    0.000000
      2          1           0        0.727349   -0.513634    0.000000
      3          1           0       -0.727349   -0.404623    0.000000
 ---------------------------------------------------------------------

 SCF Done:  E(RB2PLYPD3) =  -76.3312469192     A.U. after   10 cycles
 E2(B2PLYPD3) =    -0.8901775585D-01 E(B2PLYPD3) =    -0.76420264675024D+02

 The electronic state is 1-A'.
 Alpha  occ. eigenvalues --  -19.72633  -1.17404  -0.62546  -0.48062  -0.40273
 Alpha virt. eigenvalues --    0.04796   0.10515   0.27287   0.30327   0.31280
 Alpha virt. eigenvalues --    0.37462   0.45056   0.50359   0.56740   0.62156
 Alpha virt. eigenvalues --    0.64825   0.81891   0.94361   0.95418   1.05189

 Mulliken charges:
               1
     1  O   -0.410080
     2  H    0.223260
     3  H    0.186820
 Sum of Mulliken charges =   0.00000

 Dipole moment (field-independent basis, Debye):
    X=             -0.0352    Y=             -1.9551    Z=              0.0000  Tot=              1.9554
 Quadrupole moment (field-independent basis, Debye-Ang):
   XX=             -4.4526   YY=             -6.2633   ZZ=             -7.5184
   XY=             -0.1726   XZ=              0.0000   YZ=              0.0000

 1\1\GINC-NODE03\SP\RB2PLYPD3-FC\def2QZVP\H2O1\BOITTIER\26-Aug-2020\0\\
 #p B2PLYPD3/Def2QZVP\\h2o\\0,1\O,0,-5.326605,-0.762306,0.922745\H,0,-4
 .368927,-0.687353,0.888409\H,0,-5.609308,0.068285,0.752402\\Version=ES
 64L-G09RevD.01\State=1-A'\HF=-76.3312469\MP2=-76.4202647\RMSD=6.324e-0
 9\PG=CS [SG(H2O1)]\\@

 RESEARCH IS WHAT I AM DOING WHEN I DON'T KNOW WHAT I AM DOING.

 Normal termination of Gaussian 09 at Wed Aug 26 08:36:24 2020.
