 Gaussian 09, Revision D.01,
 Gaussian 09:  ES64L-G09RevD.01 24-Apr-2013

 --------------------
 #p B2PLYPD3/Def2QZVP
 --------------------

 ---
 h2o
 ---
 Symbolic Z-matrix:
 Charge =  0 Multiplicity = 1

                         Standard orientation:
 ---------------------------------------------------------------------
 Center     Atomic      Atomic             Coordinates (Angstroms)
 Number     Number       Type             X           Y           Z
 ---------------------------------------------------------------------
      1          8           0        0.000000    0.120873    0.000000
      2          1           0        0.751011   -0.480111    0.000000
      3          1           0       -0.751011   -0.486873    0.000000
 ---------------------------------------------------------------------

 SCF Done:  E(RB2PLYPD3) =  -76.3346995204     A.U. after   10 cycles
 E2(B2PLYPD3) =    -0.9024204463D-01 E(B2PLYPD3) =    -0.76424941565071D+02

 The electronic state is 1-A'.
 Alpha  occ. eigenvalues --  -19.73309  -1.15596  -0.60607  -0.47831  -0.39978
 Alpha virt. eigenvalues --    0.04433   0.10198   0.27589   0.30417   0.30665
 Alpha virt. eigenvalues --    0.36036   0.43837   0.49810   0.56544   0.61469
 Alpha virt. eigenvalues --    0.65813   0.81144   0.93943   0.96005   1.03027

 Mulliken charges:
               1
     1  O   -0.442239
     2  H    0.220213
     3  H    0.222025
 Sum of Mulliken charges =   0.00000

 Dipole moment (field-independent basis, Debye):
    X=              0.0023    Y=             -2.0001    Z=              0.0000  Tot=              2.0001
 Quadrupole moment (field-independent basis, Debye-Ang):
   XX=             -4.4261   YY=             -6.2606   ZZ=             -7.6013
   XY=              0.0108   XZ=              0.0000   YZ=              0.0000

 1\1\GINC-NODE24\SP\RB2PLYPD3-FC\def2QZVP\H2O1\BOITTIER\26-Aug-2020\0\\
 #p B2PLYPD3/Def2QZVP\\h2o\\0,1\O,0,-5.326605,-0.7652,0.927974\H,0,-4.3
 68927,-0.701151,0.865123\H,0,-5.609308,0.128389,0.693559\\Version=ES64
 L-G09RevD.01\State=1-A'\HF=-76.3346995\MP2=-76.4249416\RMSD=4.256e-09\
 PG=CS [SG(H2O1)]\\@

 IT MATTERS NOT HOW DEEP YOU PLOW,

 Normal termination of Gaussian 09 at Wed Aug 26 08:30:11 2020.
