 Gaussian 09, Revision D.01,
 Gaussian 09:  ES64L-G09RevD.01 24-Apr-2013

 --------------------
 #p B2PLYPD3/Def2QZVP
 --------------------

 ---
 h2o
 ---
 Symbolic Z-matrix:
 Charge =  0 Multiplicity = 1

                         Standard orientation:
 ---------------------------------------------------------------------
 Center     Atomic      Atomic             Coordinates (Angstroms)
 Number     Number       Type             X           Y           Z
 ---------------------------------------------------------------------
      1          8           0        0.000000    0.116356    0.000000
      2          1           0        0.744399   -0.489556    0.000000
      3          1           0       -0.744399   -0.441295    0.000000
 ---------------------------------------------------------------------

 SCF Done:  E(RB2PLYPD3) =  -76.3346839668     A.U. after   10 cycles
 E2(B2PLYPD3) =    -0.8956555383D-01 E(B2PLYPD3) =    -0.76424249520675D+02

 The electronic state is 1-A'.
 Alpha  occ. eigenvalues --  -19.72929  -1.16409  -0.61793  -0.47766  -0.40102
 Alpha virt. eigenvalues --    0.04663   0.10349   0.27428   0.30375   0.31152
 Alpha virt. eigenvalues --    0.36633   0.44403   0.50268   0.56516   0.62112
 Alpha virt. eigenvalues --    0.65290   0.81517   0.94219   0.95651   1.04601

 Mulliken charges:
               1
     1  O   -0.429854
     2  H    0.222112
     3  H    0.207742
 Sum of Mulliken charges =   0.00000

 Dipole moment (field-independent basis, Debye):
    X=             -0.0153    Y=             -1.9614    Z=              0.0000  Tot=              1.9614
 Quadrupole moment (field-independent basis, Debye-Ang):
   XX=             -4.3949   YY=             -6.2967   ZZ=             -7.5605
   XY=             -0.0778   XZ=              0.0000   YZ=              0.0000

 1\1\GINC-NODE19\SP\RB2PLYPD3-FC\def2QZVP\H2O1\BOITTIER\26-Aug-2020\0\\
 #p B2PLYPD3/Def2QZVP\\h2o\\0,1\O,0,-5.326605,-0.763352,0.923041\H,0,-4
 .368927,-0.706797,0.892801\H,0,-5.609308,0.104466,0.743943\\Version=ES
 64L-G09RevD.01\State=1-A'\HF=-76.334684\MP2=-76.4242495\RMSD=4.779e-09
 \PG=CS [SG(H2O1)]\\@

 WE ARE REACHING THE STAGE WHERE THE PROBLEMS WE MUST SOLVE ARE

 Normal termination of Gaussian 09 at Wed Aug 26 10:56:00 2020.
