 Gaussian 09, Revision D.01,
 Gaussian 09:  ES64L-G09RevD.01 24-Apr-2013

 --------------------
 #p B2PLYPD3/Def2QZVP
 --------------------

 ---
 h2o
 ---
 Symbolic Z-matrix:
 Charge =  0 Multiplicity = 1

                         Standard orientation:
 ---------------------------------------------------------------------
 Center     Atomic      Atomic             Coordinates (Angstroms)
 Number     Number       Type             X           Y           Z
 ---------------------------------------------------------------------
      1          8           0        0.000000    0.115777    0.000000
      2          1           0        0.771870   -0.451316    0.000000
      3          1           0       -0.771870   -0.474901    0.000000
 ---------------------------------------------------------------------

 SCF Done:  E(RB2PLYPD3) =  -76.3347397888     A.U. after   10 cycles
 E2(B2PLYPD3) =    -0.9014955280D-01 E(B2PLYPD3) =    -0.76424889341560D+02

 The electronic state is 1-A'.
 Alpha  occ. eigenvalues --  -19.73160  -1.15279  -0.61289  -0.47074  -0.39874
 Alpha virt. eigenvalues --    0.04494   0.10122   0.27525   0.30433   0.31014
 Alpha virt. eigenvalues --    0.35372   0.43798   0.50517   0.55939   0.62617
 Alpha virt. eigenvalues --    0.65749   0.80882   0.93484   0.96099   1.03719

 Mulliken charges:
               1
     1  O   -0.451408
     2  H    0.222637
     3  H    0.228772
 Sum of Mulliken charges =   0.00000

 Dipole moment (field-independent basis, Debye):
    X=              0.0069    Y=             -1.9399    Z=              0.0000  Tot=              1.9399
 Quadrupole moment (field-independent basis, Debye-Ang):
   XX=             -4.2540   YY=             -6.3770   ZZ=             -7.6106
   XY=              0.0398   XZ=              0.0000   YZ=              0.0000

 1\1\GINC-NODE20\SP\RB2PLYPD3-FC\def2QZVP\H2O1\BOITTIER\26-Aug-2020\0\\
 #p B2PLYPD3/Def2QZVP\\h2o\\0,1\O,0,-5.326605,-0.763713,0.918957\H,0,-4
 .368927,-0.751495,0.927959\H,0,-5.609308,0.154949,0.774658\\Version=ES
 64L-G09RevD.01\State=1-A'\HF=-76.3347398\MP2=-76.4248893\RMSD=3.994e-0
 9\PG=CS [SG(H2O1)]\\@

 FROM THE ASHES OF OUR DESPAIR GROW THE FLOWERS OF TOMORROW.

 Normal termination of Gaussian 09 at Wed Aug 26 10:35:13 2020.
