 Gaussian 09, Revision D.01,
 Gaussian 09:  ES64L-G09RevD.01 24-Apr-2013

 --------------------
 #p B2PLYPD3/Def2QZVP
 --------------------

 ---
 h2o
 ---
 Symbolic Z-matrix:
 Charge =  0 Multiplicity = 1

                         Standard orientation:
 ---------------------------------------------------------------------
 Center     Atomic      Atomic             Coordinates (Angstroms)
 Number     Number       Type             X           Y           Z
 ---------------------------------------------------------------------
      1          8           0        0.000000    0.115059    0.000000
      2          1           0        0.767754   -0.458034    0.000000
      3          1           0       -0.767754   -0.462440    0.000000
 ---------------------------------------------------------------------

 SCF Done:  E(RB2PLYPD3) =  -76.3350985627     A.U. after   10 cycles
 E2(B2PLYPD3) =    -0.8996875651D-01 E(B2PLYPD3) =    -0.76425067319240D+02

 The electronic state is 1-A'.
 Alpha  occ. eigenvalues --  -19.73073  -1.15528  -0.61549  -0.47140  -0.39919
 Alpha virt. eigenvalues --    0.04560   0.10173   0.27491   0.30419   0.31139
 Alpha virt. eigenvalues --    0.35598   0.43946   0.50573   0.56004   0.62674
 Alpha virt. eigenvalues --    0.65613   0.81028   0.93661   0.95987   1.04172

 Mulliken charges:
               1
     1  O   -0.447324
     2  H    0.223071
     3  H    0.224254
 Sum of Mulliken charges =   0.00000

 Dipole moment (field-independent basis, Debye):
    X=              0.0013    Y=             -1.9356    Z=              0.0000  Tot=              1.9356
 Quadrupole moment (field-independent basis, Debye-Ang):
   XX=             -4.2645   YY=             -6.3753   ZZ=             -7.5982
   XY=              0.0074   XZ=              0.0000   YZ=              0.0000

 1\1\GINC-NODE27\SP\RB2PLYPD3-FC\def2QZVP\H2O1\BOITTIER\26-Aug-2020\0\\
 #p B2PLYPD3/Def2QZVP\\h2o\\0,1\O,0,-5.326605,-0.763424,0.917348\H,0,-4
 .368927,-0.746912,0.938865\H,0,-5.609308,0.145744,0.789113\\Version=ES
 64L-G09RevD.01\State=1-A'\HF=-76.3350986\MP2=-76.4250673\RMSD=3.912e-0
 9\PG=CS [SG(H2O1)]\\@

 THIS CURIOUS WORLD WHICH WE INHABIT IS MORE WONDERFUL THAN IT IS CONVENIENT;

 Normal termination of Gaussian 09 at Wed Aug 26 09:59:14 2020.
