 Gaussian 09, Revision D.01,
 Gaussian 09:  ES64L-G09RevD.01 24-Apr-2013

 --------------------
 #p B2PLYPD3/Def2QZVP
 --------------------

 ---
 h2o
 ---
 Symbolic Z-matrix:
 Charge =  0 Multiplicity = 1

                         Standard orientation:
 ---------------------------------------------------------------------
 Center     Atomic      Atomic             Coordinates (Angstroms)
 Number     Number       Type             X           Y           Z
 ---------------------------------------------------------------------
      1          8           0        0.000000    0.118020    0.000000
      2          1           0        0.747796   -0.484023    0.000000
      3          1           0       -0.747796   -0.460135    0.000000
 ---------------------------------------------------------------------

 SCF Done:  E(RB2PLYPD3) =  -76.3350540256     A.U. after   10 cycles
 E2(B2PLYPD3) =    -0.8983169931D-01 E(B2PLYPD3) =    -0.76424885724957D+02

 The electronic state is 1-A'.
 Alpha  occ. eigenvalues --  -19.73081  -1.16062  -0.61330  -0.47773  -0.40048
 Alpha virt. eigenvalues --    0.04577   0.10288   0.27492   0.30393   0.30987
 Alpha virt. eigenvalues --    0.36375   0.44160   0.50101   0.56515   0.61882
 Alpha virt. eigenvalues --    0.65503   0.81364   0.94126   0.95787   1.04041

 Mulliken charges:
               1
     1  O   -0.435585
     2  H    0.221197
     3  H    0.214388
 Sum of Mulliken charges =   0.00000

 Dipole moment (field-independent basis, Debye):
    X=             -0.0077    Y=             -1.9753    Z=              0.0000  Tot=              1.9753
 Quadrupole moment (field-independent basis, Debye-Ang):
   XX=             -4.4017   YY=             -6.2868   ZZ=             -7.5773
   XY=             -0.0384   XZ=              0.0000   YZ=              0.0000

 1\1\GINC-NODE28\SP\RB2PLYPD3-FC\def2QZVP\H2O1\BOITTIER\26-Aug-2020\0\\
 #p B2PLYPD3/Def2QZVP\\h2o\\0,1\O,0,-5.326605,-0.764947,0.920844\H,0,-4
 .368927,-0.697806,0.920077\H,0,-5.609308,0.121001,0.751617\\Version=ES
 64L-G09RevD.01\State=1-A'\HF=-76.335054\MP2=-76.4248857\RMSD=4.365e-09
 \PG=CS [SG(H2O1)]\\@

 CHRISTMAS IS ON TOP OF A STEEP HILL.

 Normal termination of Gaussian 09 at Wed Aug 26 12:05:00 2020.
