 Gaussian 09, Revision D.01,
 Gaussian 09:  ES64L-G09RevD.01 24-Apr-2013

 --------------------
 #p B2PLYPD3/Def2QZVP
 --------------------

 ---
 h2o
 ---
 Symbolic Z-matrix:
 Charge =  0 Multiplicity = 1

                         Standard orientation:
 ---------------------------------------------------------------------
 Center     Atomic      Atomic             Coordinates (Angstroms)
 Number     Number       Type             X           Y           Z
 ---------------------------------------------------------------------
      1          8           0        0.000000    0.113392    0.000000
      2          1           0        0.752574   -0.479768    0.000000
      3          1           0       -0.752574   -0.427372    0.000000
 ---------------------------------------------------------------------

 SCF Done:  E(RB2PLYPD3) =  -76.3346441917     A.U. after   10 cycles
 E2(B2PLYPD3) =    -0.8942882261D-01 E(B2PLYPD3) =    -0.76424073014281D+02

 The electronic state is 1-A'.
 Alpha  occ. eigenvalues --  -19.72806  -1.16382  -0.62297  -0.47411  -0.40076
 Alpha virt. eigenvalues --    0.04729   0.10334   0.27381   0.30374   0.31377
 Alpha virt. eigenvalues --    0.36401   0.44468   0.50669   0.56238   0.62739
 Alpha virt. eigenvalues --    0.65184   0.81477   0.94083   0.95648   1.05126

 Mulliken charges:
               1
     1  O   -0.431766
     2  H    0.223688
     3  H    0.208078
 Sum of Mulliken charges =   0.00000

 Dipole moment (field-independent basis, Debye):
    X=             -0.0156    Y=             -1.9282    Z=              0.0000  Tot=              1.9282
 Quadrupole moment (field-independent basis, Debye-Ang):
   XX=             -4.3155   YY=             -6.3532   ZZ=             -7.5585
   XY=             -0.0870   XZ=              0.0000   YZ=              0.0000

 1\1\GINC-NODE20\SP\RB2PLYPD3-FC\def2QZVP\H2O1\BOITTIER\26-Aug-2020\0\\
 #p B2PLYPD3/Def2QZVP\\h2o\\0,1\O,0,-5.326605,-0.762234,0.917606\H,0,-4
 .368927,-0.731832,0.929235\H,0,-5.609308,0.11162,0.794107\\Version=ES6
 4L-G09RevD.01\State=1-A'\HF=-76.3346442\MP2=-76.424073\RMSD=4.757e-09\
 PG=CS [SG(H2O1)]\\@

 I WISH TO HAVE NO CONNECTION WITH ANY SHIP THAT DOES NOT SAIL FAST,

 Normal termination of Gaussian 09 at Wed Aug 26 12:34:15 2020.
