 Gaussian 09, Revision D.01,
 Gaussian 09:  ES64L-G09RevD.01 24-Apr-2013

 --------------------
 #p B2PLYPD3/Def2QZVP
 --------------------

 ---
 h2o
 ---
 Symbolic Z-matrix:
 Charge =  0 Multiplicity = 1

                         Standard orientation:
 ---------------------------------------------------------------------
 Center     Atomic      Atomic             Coordinates (Angstroms)
 Number     Number       Type             X           Y           Z
 ---------------------------------------------------------------------
      1          8           0        0.000000    0.111055    0.000000
      2          1           0        0.764939   -0.466281    0.000000
      3          1           0       -0.764939   -0.422157    0.000000
 ---------------------------------------------------------------------

 SCF Done:  E(RB2PLYPD3) =  -76.3347845953     A.U. after   10 cycles
 E2(B2PLYPD3) =    -0.8947358664D-01 E(B2PLYPD3) =    -0.76424258181918D+02

 The electronic state is 1-A'.
 Alpha  occ. eigenvalues --  -19.72772  -1.16085  -0.62529  -0.46992  -0.40000
 Alpha virt. eigenvalues --    0.04738   0.10270   0.27374   0.30387   0.31534
 Alpha virt. eigenvalues --    0.35912   0.44360   0.51060   0.55906   0.63331
 Alpha virt. eigenvalues --    0.65221   0.81260   0.93873   0.95771   1.05376

 Mulliken charges:
               1
     1  O   -0.438959
     2  H    0.225841
     3  H    0.213118
 Sum of Mulliken charges =   0.00000

 Dipole moment (field-independent basis, Debye):
    X=             -0.0122    Y=             -1.8982    Z=              0.0000  Tot=              1.8982
 Quadrupole moment (field-independent basis, Debye-Ang):
   XX=             -4.2242   YY=             -6.4142   ZZ=             -7.5692
   XY=             -0.0756   XZ=              0.0000   YZ=              0.0000

 1\1\GINC-NODE39\SP\RB2PLYPD3-FC\def2QZVP\H2O1\BOITTIER\26-Aug-2020\0\\
 #p B2PLYPD3/Def2QZVP\\h2o\\0,1\O,0,-5.326605,-0.760921,0.914021\H,0,-4
 .368927,-0.764958,0.949859\H,0,-5.609308,0.123732,0.830866\\Version=ES
 64L-G09RevD.01\State=1-A'\HF=-76.3347846\MP2=-76.4242582\RMSD=4.442e-0
 9\PG=CS [SG(H2O1)]\\@

 ACTORS ARE SO FORTUNATE.  THEY CAN CHOOSE WHETHER

 Normal termination of Gaussian 09 at Wed Aug 26 09:25:20 2020.
