 Gaussian 09, Revision D.01,
 Gaussian 09:  ES64L-G09RevD.01 24-Apr-2013

 --------------------
 #p B2PLYPD3/Def2QZVP
 --------------------

 ---
 h2o
 ---
 Symbolic Z-matrix:
 Charge =  0 Multiplicity = 1

                         Standard orientation:
 ---------------------------------------------------------------------
 Center     Atomic      Atomic             Coordinates (Angstroms)
 Number     Number       Type             X           Y           Z
 ---------------------------------------------------------------------
      1          8           0        0.000000    0.117740    0.000000
      2          1           0        0.775160   -0.445356    0.000000
      3          1           0       -0.775160   -0.496562    0.000000
 ---------------------------------------------------------------------

 SCF Done:  E(RB2PLYPD3) =  -76.3337903686     A.U. after   10 cycles
 E2(B2PLYPD3) =    -0.9045590458D-01 E(B2PLYPD3) =    -0.76424246273215D+02

 The electronic state is 1-A'.
 Alpha  occ. eigenvalues --  -19.73320  -1.14941  -0.60776  -0.47081  -0.39819
 Alpha virt. eigenvalues --    0.04373   0.10051   0.27586   0.30451   0.30716
 Alpha virt. eigenvalues --    0.35136   0.43584   0.50306   0.55921   0.62350
 Alpha virt. eigenvalues --    0.65968   0.80694   0.93208   0.96259   1.02856

 Mulliken charges:
               1
     1  O   -0.455908
     2  H    0.221594
     3  H    0.234314
 Sum of Mulliken charges =   0.00000

 Dipole moment (field-independent basis, Debye):
    X=              0.0154    Y=             -1.9563    Z=              0.0000  Tot=              1.9564
 Quadrupole moment (field-independent basis, Debye-Ang):
   XX=             -4.2647   YY=             -6.3600   ZZ=             -7.6289
   XY=              0.0860   XZ=              0.0000   YZ=              0.0000

 1\1\GINC-NODE07\SP\RB2PLYPD3-FC\def2QZVP\H2O1\BOITTIER\26-Aug-2020\0\\
 #p B2PLYPD3/Def2QZVP\\h2o\\0,1\O,0,-5.326605,-0.765101,0.918686\H,0,-4
 .368927,-0.745029,0.938688\H,0,-5.609308,0.170694,0.768332\\Version=ES
 64L-G09RevD.01\State=1-A'\HF=-76.3337904\MP2=-76.4242463\RMSD=4.373e-0
 9\PG=CS [SG(H2O1)]\\@

 PERICLES, SOPHOCLES,

 Normal termination of Gaussian 09 at Wed Aug 26 09:37:15 2020.
