 Gaussian 09, Revision D.01,
 Gaussian 09:  ES64L-G09RevD.01 24-Apr-2013

 --------------------
 #p B2PLYPD3/Def2QZVP
 --------------------

 ---
 h2o
 ---
 Symbolic Z-matrix:
 Charge =  0 Multiplicity = 1

                         Standard orientation:
 ---------------------------------------------------------------------
 Center     Atomic      Atomic             Coordinates (Angstroms)
 Number     Number       Type             X           Y           Z
 ---------------------------------------------------------------------
      1          8           0        0.000000    0.111799    0.000000
      2          1           0        0.805835   -0.411302    0.000000
      3          1           0       -0.805835   -0.483093    0.000000
 ---------------------------------------------------------------------

 SCF Done:  E(RB2PLYPD3) =  -76.3318868421     A.U. after   10 cycles
 E2(B2PLYPD3) =    -0.9058136726D-01 E(B2PLYPD3) =    -0.76422468209342D+02

 The electronic state is 1-A'.
 Alpha  occ. eigenvalues --  -19.73209  -1.14285  -0.61275  -0.46053  -0.39627
 Alpha virt. eigenvalues --    0.04337   0.09898   0.27521   0.30489   0.31000
 Alpha virt. eigenvalues --    0.34055   0.43364   0.51358   0.55093   0.63807
 Alpha virt. eigenvalues --    0.66078   0.79907   0.92567   0.96605   1.03065

 Mulliken charges:
               1
     1  O   -0.473292
     2  H    0.228357
     3  H    0.244935
 Sum of Mulliken charges =   0.00000

 Dipole moment (field-independent basis, Debye):
    X=              0.0178    Y=             -1.8805    Z=              0.0000  Tot=              1.8806
 Quadrupole moment (field-independent basis, Debye-Ang):
   XX=             -4.0283   YY=             -6.5104   ZZ=             -7.6565
   XY=              0.1299   XZ=              0.0000   YZ=              0.0000

 1\1\GINC-NODE15\SP\RB2PLYPD3-FC\def2QZVP\H2O1\BOITTIER\26-Aug-2020\0\\
 #p B2PLYPD3/Def2QZVP\\h2o\\0,1\O,0,-5.326605,-0.761428,0.914342\H,0,-4
 .368927,-0.82851,0.951186\H,0,-5.609308,0.195407,0.825955\\Version=ES6
 4L-G09RevD.01\State=1-A'\HF=-76.3318868\MP2=-76.4224682\RMSD=4.770e-09
 \PG=CS [SG(H2O1)]\\@

 WE HAVE SEEN THAT MAN ON THE AVERAGE DOES NOT LIVE ABOVE

 Normal termination of Gaussian 09 at Wed Aug 26 09:06:31 2020.
