 Gaussian 09, Revision D.01,
 Gaussian 09:  ES64L-G09RevD.01 24-Apr-2013

 --------------------
 #p B2PLYPD3/Def2QZVP
 --------------------

 ---
 h2o
 ---
 Symbolic Z-matrix:
 Charge =  0 Multiplicity = 1

                         Standard orientation:
 ---------------------------------------------------------------------
 Center     Atomic      Atomic             Coordinates (Angstroms)
 Number     Number       Type             X           Y           Z
 ---------------------------------------------------------------------
      1          8           0        0.000000    0.117260    0.000000
      2          1           0        0.782852   -0.436249    0.000000
      3          1           0       -0.782852   -0.501829    0.000000
 ---------------------------------------------------------------------

 SCF Done:  E(RB2PLYPD3) =  -76.3330270580     A.U. after   10 cycles
 E2(B2PLYPD3) =    -0.9059364451D-01 E(B2PLYPD3) =    -0.76423620702489D+02

 The electronic state is 1-A'.
 Alpha  occ. eigenvalues --  -19.73357  -1.14680  -0.60699  -0.46866  -0.39760
 Alpha virt. eigenvalues --    0.04320   0.09991   0.27596   0.30466   0.30649
 Alpha virt. eigenvalues --    0.34830   0.43465   0.50423   0.55736   0.62550
 Alpha virt. eigenvalues --    0.66063   0.80486   0.92932   0.96372   1.02608

 Mulliken charges:
               1
     1  O   -0.460896
     2  H    0.222561
     3  H    0.238335
 Sum of Mulliken charges =   0.00000

 Dipole moment (field-independent basis, Debye):
    X=              0.0192    Y=             -1.9470    Z=              0.0000  Tot=              1.9471
 Quadrupole moment (field-independent basis, Debye-Ang):
   XX=             -4.2197   YY=             -6.3846   ZZ=             -7.6412
   XY=              0.1117   XZ=              0.0000   YZ=              0.0000

 1\1\GINC-NODE14\SP\RB2PLYPD3-FC\def2QZVP\H2O1\BOITTIER\26-Aug-2020\0\\
 #p B2PLYPD3/Def2QZVP\\h2o\\0,1\O,0,-5.326605,-0.765082,0.915872\H,0,-4
 .368927,-0.758553,0.961039\H,0,-5.609308,0.183914,0.790916\\Version=ES
 64L-G09RevD.01\State=1-A'\HF=-76.3330271\MP2=-76.4236207\RMSD=4.589e-0
 9\PG=CS [SG(H2O1)]\\@

 IF YOU BELIEVE CERTAIN WORDS, YOU BELIEVE THEIR HIDDEN ARGUMENTS.

 Normal termination of Gaussian 09 at Wed Aug 26 08:32:50 2020.
