 Gaussian 09, Revision D.01,
 Gaussian 09:  ES64L-G09RevD.01 24-Apr-2013

 --------------------
 #p B2PLYPD3/Def2QZVP
 --------------------

 ---
 h2o
 ---
 Symbolic Z-matrix:
 Charge =  0 Multiplicity = 1

                         Standard orientation:
 ---------------------------------------------------------------------
 Center     Atomic      Atomic             Coordinates (Angstroms)
 Number     Number       Type             X           Y           Z
 ---------------------------------------------------------------------
      1          8           0        0.000000    0.116877    0.000000
      2          1           0        0.757487   -0.471676    0.000000
      3          1           0       -0.757487   -0.463340    0.000000
 ---------------------------------------------------------------------

 SCF Done:  E(RB2PLYPD3) =  -76.3351808985     A.U. after   10 cycles
 E2(B2PLYPD3) =    -0.8992710535D-01 E(B2PLYPD3) =    -0.76425108003893D+02

 The electronic state is 1-A'.
 Alpha  occ. eigenvalues --  -19.73097  -1.15770  -0.61378  -0.47480  -0.39982
 Alpha virt. eigenvalues --    0.04560   0.10227   0.27500   0.30407   0.31034
 Alpha virt. eigenvalues --    0.35987   0.44030   0.50286   0.56278   0.62215
 Alpha virt. eigenvalues --    0.65581   0.81205   0.93891   0.95892   1.04018

 Mulliken charges:
               1
     1  O   -0.441642
     2  H    0.221970
     3  H    0.219672
 Sum of Mulliken charges =   0.00000

 Dipole moment (field-independent basis, Debye):
    X=             -0.0026    Y=             -1.9589    Z=              0.0000  Tot=              1.9589
 Quadrupole moment (field-independent basis, Debye-Ang):
   XX=             -4.3394   YY=             -6.3264   ZZ=             -7.5890
   XY=             -0.0137   XZ=              0.0000   YZ=              0.0000

 1\1\GINC-NODE17\SP\RB2PLYPD3-FC\def2QZVP\H2O1\BOITTIER\26-Aug-2020\0\\
 #p B2PLYPD3/Def2QZVP\\h2o\\0,1\O,0,-5.326605,-0.763359,0.924564\H,0,-4
 .368927,-0.729613,0.881027\H,0,-5.609308,0.127407,0.732072\\Version=ES
 64L-G09RevD.01\State=1-A'\HF=-76.3351809\MP2=-76.425108\RMSD=4.093e-09
 \PG=CS [SG(H2O1)]\\@

 Money is a good servant but a bad master.

 Normal termination of Gaussian 09 at Wed Aug 26 10:48:50 2020.
