 Gaussian 09, Revision D.01,
 Gaussian 09:  ES64L-G09RevD.01 24-Apr-2013

 --------------------
 #p B2PLYPD3/Def2QZVP
 --------------------

 ---
 h2o
 ---
 Symbolic Z-matrix:
 Charge =  0 Multiplicity = 1

                         Standard orientation:
 ---------------------------------------------------------------------
 Center     Atomic      Atomic             Coordinates (Angstroms)
 Number     Number       Type             X           Y           Z
 ---------------------------------------------------------------------
      1          8           0        0.000000    0.125506    0.000000
      2          1           0        0.722183   -0.523137    0.000000
      3          1           0       -0.722183   -0.480911    0.000000
 ---------------------------------------------------------------------

 SCF Done:  E(RB2PLYPD3) =  -76.3333942765     A.U. after   10 cycles
 E2(B2PLYPD3) =    -0.9016722718D-01 E(B2PLYPD3) =    -0.76423561503657D+02

 The electronic state is 1-A'.
 Alpha  occ. eigenvalues --  -19.73358  -1.16282  -0.60081  -0.48755  -0.40143
 Alpha virt. eigenvalues --    0.04400   0.10347   0.27611   0.30384   0.30411
 Alpha virt. eigenvalues --    0.36934   0.44085   0.49307   0.57286   0.60339
 Alpha virt. eigenvalues --    0.65671   0.81386   0.94696   0.95821   1.02854

 Mulliken charges:
               1
     1  O   -0.427746
     2  H    0.219963
     3  H    0.207783
 Sum of Mulliken charges =   0.00000

 Dipole moment (field-independent basis, Debye):
    X=             -0.0161    Y=             -2.0587    Z=              0.0000  Tot=              2.0587
 Quadrupole moment (field-independent basis, Debye-Ang):
   XX=             -4.6271   YY=             -6.1276   ZZ=             -7.5779
   XY=             -0.0624   XZ=              0.0000   YZ=              0.0000

 1\1\GINC-NODE31\SP\RB2PLYPD3-FC\def2QZVP\H2O1\BOITTIER\26-Aug-2020\0\\
 #p B2PLYPD3/Def2QZVP\\h2o\\0,1\O,0,-5.326605,-0.768179,0.928687\H,0,-4
 .368927,-0.618248,0.877109\H,0,-5.609308,0.093158,0.66894\\Version=ES6
 4L-G09RevD.01\State=1-A'\HF=-76.3333943\MP2=-76.4235615\RMSD=5.159e-09
 \PG=CS [SG(H2O1)]\\@

 WHERE THERE IS MUCH DESIRE TO LEARN, THERE OF NECESSITY WILL BE

 Normal termination of Gaussian 09 at Wed Aug 26 08:33:16 2020.
