 Gaussian 09, Revision D.01,
 Gaussian 09:  ES64L-G09RevD.01 24-Apr-2013

 --------------------
 #p B2PLYPD3/Def2QZVP
 --------------------

 ---
 h2o
 ---
 Symbolic Z-matrix:
 Charge =  0 Multiplicity = 1

                         Standard orientation:
 ---------------------------------------------------------------------
 Center     Atomic      Atomic             Coordinates (Angstroms)
 Number     Number       Type             X           Y           Z
 ---------------------------------------------------------------------
      1          8           0        0.000000    0.115823    0.000000
      2          1           0        0.752773   -0.478545    0.000000
      3          1           0       -0.752773   -0.448039    0.000000
 ---------------------------------------------------------------------

 SCF Done:  E(RB2PLYPD3) =  -76.3351019999     A.U. after   10 cycles
 E2(B2PLYPD3) =    -0.8969825413D-01 E(B2PLYPD3) =    -0.76424800253998D+02

 The electronic state is 1-A'.
 Alpha  occ. eigenvalues --  -19.72977  -1.16095  -0.61728  -0.47539  -0.40038
 Alpha virt. eigenvalues --    0.04634   0.10288   0.27451   0.30390   0.31165
 Alpha virt. eigenvalues --    0.36270   0.44238   0.50379   0.56333   0.62323
 Alpha virt. eigenvalues --    0.65401   0.81364   0.94044   0.95758   1.04502

 Mulliken charges:
               1
     1  O   -0.436147
     2  H    0.222454
     3  H    0.213694
 Sum of Mulliken charges =   0.00000

 Dipole moment (field-independent basis, Debye):
    X=             -0.0094    Y=             -1.9516    Z=              0.0000  Tot=              1.9516
 Quadrupole moment (field-independent basis, Debye-Ang):
   XX=             -4.3477   YY=             -6.3261   ZZ=             -7.5734
   XY=             -0.0500   XZ=              0.0000   YZ=              0.0000

 1\1\GINC-NODE11\SP\RB2PLYPD3-FC\def2QZVP\H2O1\BOITTIER\26-Aug-2020\0\\
 #p B2PLYPD3/Def2QZVP\\h2o\\0,1\O,0,-5.326605,-0.762858,0.923577\H,0,-4
 .368927,-0.726021,0.885691\H,0,-5.609308,0.115799,0.742891\\Version=ES
 64L-G09RevD.01\State=1-A'\HF=-76.335102\MP2=-76.4248003\RMSD=4.346e-09
 \PG=CS [SG(H2O1)]\\@

 The mind is not a vessel to be filled but a fire to be kindled.

 Normal termination of Gaussian 09 at Wed Aug 26 09:58:23 2020.
