 Gaussian 09, Revision D.01,
 Gaussian 09:  ES64L-G09RevD.01 24-Apr-2013

 --------------------
 #p B2PLYPD3/Def2QZVP
 --------------------

 ---
 h2o
 ---
 Symbolic Z-matrix:
 Charge =  0 Multiplicity = 1

                         Standard orientation:
 ---------------------------------------------------------------------
 Center     Atomic      Atomic             Coordinates (Angstroms)
 Number     Number       Type             X           Y           Z
 ---------------------------------------------------------------------
      1          8           0        0.000000    0.117089    0.000000
      2          1           0        0.777583   -0.442027    0.000000
      3          1           0       -0.777583   -0.494684    0.000000
 ---------------------------------------------------------------------

 SCF Done:  E(RB2PLYPD3) =  -76.3337481320     A.U. after   10 cycles
 E2(B2PLYPD3) =    -0.9044138077D-01 E(B2PLYPD3) =    -0.76424189512753D+02

 The electronic state is 1-A'.
 Alpha  occ. eigenvalues --  -19.73299  -1.14909  -0.60862  -0.46991  -0.39807
 Alpha virt. eigenvalues --    0.04380   0.10043   0.27576   0.30453   0.30761
 Alpha virt. eigenvalues --    0.35061   0.43583   0.50403   0.55850   0.62494
 Alpha virt. eigenvalues --    0.65957   0.80654   0.93162   0.96271   1.02940

 Mulliken charges:
               1
     1  O   -0.456989
     2  H    0.221972
     3  H    0.235018
 Sum of Mulliken charges =   0.00000

 Dipole moment (field-independent basis, Debye):
    X=              0.0156    Y=             -1.9487    Z=              0.0000  Tot=              1.9488
 Quadrupole moment (field-independent basis, Debye-Ang):
   XX=             -4.2436   YY=             -6.3742   ZZ=             -7.6298
   XY=              0.0891   XZ=              0.0000   YZ=              0.0000

 1\1\GINC-NODE11\SP\RB2PLYPD3-FC\def2QZVP\H2O1\BOITTIER\26-Aug-2020\0\\
 #p B2PLYPD3/Def2QZVP\\h2o\\0,1\O,0,-5.326605,-0.764275,0.921075\H,0,-4
 .368927,-0.756673,0.914715\H,0,-5.609308,0.169125,0.754506\\Version=ES
 64L-G09RevD.01\State=1-A'\HF=-76.3337481\MP2=-76.4241895\RMSD=4.381e-0
 9\PG=CS [SG(H2O1)]\\@

 YOU SHOULDN'T LET PEOPLE DRIVE YOU CRAZY

 Normal termination of Gaussian 09 at Wed Aug 26 08:29:56 2020.
