 Gaussian 09, Revision D.01,
 Gaussian 09:  ES64L-G09RevD.01 24-Apr-2013

 --------------------
 #p B2PLYPD3/Def2QZVP
 --------------------

 ---
 h2o
 ---
 Symbolic Z-matrix:
 Charge =  0 Multiplicity = 1

                         Standard orientation:
 ---------------------------------------------------------------------
 Center     Atomic      Atomic             Coordinates (Angstroms)
 Number     Number       Type             X           Y           Z
 ---------------------------------------------------------------------
      1          8           0        0.000000    0.117749    0.000000
      2          1           0        0.766038   -0.461638    0.000000
      3          1           0       -0.766038   -0.480350    0.000000
 ---------------------------------------------------------------------

 SCF Done:  E(RB2PLYPD3) =  -76.3347251812     A.U. after   10 cycles
 E2(B2PLYPD3) =    -0.9023131969D-01 E(B2PLYPD3) =    -0.76424956500931D+02

 The electronic state is 1-A'.
 Alpha  occ. eigenvalues --  -19.73238  -1.15312  -0.60985  -0.47313  -0.39897
 Alpha virt. eigenvalues --    0.04457   0.10133   0.27557   0.30431   0.30858
 Alpha virt. eigenvalues --    0.35539   0.43767   0.50240   0.56126   0.62201
 Alpha virt. eigenvalues --    0.65812   0.80949   0.93577   0.96089   1.03356

 Mulliken charges:
               1
     1  O   -0.449377
     2  H    0.222253
     3  H    0.227124
 Sum of Mulliken charges =   0.00000

 Dipole moment (field-independent basis, Debye):
    X=              0.0058    Y=             -1.9621    Z=              0.0000  Tot=              1.9621
 Quadrupole moment (field-independent basis, Debye-Ang):
   XX=             -4.3098   YY=             -6.3379   ZZ=             -7.6109
   XY=              0.0310   XZ=              0.0000   YZ=              0.0000

 1\1\GINC-NODE09\SP\RB2PLYPD3-FC\def2QZVP\H2O1\BOITTIER\26-Aug-2020\0\\
 #p B2PLYPD3/Def2QZVP\\h2o\\0,1\O,0,-5.326605,-0.765516,0.91437\H,0,-4.
 368927,-0.724952,0.975283\H,0,-5.609308,0.15725,0.799834\\Version=ES64
 L-G09RevD.01\State=1-A'\HF=-76.3347252\MP2=-76.4249565\RMSD=4.040e-09\
 PG=CS [SG(H2O1)]\\@

 BREAD HAS TO MOLD IN ORDER TO GET PENICILLIN.

 Normal termination of Gaussian 09 at Wed Aug 26 12:31:50 2020.
