 Gaussian 09, Revision D.01,
 Gaussian 09:  ES64L-G09RevD.01 24-Apr-2013

 --------------------
 #p B2PLYPD3/Def2QZVP
 --------------------

 ---
 h2o
 ---
 Symbolic Z-matrix:
 Charge =  0 Multiplicity = 1

                         Standard orientation:
 ---------------------------------------------------------------------
 Center     Atomic      Atomic             Coordinates (Angstroms)
 Number     Number       Type             X           Y           Z
 ---------------------------------------------------------------------
      1          8           0        0.000000    0.118271    0.000000
      2          1           0        0.748512   -0.482823    0.000000
      3          1           0       -0.748512   -0.463349    0.000000
 ---------------------------------------------------------------------

 SCF Done:  E(RB2PLYPD3) =  -76.3350722460     A.U. after   10 cycles
 E2(B2PLYPD3) =    -0.8987717776D-01 E(B2PLYPD3) =    -0.76424949423719D+02

 The electronic state is 1-A'.
 Alpha  occ. eigenvalues --  -19.73105  -1.16001  -0.61256  -0.47768  -0.40038
 Alpha virt. eigenvalues --    0.04562   0.10276   0.27503   0.30396   0.30958
 Alpha virt. eigenvalues --    0.36326   0.44120   0.50077   0.56510   0.61851
 Alpha virt. eigenvalues --    0.65538   0.81336   0.94102   0.95813   1.03941

 Mulliken charges:
               1
     1  O   -0.436564
     2  H    0.221036
     3  H    0.215527
 Sum of Mulliken charges =   0.00000

 Dipole moment (field-independent basis, Debye):
    X=             -0.0063    Y=             -1.9773    Z=              0.0000  Tot=              1.9773
 Quadrupole moment (field-independent basis, Debye-Ang):
   XX=             -4.4018   YY=             -6.2858   ZZ=             -7.5802
   XY=             -0.0313   XZ=              0.0000   YZ=              0.0000

 1\1\GINC-NODE26\SP\RB2PLYPD3-FC\def2QZVP\H2O1\BOITTIER\26-Aug-2020\0\\
 #p B2PLYPD3/Def2QZVP\\h2o\\0,1\O,0,-5.326605,-0.764973,0.921646\H,0,-4
 .368927,-0.698816,0.913885\H,0,-5.609308,0.12242,0.745111\\Version=ES6
 4L-G09RevD.01\State=1-A'\HF=-76.3350722\MP2=-76.4249494\RMSD=4.319e-09
 \PG=CS [SG(H2O1)]\\@

 SCIENCE AT ITS BEST PROVIDES US WITH BETTER QUESTIONS,

 Normal termination of Gaussian 09 at Wed Aug 26 11:08:24 2020.
