 Gaussian 09, Revision D.01,
 Gaussian 09:  ES64L-G09RevD.01 24-Apr-2013

 --------------------
 #p B2PLYPD3/Def2QZVP
 --------------------

 ---
 h2o
 ---
 Symbolic Z-matrix:
 Charge =  0 Multiplicity = 1

                         Standard orientation:
 ---------------------------------------------------------------------
 Center     Atomic      Atomic             Coordinates (Angstroms)
 Number     Number       Type             X           Y           Z
 ---------------------------------------------------------------------
      1          8           0        0.000000    0.118271    0.000000
      2          1           0        0.759404   -0.467345    0.000000
      3          1           0       -0.759404   -0.478821    0.000000
 ---------------------------------------------------------------------

 SCF Done:  E(RB2PLYPD3) =  -76.3349373840     A.U. after   10 cycles
 E2(B2PLYPD3) =    -0.9013274867D-01 E(B2PLYPD3) =    -0.76425070132658D+02

 The electronic state is 1-A'.
 Alpha  occ. eigenvalues --  -19.73211  -1.15533  -0.61017  -0.47501  -0.39946
 Alpha virt. eigenvalues --    0.04485   0.10181   0.27547   0.30420   0.30867
 Alpha virt. eigenvalues --    0.35817   0.43870   0.50138   0.56283   0.62015
 Alpha virt. eigenvalues --    0.65737   0.81089   0.93771   0.96001   1.03483

 Mulliken charges:
               1
     1  O   -0.445031
     2  H    0.220982
     3  H    0.224049
 Sum of Mulliken charges =   0.00000

 Dipole moment (field-independent basis, Debye):
    X=              0.0036    Y=             -1.9709    Z=              0.0000  Tot=              1.9709
 Quadrupole moment (field-independent basis, Debye-Ang):
   XX=             -4.3494   YY=             -6.3144   ZZ=             -7.6012
   XY=              0.0188   XZ=              0.0000   YZ=              0.0000

 1\1\GINC-NODE11\SP\RB2PLYPD3-FC\def2QZVP\H2O1\BOITTIER\26-Aug-2020\0\\
 #p B2PLYPD3/Def2QZVP\\h2o\\0,1\O,0,-5.326605,-0.765238,0.920173\H,0,-4
 .368927,-0.715834,0.927413\H,0,-5.609308,0.143682,0.75538\\Version=ES6
 4L-G09RevD.01\State=1-A'\HF=-76.3349374\MP2=-76.4250701\RMSD=4.095e-09
 \PG=CS [SG(H2O1)]\\@

 You don't have to suffer to be a poet.

 Normal termination of Gaussian 09 at Wed Aug 26 10:26:23 2020.
