 Gaussian 09, Revision D.01,
 Gaussian 09:  ES64L-G09RevD.01 24-Apr-2013

 --------------------
 #p B2PLYPD3/Def2QZVP
 --------------------

 ---
 h2o
 ---
 Symbolic Z-matrix:
 Charge =  0 Multiplicity = 1

                         Standard orientation:
 ---------------------------------------------------------------------
 Center     Atomic      Atomic             Coordinates (Angstroms)
 Number     Number       Type             X           Y           Z
 ---------------------------------------------------------------------
      1          8           0        0.000000    0.120161    0.000000
      2          1           0        0.749259   -0.481689    0.000000
      3          1           0       -0.749259   -0.479596    0.000000
 ---------------------------------------------------------------------

 SCF Done:  E(RB2PLYPD3) =  -76.3348868458     A.U. after   10 cycles
 E2(B2PLYPD3) =    -0.9011606339D-01 E(B2PLYPD3) =    -0.76425002909238D+02

 The electronic state is 1-A'.
 Alpha  occ. eigenvalues --  -19.73244  -1.15751  -0.60806  -0.47842  -0.40003
 Alpha virt. eigenvalues --    0.04477   0.10230   0.27561   0.30409   0.30759
 Alpha virt. eigenvalues --    0.36166   0.43936   0.49877   0.56559   0.61556
 Alpha virt. eigenvalues --    0.65719   0.81220   0.94027   0.95933   1.03327

 Mulliken charges:
               1
     1  O   -0.439957
     2  H    0.220265
     3  H    0.219692
 Sum of Mulliken charges =   0.00000

 Dipole moment (field-independent basis, Debye):
    X=             -0.0007    Y=             -1.9945    Z=              0.0000  Tot=              1.9945
 Quadrupole moment (field-independent basis, Debye-Ang):
   XX=             -4.4245   YY=             -6.2649   ZZ=             -7.5935
   XY=             -0.0033   XZ=              0.0000   YZ=              0.0000

 1\1\GINC-NODE22\SP\RB2PLYPD3-FC\def2QZVP\H2O1\BOITTIER\26-Aug-2020\0\\
 #p B2PLYPD3/Def2QZVP\\h2o\\0,1\O,0,-5.326605,-0.765355,0.925692\H,0,-4
 .368927,-0.696511,0.884151\H,0,-5.609308,0.126241,0.710674\\Version=ES
 64L-G09RevD.01\State=1-A'\HF=-76.3348868\MP2=-76.4250029\RMSD=4.268e-0
 9\PG=CS [SG(H2O1)]\\@

 Age does not diminish the extreme disappointment of

 Normal termination of Gaussian 09 at Wed Aug 26 08:31:11 2020.
