 Gaussian 09, Revision D.01,
 Gaussian 09:  ES64L-G09RevD.01 24-Apr-2013

 --------------------
 #p B2PLYPD3/Def2QZVP
 --------------------

 ---
 h2o
 ---
 Symbolic Z-matrix:
 Charge =  0 Multiplicity = 1

                         Standard orientation:
 ---------------------------------------------------------------------
 Center     Atomic      Atomic             Coordinates (Angstroms)
 Number     Number       Type             X           Y           Z
 ---------------------------------------------------------------------
      1          8           0        0.000000    0.114178    0.000000
      2          1           0        0.763674   -0.464222    0.000000
      3          1           0       -0.763674   -0.449200    0.000000
 ---------------------------------------------------------------------

 SCF Done:  E(RB2PLYPD3) =  -76.3352167539     A.U. after   10 cycles
 E2(B2PLYPD3) =    -0.8977372755D-01 E(B2PLYPD3) =    -0.76424990481424D+02

 The electronic state is 1-A'.
 Alpha  occ. eigenvalues --  -19.72973  -1.15799  -0.61848  -0.47193  -0.39967
 Alpha virt. eigenvalues --    0.04627   0.10226   0.27452   0.30404   0.31261
 Alpha virt. eigenvalues --    0.35834   0.44116   0.50651   0.56056   0.62763
 Alpha virt. eigenvalues --    0.65462   0.81175   0.93816   0.95871   1.04622

 Mulliken charges:
               1
     1  O   -0.442774
     2  H    0.223473
     3  H    0.219300
 Sum of Mulliken charges =   0.00000

 Dipole moment (field-independent basis, Debye):
    X=             -0.0044    Y=             -1.9295    Z=              0.0000  Tot=              1.9295
 Quadrupole moment (field-independent basis, Debye-Ang):
   XX=             -4.2725   YY=             -6.3750   ZZ=             -7.5849
   XY=             -0.0253   XZ=              0.0000   YZ=              0.0000

 1\1\GINC-NODE06\SP\RB2PLYPD3-FC\def2QZVP\H2O1\BOITTIER\26-Aug-2020\0\\
 #p B2PLYPD3/Def2QZVP\\h2o\\0,1\O,0,-5.326605,-0.762808,0.917394\H,0,-4
 .368927,-0.745474,0.934644\H,0,-5.609308,0.134446,0.792464\\Version=ES
 64L-G09RevD.01\State=1-A'\HF=-76.3352168\MP2=-76.4249905\RMSD=4.012e-0
 9\PG=CS [SG(H2O1)]\\@

 THE WORLD IS MADE UP OF THE WILLS, THE WON'TS, AND THE CANT'S:

 Normal termination of Gaussian 09 at Wed Aug 26 11:02:12 2020.
