 Gaussian 09, Revision D.01,
 Gaussian 09:  ES64L-G09RevD.01 24-Apr-2013

 --------------------
 #p B2PLYPD3/Def2QZVP
 --------------------

 ---
 h2o
 ---
 Symbolic Z-matrix:
 Charge =  0 Multiplicity = 1

                         Standard orientation:
 ---------------------------------------------------------------------
 Center     Atomic      Atomic             Coordinates (Angstroms)
 Number     Number       Type             X           Y           Z
 ---------------------------------------------------------------------
      1          8           0        0.000000    0.118447    0.000000
      2          1           0        0.770890   -0.450593    0.000000
      3          1           0       -0.770890   -0.496985    0.000000
 ---------------------------------------------------------------------

 SCF Done:  E(RB2PLYPD3) =  -76.3339834518     A.U. after   10 cycles
 E2(B2PLYPD3) =    -0.9043255695D-01 E(B2PLYPD3) =    -0.76424416008704D+02

 The electronic state is 1-A'.
 Alpha  occ. eigenvalues --  -19.73328  -1.15040  -0.60719  -0.47220  -0.39846
 Alpha virt. eigenvalues --    0.04379   0.10074   0.27591   0.30446   0.30691
 Alpha virt. eigenvalues --    0.35288   0.43619   0.50192   0.56035   0.62168
 Alpha virt. eigenvalues --    0.65953   0.80780   0.93324   0.96219   1.02843

 Mulliken charges:
               1
     1  O   -0.453590
     2  H    0.220968
     3  H    0.232622
 Sum of Mulliken charges =   0.00000

 Dipole moment (field-independent basis, Debye):
    X=              0.0143    Y=             -1.9656    Z=              0.0000  Tot=              1.9656
 Quadrupole moment (field-independent basis, Debye-Ang):
   XX=             -4.2956   YY=             -6.3406   ZZ=             -7.6247
   XY=              0.0771   XZ=              0.0000   YZ=              0.0000

 1\1\GINC-NODE40\SP\RB2PLYPD3-FC\def2QZVP\H2O1\BOITTIER\26-Aug-2020\0\\
 #p B2PLYPD3/Def2QZVP\\h2o\\0,1\O,0,-5.326605,-0.765333,0.920356\H,0,-4
 .368927,-0.735508,0.926772\H,0,-5.609308,0.164877,0.753572\\Version=ES
 64L-G09RevD.01\State=1-A'\HF=-76.3339835\MP2=-76.424416\RMSD=4.331e-09
 \PG=CS [SG(H2O1)]\\@

 Fatherhood is pretending the present you love most is soap-on-a-rope.

 Normal termination of Gaussian 09 at Wed Aug 26 08:41:15 2020.
