 Gaussian 09, Revision D.01,
 Gaussian 09:  ES64L-G09RevD.01 24-Apr-2013

 --------------------
 #p B2PLYPD3/Def2QZVP
 --------------------

 ---
 h2o
 ---
 Symbolic Z-matrix:
 Charge =  0 Multiplicity = 1

                         Standard orientation:
 ---------------------------------------------------------------------
 Center     Atomic      Atomic             Coordinates (Angstroms)
 Number     Number       Type             X           Y           Z
 ---------------------------------------------------------------------
      1          8           0        0.000000    0.114464    0.000000
      2          1           0        0.766357   -0.460585    0.000000
      3          1           0       -0.766357   -0.455125    0.000000
 ---------------------------------------------------------------------

 SCF Done:  E(RB2PLYPD3) =  -76.3351845715     A.U. after   10 cycles
 E2(B2PLYPD3) =    -0.8986933444D-01 E(B2PLYPD3) =    -0.76425053905929D+02

 The electronic state is 1-A'.
 Alpha  occ. eigenvalues --  -19.73019  -1.15652  -0.61718  -0.47144  -0.39940
 Alpha virt. eigenvalues --    0.04595   0.10197   0.27470   0.30412   0.31214
 Alpha virt. eigenvalues --    0.35692   0.44028   0.50636   0.56012   0.62754
 Alpha virt. eigenvalues --    0.65537   0.81092   0.93731   0.95933   1.04428

 Mulliken charges:
               1
     1  O   -0.445398
     2  H    0.223444
     3  H    0.221954
 Sum of Mulliken charges =   0.00000

 Dipole moment (field-independent basis, Debye):
    X=             -0.0016    Y=             -1.9307    Z=              0.0000  Tot=              1.9307
 Quadrupole moment (field-independent basis, Debye-Ang):
   XX=             -4.2632   YY=             -6.3788   ZZ=             -7.5919
   XY=             -0.0092   XZ=              0.0000   YZ=              0.0000

 1\1\GINC-NODE03\SP\RB2PLYPD3-FC\def2QZVP\H2O1\BOITTIER\26-Aug-2020\0\\
 #p B2PLYPD3/Def2QZVP\\h2o\\0,1\O,0,-5.326605,-0.763075,0.916774\H,0,-4
 .368927,-0.747656,0.941258\H,0,-5.609308,0.140904,0.795793\\Version=ES
 64L-G09RevD.01\State=1-A'\HF=-76.3351846\MP2=-76.4250539\RMSD=3.927e-0
 9\PG=CS [SG(H2O1)]\\@

 THERE ONCE WAS A GIRL NAMED IRENE,

 Normal termination of Gaussian 09 at Wed Aug 26 12:08:19 2020.
