 Gaussian 09, Revision D.01,
 Gaussian 09:  ES64L-G09RevD.01 24-Apr-2013

 --------------------
 #p B2PLYPD3/Def2QZVP
 --------------------

 ---
 h2o
 ---
 Symbolic Z-matrix:
 Charge =  0 Multiplicity = 1

                         Standard orientation:
 ---------------------------------------------------------------------
 Center     Atomic      Atomic             Coordinates (Angstroms)
 Number     Number       Type             X           Y           Z
 ---------------------------------------------------------------------
      1          8           0        0.000000    0.113804    0.000000
      2          1           0        0.783129   -0.437827    0.000000
      3          1           0       -0.783129   -0.472602    0.000000
 ---------------------------------------------------------------------

 SCF Done:  E(RB2PLYPD3) =  -76.3342498744     A.U. after   10 cycles
 E2(B2PLYPD3) =    -0.9021069706D-01 E(B2PLYPD3) =    -0.76424460571496D+02

 The electronic state is 1-A'.
 Alpha  occ. eigenvalues --  -19.73134  -1.15013  -0.61447  -0.46703  -0.39802
 Alpha virt. eigenvalues --    0.04481   0.10062   0.27512   0.30447   0.31112
 Alpha virt. eigenvalues --    0.34943   0.43704   0.50859   0.55639   0.63122
 Alpha virt. eigenvalues --    0.65793   0.80628   0.93228   0.96227   1.03808

 Mulliken charges:
               1
     1  O   -0.457861
     2  H    0.224541
     3  H    0.233320
 Sum of Mulliken charges =   0.00000

 Dipole moment (field-independent basis, Debye):
    X=              0.0096    Y=             -1.9142    Z=              0.0000  Tot=              1.9142
 Quadrupole moment (field-independent basis, Debye-Ang):
   XX=             -4.1711   YY=             -6.4299   ZZ=             -7.6215
   XY=              0.0603   XZ=              0.0000   YZ=              0.0000

 1\1\GINC-NODE16\SP\RB2PLYPD3-FC\def2QZVP\H2O1\BOITTIER\26-Aug-2020\0\\
 #p B2PLYPD3/Def2QZVP\\h2o\\0,1\O,0,-5.326605,-0.762446,0.91825\H,0,-4.
 368927,-0.781921,0.92601\H,0,-5.609308,0.165103,0.788275\\Version=ES64
 L-G09RevD.01\State=1-A'\HF=-76.3342499\MP2=-76.4244606\RMSD=4.027e-09\
 PG=CS [SG(H2O1)]\\@

 HEAVEN'S NET CASTS WIDE.

 Normal termination of Gaussian 09 at Wed Aug 26 08:30:21 2020.
