 Gaussian 09, Revision D.01,
 Gaussian 09:  ES64L-G09RevD.01 24-Apr-2013

 --------------------
 #p B2PLYPD3/Def2QZVP
 --------------------

 ---
 h2o
 ---
 Symbolic Z-matrix:
 Charge =  0 Multiplicity = 1

                         Standard orientation:
 ---------------------------------------------------------------------
 Center     Atomic      Atomic             Coordinates (Angstroms)
 Number     Number       Type             X           Y           Z
 ---------------------------------------------------------------------
      1          8           0        0.000000    0.119869    0.000000
      2          1           0        0.742591   -0.491124    0.000000
      3          1           0       -0.742591   -0.467826    0.000000
 ---------------------------------------------------------------------

 SCF Done:  E(RB2PLYPD3) =  -76.3348641125     A.U. after   10 cycles
 E2(B2PLYPD3) =    -0.8992818442D-01 E(B2PLYPD3) =    -0.76424792296931D+02

 The electronic state is 1-A'.
 Alpha  occ. eigenvalues --  -19.73159  -1.16074  -0.61011  -0.47991  -0.40064
 Alpha virt. eigenvalues --    0.04532   0.10295   0.27525   0.30393   0.30840
 Alpha virt. eigenvalues --    0.36495   0.44117   0.49878   0.56686   0.61505
 Alpha virt. eigenvalues --    0.65570   0.81371   0.94228   0.95805   1.03685

 Mulliken charges:
               1
     1  O   -0.434362
     2  H    0.220496
     3  H    0.213866
 Sum of Mulliken charges =   0.00000

 Dipole moment (field-independent basis, Debye):
    X=             -0.0078    Y=             -1.9956    Z=              0.0000  Tot=              1.9956
 Quadrupole moment (field-independent basis, Debye-Ang):
   XX=             -4.4522   YY=             -6.2507   ZZ=             -7.5790
   XY=             -0.0368   XZ=              0.0000   YZ=              0.0000

 1\1\GINC-NODE19\SP\RB2PLYPD3-FC\def2QZVP\H2O1\BOITTIER\26-Aug-2020\0\\
 #p B2PLYPD3/Def2QZVP\\h2o\\0,1\O,0,-5.326605,-0.765914,0.922423\H,0,-4
 .368927,-0.679172,0.913368\H,0,-5.609308,0.117847,0.733022\\Version=ES
 64L-G09RevD.01\State=1-A'\HF=-76.3348641\MP2=-76.4247923\RMSD=4.480e-0
 9\PG=CS [SG(H2O1)]\\@

 SIGN SEEN IN A RESTAURANT-

 Normal termination of Gaussian 09 at Wed Aug 26 08:29:11 2020.
