 Gaussian 09, Revision D.01,
 Gaussian 09:  ES64L-G09RevD.01 24-Apr-2013

 --------------------
 #p B2PLYPD3/Def2QZVP
 --------------------

 ---
 h2o
 ---
 Symbolic Z-matrix:
 Charge =  0 Multiplicity = 1

                         Standard orientation:
 ---------------------------------------------------------------------
 Center     Atomic      Atomic             Coordinates (Angstroms)
 Number     Number       Type             X           Y           Z
 ---------------------------------------------------------------------
      1          8           0        0.000000    0.119002    0.000000
      2          1           0        0.748334   -0.483007    0.000000
      3          1           0       -0.748334   -0.469010    0.000000
 ---------------------------------------------------------------------

 SCF Done:  E(RB2PLYPD3) =  -76.3350322158     A.U. after   10 cycles
 E2(B2PLYPD3) =    -0.8995801077D-01 E(B2PLYPD3) =    -0.76424990226604D+02

 The electronic state is 1-A'.
 Alpha  occ. eigenvalues --  -19.73154  -1.15924  -0.61091  -0.47809  -0.40028
 Alpha virt. eigenvalues --    0.04533   0.10263   0.27524   0.30400   0.30887
 Alpha virt. eigenvalues --    0.36287   0.44058   0.49996   0.56539   0.61729
 Alpha virt. eigenvalues --    0.65600   0.81302   0.94089   0.95850   1.03725

 Mulliken charges:
               1
     1  O   -0.437547
     2  H    0.220733
     3  H    0.216814
 Sum of Mulliken charges =   0.00000

 Dipole moment (field-independent basis, Debye):
    X=             -0.0046    Y=             -1.9842    Z=              0.0000  Tot=              1.9842
 Quadrupole moment (field-independent basis, Debye-Ang):
   XX=             -4.4128   YY=             -6.2765   ZZ=             -7.5845
   XY=             -0.0224   XZ=              0.0000   YZ=              0.0000

 1\1\GINC-NODE23\SP\RB2PLYPD3-FC\def2QZVP\H2O1\BOITTIER\26-Aug-2020\0\\
 #p B2PLYPD3/Def2QZVP\\h2o\\0,1\O,0,-5.326605,-0.764963,0.924048\H,0,-4
 .368927,-0.698524,0.894765\H,0,-5.609308,0.121976,0.726108\\Version=ES
 64L-G09RevD.01\State=1-A'\HF=-76.3350322\MP2=-76.4249902\RMSD=4.297e-0
 9\PG=CS [SG(H2O1)]\\@

 LOGIC IS A SYSTEMATIC METHOD OF COMING TO THE

 Normal termination of Gaussian 09 at Wed Aug 26 08:31:05 2020.
