 Gaussian 09, Revision D.01,
 Gaussian 09:  ES64L-G09RevD.01 24-Apr-2013

 --------------------
 #p B2PLYPD3/Def2QZVP
 --------------------

 ---
 h2o
 ---
 Symbolic Z-matrix:
 Charge =  0 Multiplicity = 1

                         Standard orientation:
 ---------------------------------------------------------------------
 Center     Atomic      Atomic             Coordinates (Angstroms)
 Number     Number       Type             X           Y           Z
 ---------------------------------------------------------------------
      1          8           0        0.000000    0.120668    0.000000
      2          1           0        0.705456   -0.546402    0.000000
      3          1           0       -0.705456   -0.418945    0.000000
 ---------------------------------------------------------------------

 SCF Done:  E(RB2PLYPD3) =  -76.3289198593     A.U. after   10 cycles
 E2(B2PLYPD3) =    -0.8922691701D-01 E(B2PLYPD3) =    -0.76418146776344D+02

 The electronic state is 1-A'.
 Alpha  occ. eigenvalues --  -19.72822  -1.17715  -0.61548  -0.48884  -0.40361
 Alpha virt. eigenvalues --    0.04642   0.10590   0.27347   0.30320   0.30812
 Alpha virt. eigenvalues --    0.37984   0.45131   0.49690   0.57346   0.60924
 Alpha virt. eigenvalues --    0.64898   0.81856   0.94616   0.95458   1.04425

 Mulliken charges:
               1
     1  O   -0.402115
     2  H    0.222907
     3  H    0.179208
 Sum of Mulliken charges =   0.00000

 Dipole moment (field-independent basis, Debye):
    X=             -0.0469    Y=             -2.0222    Z=              0.0000  Tot=              2.0227
 Quadrupole moment (field-independent basis, Debye-Ang):
   XX=             -4.6329   YY=             -6.1333   ZZ=             -7.5155
   XY=             -0.1882   XZ=              0.0000   YZ=              0.0000

 1\1\GINC-NODE06\SP\RB2PLYPD3-FC\def2QZVP\H2O1\BOITTIER\26-Aug-2020\0\\
 #p B2PLYPD3/Def2QZVP\\h2o\\0,1\O,0,-5.326605,-0.764978,0.928122\H,0,-4
 .368927,-0.61977,0.861654\H,0,-5.609308,0.043454,0.692819\\Version=ES6
 4L-G09RevD.01\State=1-A'\HF=-76.3289199\MP2=-76.4181468\RMSD=6.672e-09
 \PG=CS [SG(H2O1)]\\@

 KNOWLEDGE IS OF TWO KINDS:  WE KNOW A SUBJECT OURSELVES OR WE KNOW

 Normal termination of Gaussian 09 at Wed Aug 26 08:47:00 2020.
