 Gaussian 09, Revision D.01,
 Gaussian 09:  ES64L-G09RevD.01 24-Apr-2013

 --------------------
 #p B2PLYPD3/Def2QZVP
 --------------------

 ---
 h2o
 ---
 Symbolic Z-matrix:
 Charge =  0 Multiplicity = 1

                         Standard orientation:
 ---------------------------------------------------------------------
 Center     Atomic      Atomic             Coordinates (Angstroms)
 Number     Number       Type             X           Y           Z
 ---------------------------------------------------------------------
      1          8           0        0.000000    0.120920    0.000000
      2          1           0        0.755178   -0.473126    0.000000
      3          1           0       -0.755178   -0.494234    0.000000
 ---------------------------------------------------------------------

 SCF Done:  E(RB2PLYPD3) =  -76.3344780189     A.U. after   10 cycles
 E2(B2PLYPD3) =    -0.9034586551D-01 E(B2PLYPD3) =    -0.76424823884387D+02

 The electronic state is 1-A'.
 Alpha  occ. eigenvalues --  -19.73351  -1.15417  -0.60510  -0.47729  -0.39943
 Alpha virt. eigenvalues --    0.04399   0.10160   0.27606   0.30426   0.30611
 Alpha virt. eigenvalues --    0.35843   0.43745   0.49824   0.56454   0.61526
 Alpha virt. eigenvalues --    0.65891   0.81048   0.93787   0.96080   1.02820

 Mulliken charges:
               1
     1  O   -0.445291
     2  H    0.219880
     3  H    0.225412
 Sum of Mulliken charges =   0.00000

 Dipole moment (field-independent basis, Debye):
    X=              0.0070    Y=             -1.9980    Z=              0.0000  Tot=              1.9980
 Quadrupole moment (field-independent basis, Debye-Ang):
   XX=             -4.4067   YY=             -6.2706   ZZ=             -7.6095
   XY=              0.0338   XZ=              0.0000   YZ=              0.0000

 1\1\GINC-NODE21\SP\RB2PLYPD3-FC\def2QZVP\H2O1\BOITTIER\26-Aug-2020\0\\
 #p B2PLYPD3/Def2QZVP\\h2o\\0,1\O,0,-5.326605,-0.765623,0.926658\H,0,-4
 .368927,-0.704843,0.878251\H,0,-5.609308,0.138857,0.701484\\Version=ES
 64L-G09RevD.01\State=1-A'\HF=-76.334478\MP2=-76.4248239\RMSD=4.257e-09
 \PG=CS [SG(H2O1)]\\@

 Everything starts as somebody's daydream.

 Normal termination of Gaussian 09 at Wed Aug 26 12:33:12 2020.
