 Gaussian 09, Revision D.01,
 Gaussian 09:  ES64L-G09RevD.01 24-Apr-2013

 --------------------
 #p B2PLYPD3/Def2QZVP
 --------------------

 ---
 h2o
 ---
 Symbolic Z-matrix:
 Charge =  0 Multiplicity = 1

                         Standard orientation:
 ---------------------------------------------------------------------
 Center     Atomic      Atomic             Coordinates (Angstroms)
 Number     Number       Type             X           Y           Z
 ---------------------------------------------------------------------
      1          8           0        0.000000    0.115161    0.000000
      2          1           0        0.766145   -0.460303    0.000000
      3          1           0       -0.766145   -0.460986    0.000000
 ---------------------------------------------------------------------

 SCF Done:  E(RB2PLYPD3) =  -76.3351447795     A.U. after   10 cycles
 E2(B2PLYPD3) =    -0.8994116237D-01 E(B2PLYPD3) =    -0.76425085941902D+02

 The electronic state is 1-A'.
 Alpha  occ. eigenvalues --  -19.73064  -1.15586  -0.61565  -0.47184  -0.39932
 Alpha virt. eigenvalues --    0.04568   0.10185   0.27488   0.30416   0.31143
 Alpha virt. eigenvalues --    0.35669   0.43975   0.50549   0.56040   0.62633
 Alpha virt. eigenvalues --    0.65592   0.81067   0.93705   0.95962   1.04210

 Mulliken charges:
               1
     1  O   -0.446175
     2  H    0.222995
     3  H    0.223180
 Sum of Mulliken charges =   0.00000

 Dipole moment (field-independent basis, Debye):
    X=              0.0002    Y=             -1.9375    Z=              0.0000  Tot=              1.9375
 Quadrupole moment (field-independent basis, Debye-Ang):
   XX=             -4.2738   YY=             -6.3699   ZZ=             -7.5956
   XY=              0.0011   XZ=              0.0000   YZ=              0.0000

 1\1\GINC-NODE12\SP\RB2PLYPD3-FC\def2QZVP\H2O1\BOITTIER\26-Aug-2020\0\\
 #p B2PLYPD3/Def2QZVP\\h2o\\0,1\O,0,-5.326605,-0.76352,0.917121\H,0,-4.
 368927,-0.743271,0.94122\H,0,-5.609308,0.143629,0.790297\\Version=ES64
 L-G09RevD.01\State=1-A'\HF=-76.3351448\MP2=-76.4250859\RMSD=3.930e-09\
 PG=CS [SG(H2O1)]\\@

 HERE WE GO......

 Normal termination of Gaussian 09 at Wed Aug 26 10:31:55 2020.
