 Gaussian 09, Revision D.01,
 Gaussian 09:  ES64L-G09RevD.01 24-Apr-2013

 --------------------
 #p B2PLYPD3/Def2QZVP
 --------------------

 ---
 h2o
 ---
 Symbolic Z-matrix:
 Charge =  0 Multiplicity = 1

                         Standard orientation:
 ---------------------------------------------------------------------
 Center     Atomic      Atomic             Coordinates (Angstroms)
 Number     Number       Type             X           Y           Z
 ---------------------------------------------------------------------
      1          8           0        0.000000    0.113665    0.000000
      2          1           0        0.764298   -0.463541    0.000000
      3          1           0       -0.764298   -0.445782    0.000000
 ---------------------------------------------------------------------

 SCF Done:  E(RB2PLYPD3) =  -76.3352009107     A.U. after   10 cycles
 E2(B2PLYPD3) =    -0.8973301316D-01 E(B2PLYPD3) =    -0.76424933923902D+02

 The electronic state is 1-A'.
 Alpha  occ. eigenvalues --  -19.72944  -1.15828  -0.61949  -0.47152  -0.39969
 Alpha virt. eigenvalues --    0.04643   0.10230   0.27441   0.30402   0.31307
 Alpha virt. eigenvalues --    0.35829   0.44145   0.50719   0.56024   0.62861
 Alpha virt. eigenvalues --    0.65430   0.81180   0.93819   0.95859   1.04755

 Mulliken charges:
               1
     1  O   -0.442543
     2  H    0.223748
     3  H    0.218795
 Sum of Mulliken charges =   0.00000

 Dipole moment (field-independent basis, Debye):
    X=             -0.0051    Y=             -1.9242    Z=              0.0000  Tot=              1.9242
 Quadrupole moment (field-independent basis, Debye-Ang):
   XX=             -4.2625   YY=             -6.3828   ZZ=             -7.5831
   XY=             -0.0300   XZ=              0.0000   YZ=              0.0000

 1\1\GINC-NODE20\SP\RB2PLYPD3-FC\def2QZVP\H2O1\BOITTIER\26-Aug-2020\0\\
 #p B2PLYPD3/Def2QZVP\\h2o\\0,1\O,0,-5.326605,-0.762097,0.919891\H,0,-4
 .368927,-0.752956,0.910486\H,0,-5.609308,0.130544,0.777047\\Version=ES
 64L-G09RevD.01\State=1-A'\HF=-76.3352009\MP2=-76.4249339\RMSD=4.024e-0
 9\PG=CS [SG(H2O1)]\\@

 THERE IS AN OLD, OLD RECIPE IN MAINE FOR STEWING COOT. PLACE THE

 Normal termination of Gaussian 09 at Wed Aug 26 08:30:20 2020.
