 Gaussian 09, Revision D.01,
 Gaussian 09:  ES64L-G09RevD.01 24-Apr-2013

 --------------------
 #p B2PLYPD3/Def2QZVP
 --------------------

 ---
 h2o
 ---
 Symbolic Z-matrix:
 Charge =  0 Multiplicity = 1

                         Standard orientation:
 ---------------------------------------------------------------------
 Center     Atomic      Atomic             Coordinates (Angstroms)
 Number     Number       Type             X           Y           Z
 ---------------------------------------------------------------------
      1          8           0        0.000000    0.114564    0.000000
      2          1           0        0.782591   -0.437721    0.000000
      3          1           0       -0.782591   -0.478791    0.000000
 ---------------------------------------------------------------------

 SCF Done:  E(RB2PLYPD3) =  -76.3340856074     A.U. after   10 cycles
 E2(B2PLYPD3) =    -0.9028120498D-01 E(B2PLYPD3) =    -0.76424366812364D+02

 The electronic state is 1-A'.
 Alpha  occ. eigenvalues --  -19.73179  -1.14960  -0.61293  -0.46752  -0.39797
 Alpha virt. eigenvalues --    0.04451   0.10052   0.27529   0.30450   0.31021
 Alpha virt. eigenvalues --    0.34940   0.43660   0.50757   0.55672   0.62986
 Alpha virt. eigenvalues --    0.65844   0.80614   0.93186   0.96248   1.03557

 Mulliken charges:
               1
     1  O   -0.458215
     2  H    0.223964
     3  H    0.234251
 Sum of Mulliken charges =   0.00000

 Dipole moment (field-independent basis, Debye):
    X=              0.0115    Y=             -1.9218    Z=              0.0000  Tot=              1.9218
 Quadrupole moment (field-independent basis, Debye-Ang):
   XX=             -4.1841   YY=             -6.4189   ZZ=             -7.6249
   XY=              0.0709   XZ=              0.0000   YZ=              0.0000

 1\1\GINC-NODE09\SP\RB2PLYPD3-FC\def2QZVP\H2O1\BOITTIER\26-Aug-2020\0\\
 #p B2PLYPD3/Def2QZVP\\h2o\\0,1\O,0,-5.326605,-0.762986,0.918159\H,0,-4
 .368927,-0.776341,0.930036\H,0,-5.609308,0.168165,0.785665\\Version=ES
 64L-G09RevD.01\State=1-A'\HF=-76.3340856\MP2=-76.4243668\RMSD=4.136e-0
 9\PG=CS [SG(H2O1)]\\@

 CHEMISTRY BEGAN BY SAYING IT WOULD CHANGE THE BASER

 Normal termination of Gaussian 09 at Wed Aug 26 11:31:41 2020.
