 Gaussian 09, Revision D.01,
 Gaussian 09:  ES64L-G09RevD.01 24-Apr-2013

 --------------------
 #p B2PLYPD3/Def2QZVP
 --------------------

 ---
 h2o
 ---
 Symbolic Z-matrix:
 Charge =  0 Multiplicity = 1

                         Standard orientation:
 ---------------------------------------------------------------------
 Center     Atomic      Atomic             Coordinates (Angstroms)
 Number     Number       Type             X           Y           Z
 ---------------------------------------------------------------------
      1          8           0        0.000000    0.111740    0.000000
      2          1           0        0.773826   -0.454577    0.000000
      3          1           0       -0.773826   -0.439339    0.000000
 ---------------------------------------------------------------------

 SCF Done:  E(RB2PLYPD3) =  -76.3350301471     A.U. after   10 cycles
 E2(B2PLYPD3) =    -0.8975819637D-01 E(B2PLYPD3) =    -0.76424788343459D+02

 The electronic state is 1-A'.
 Alpha  occ. eigenvalues --  -19.72908  -1.15619  -0.62145  -0.46823  -0.39912
 Alpha virt. eigenvalues --    0.04648   0.10183   0.27429   0.30412   0.31434
 Alpha virt. eigenvalues --    0.35456   0.44078   0.51045   0.55762   0.63338
 Alpha virt. eigenvalues --    0.65450   0.80989   0.93643   0.95962   1.04984

 Mulliken charges:
               1
     1  O   -0.447864
     2  H    0.226009
     3  H    0.221855
 Sum of Mulliken charges =   0.00000

 Dipole moment (field-independent basis, Debye):
    X=             -0.0041    Y=             -1.8998    Z=              0.0000  Tot=              1.8998
 Quadrupole moment (field-independent basis, Debye-Ang):
   XX=             -4.1896   YY=             -6.4309   ZZ=             -7.5909
   XY=             -0.0263   XZ=              0.0000   YZ=              0.0000

 1\1\GINC-NODE35\SP\RB2PLYPD3-FC\def2QZVP\H2O1\BOITTIER\26-Aug-2020\0\\
 #p B2PLYPD3/Def2QZVP\\h2o\\0,1\O,0,-5.326605,-0.761438,0.913168\H,0,-4
 .368927,-0.77506,0.959958\H,0,-5.609308,0.142112,0.834609\\Version=ES6
 4L-G09RevD.01\State=1-A'\HF=-76.3350301\MP2=-76.4247883\RMSD=3.876e-09
 \PG=CS [SG(H2O1)]\\@

 THE RARE EARTHS PERPLEX US IN OUR RESEARCHES,

 Normal termination of Gaussian 09 at Wed Aug 26 08:10:10 2020.
