 Gaussian 09, Revision D.01,
 Gaussian 09:  ES64L-G09RevD.01 24-Apr-2013

 --------------------
 #p B2PLYPD3/Def2QZVP
 --------------------

 ---
 h2o
 ---
 Symbolic Z-matrix:
 Charge =  0 Multiplicity = 1

                         Standard orientation:
 ---------------------------------------------------------------------
 Center     Atomic      Atomic             Coordinates (Angstroms)
 Number     Number       Type             X           Y           Z
 ---------------------------------------------------------------------
      1          8           0        0.000000    0.119798    0.000000
      2          1           0        0.778614   -0.438359    0.000000
      3          1           0       -0.778614   -0.520024    0.000000
 ---------------------------------------------------------------------

 SCF Done:  E(RB2PLYPD3) =  -76.3322298051     A.U. after   10 cycles
 E2(B2PLYPD3) =    -0.9078693544D-01 E(B2PLYPD3) =    -0.76423016740496D+02

 The electronic state is 1-A'.
 Alpha  occ. eigenvalues --  -19.73484  -1.14598  -0.60249  -0.47076  -0.39762
 Alpha virt. eigenvalues --    0.04232   0.09971   0.27647   0.30343   0.30469
 Alpha virt. eigenvalues --    0.34909   0.43382   0.50089   0.55885   0.62086
 Alpha virt. eigenvalues --    0.66188   0.80485   0.92832   0.96428   1.01996

 Mulliken charges:
               1
     1  O   -0.460028
     2  H    0.220357
     3  H    0.239671
 Sum of Mulliken charges =   0.00000

 Dipole moment (field-independent basis, Debye):
    X=              0.0252    Y=             -1.9730    Z=              0.0000  Tot=              1.9731
 Quadrupole moment (field-independent basis, Debye-Ang):
   XX=             -4.2759   YY=             -6.3405   ZZ=             -7.6481
   XY=              0.1364   XZ=              0.0000   YZ=              0.0000

 1\1\GINC-NODE35\SP\RB2PLYPD3-FC\def2QZVP\H2O1\BOITTIER\26-Aug-2020\0\\
 #p B2PLYPD3/Def2QZVP\\h2o\\0,1\O,0,-5.326605,-0.766173,0.920866\H,0,-4
 .368927,-0.742111,0.928043\H,0,-5.609308,0.184927,0.744518\\Version=ES
 64L-G09RevD.01\State=1-A'\HF=-76.3322298\MP2=-76.4230167\RMSD=4.920e-0
 9\PG=CS [SG(H2O1)]\\@

 TO ERR IS HUMAN - AND TO BLAME IT ON A COMPUTER IS EVEN MORE SO.

 Normal termination of Gaussian 09 at Wed Aug 26 10:50:23 2020.
