 Gaussian 09, Revision D.01,
 Gaussian 09:  ES64L-G09RevD.01 24-Apr-2013

 --------------------
 #p B2PLYPD3/Def2QZVP
 --------------------

 ---
 h2o
 ---
 Symbolic Z-matrix:
 Charge =  0 Multiplicity = 1

                         Standard orientation:
 ---------------------------------------------------------------------
 Center     Atomic      Atomic             Coordinates (Angstroms)
 Number     Number       Type             X           Y           Z
 ---------------------------------------------------------------------
      1          8           0        0.000000    0.114269    0.000000
      2          1           0        0.737835   -0.499463    0.000000
      3          1           0       -0.737835   -0.414692    0.000000
 ---------------------------------------------------------------------

 SCF Done:  E(RB2PLYPD3) =  -76.3331160449     A.U. after   10 cycles
 E2(B2PLYPD3) =    -0.8919034559D-01 E(B2PLYPD3) =    -0.76422306390482D+02

 The electronic state is 1-A'.
 Alpha  occ. eigenvalues --  -19.72711  -1.16963  -0.62435  -0.47798  -0.40191
 Alpha virt. eigenvalues --    0.04772   0.10439   0.27331   0.30346   0.31325
 Alpha virt. eigenvalues --    0.37037   0.44793   0.50473   0.56541   0.62382
 Alpha virt. eigenvalues --    0.64980   0.81740   0.94291   0.95487   1.05169

 Mulliken charges:
               1
     1  O   -0.419533
     2  H    0.223256
     3  H    0.196276
 Sum of Mulliken charges =   0.00000

 Dipole moment (field-independent basis, Debye):
    X=             -0.0265    Y=             -1.9447    Z=              0.0000  Tot=              1.9448
 Quadrupole moment (field-independent basis, Debye-Ang):
   XX=             -4.3972   YY=             -6.3005   ZZ=             -7.5352
   XY=             -0.1369   XZ=              0.0000   YZ=              0.0000

 1\1\GINC-NODE29\SP\RB2PLYPD3-FC\def2QZVP\H2O1\BOITTIER\26-Aug-2020\0\\
 #p B2PLYPD3/Def2QZVP\\h2o\\0,1\O,0,-5.326605,-0.762051,0.922285\H,0,-4
 .368927,-0.707988,0.890707\H,0,-5.609308,0.084845,0.757829\\Version=ES
 64L-G09RevD.01\State=1-A'\HF=-76.333116\MP2=-76.4223064\RMSD=5.723e-09
 \PG=CS [SG(H2O1)]\\@

 ... I FELL INTO A REVERIE ... THE ATOMS WERE GAMBOLING BEFORE MY EYES

 Normal termination of Gaussian 09 at Wed Aug 26 12:21:10 2020.
