 Gaussian 09, Revision D.01,
 Gaussian 09:  ES64L-G09RevD.01 24-Apr-2013

 --------------------
 #p B2PLYPD3/Def2QZVP
 --------------------

 ---
 h2o
 ---
 Symbolic Z-matrix:
 Charge =  0 Multiplicity = 1

                         Standard orientation:
 ---------------------------------------------------------------------
 Center     Atomic      Atomic             Coordinates (Angstroms)
 Number     Number       Type             X           Y           Z
 ---------------------------------------------------------------------
      1          8           0        0.000000    0.115565    0.000000
      2          1           0        0.772777   -0.450225    0.000000
      3          1           0       -0.772777   -0.474299    0.000000
 ---------------------------------------------------------------------

 SCF Done:  E(RB2PLYPD3) =  -76.3347209170     A.U. after   10 cycles
 E2(B2PLYPD3) =    -0.9014810925D-01 E(B2PLYPD3) =    -0.76424869026219D+02

 The electronic state is 1-A'.
 Alpha  occ. eigenvalues --  -19.73154  -1.15263  -0.61314  -0.47042  -0.39869
 Alpha virt. eigenvalues --    0.04496   0.10119   0.27522   0.30433   0.31028
 Alpha virt. eigenvalues --    0.35340   0.43795   0.50550   0.55914   0.62667
 Alpha virt. eigenvalues --    0.65747   0.80866   0.93466   0.96106   1.03746

 Mulliken charges:
               1
     1  O   -0.451856
     2  H    0.222802
     3  H    0.229054
 Sum of Mulliken charges =   0.00000

 Dipole moment (field-independent basis, Debye):
    X=              0.0070    Y=             -1.9374    Z=              0.0000  Tot=              1.9374
 Quadrupole moment (field-independent basis, Debye-Ang):
   XX=             -4.2466   YY=             -6.3819   ZZ=             -7.6111
   XY=              0.0407   XZ=              0.0000   YZ=              0.0000

 1\1\GINC-NODE13\SP\RB2PLYPD3-FC\def2QZVP\H2O1\BOITTIER\26-Aug-2020\0\\
 #p B2PLYPD3/Def2QZVP\\h2o\\0,1\O,0,-5.326605,-0.763254,0.920874\H,0,-4
 .368927,-0.757186,0.909953\H,0,-5.609308,0.153292,0.762294\\Version=ES
 64L-G09RevD.01\State=1-A'\HF=-76.3347209\MP2=-76.424869\RMSD=3.987e-09
 \PG=CS [SG(H2O1)]\\@

 CHILDREN YOU ARE VERY LITTLE,

 Normal termination of Gaussian 09 at Wed Aug 26 08:57:00 2020.
