 Gaussian 09, Revision D.01,
 Gaussian 09:  ES64L-G09RevD.01 24-Apr-2013

 --------------------
 #p B2PLYPD3/Def2QZVP
 --------------------

 ---
 h2o
 ---
 Symbolic Z-matrix:
 Charge =  0 Multiplicity = 1

                         Standard orientation:
 ---------------------------------------------------------------------
 Center     Atomic      Atomic             Coordinates (Angstroms)
 Number     Number       Type             X           Y           Z
 ---------------------------------------------------------------------
      1          8           0        0.000000    0.117289    0.000000
      2          1           0        0.778332   -0.452600    0.000000
      3          1           0       -0.778332   -0.485709    0.000000
 ---------------------------------------------------------------------

 SCF Done:  E(RB2PLYPD3) =  -76.3339245700     A.U. after   10 cycles
 E2(B2PLYPD3) =    -0.9047846220D-01 E(B2PLYPD3) =    -0.76424403032209D+02

 The electronic state is 1-A'.
 Alpha  occ. eigenvalues --  -19.73321  -1.14853  -0.60801  -0.46991  -0.39799
 Alpha virt. eigenvalues --    0.04374   0.10032   0.27587   0.30456   0.30774
 Alpha virt. eigenvalues --    0.35000   0.43539   0.50380   0.55852   0.62462
 Alpha virt. eigenvalues --    0.65995   0.80633   0.93182   0.96277   1.02956

 Mulliken charges:
               1
     1  O   -0.457979
     2  H    0.224916
     3  H    0.233063
 Sum of Mulliken charges =   0.00000

 Dipole moment (field-independent basis, Debye):
    X=              0.0098    Y=             -1.9503    Z=              0.0000  Tot=              1.9503
 Quadrupole moment (field-independent basis, Debye-Ang):
   XX=             -4.2428   YY=             -6.3749   ZZ=             -7.6322
   XY=              0.0560   XZ=              0.0000   YZ=              0.0000

 1\1\GINC-NODE35\SP\RB2PLYPD3-FC\def2QZVP\H2O1\BOITTIER\26-Aug-2020\0\\
 #p B2PLYPD3/Def2QZVP\\h2o\\0,1\O,0,-5.326605,-0.765189,0.908144\H,0,-4
 .368927,-0.749168,1.022903\H,0,-5.609308,0.176232,0.851473\\Version=ES
 64L-G09RevD.01\State=1-A'\HF=-76.3339246\MP2=-76.424403\RMSD=4.048e-09
 \PG=CS [SG(H2O1)]\\@

 NEVER LOSE YOUR IGNORANCE, IT CAN'T BE REPLACED.

 Normal termination of Gaussian 09 at Wed Aug 26 07:34:11 2020.
