 Gaussian 09, Revision D.01,
 Gaussian 09:  ES64L-G09RevD.01 24-Apr-2013

 --------------------
 #p B2PLYPD3/Def2QZVP
 --------------------

 ---
 h2o
 ---
 Symbolic Z-matrix:
 Charge =  0 Multiplicity = 1

                         Standard orientation:
 ---------------------------------------------------------------------
 Center     Atomic      Atomic             Coordinates (Angstroms)
 Number     Number       Type             X           Y           Z
 ---------------------------------------------------------------------
      1          8           0        0.000000    0.117578    0.000000
      2          1           0        0.774485   -0.446408    0.000000
      3          1           0       -0.774485   -0.494212    0.000000
 ---------------------------------------------------------------------

 SCF Done:  E(RB2PLYPD3) =  -76.3339340916     A.U. after   10 cycles
 E2(B2PLYPD3) =    -0.9042020753D-01 E(B2PLYPD3) =    -0.76424354299148D+02

 The electronic state is 1-A'.
 Alpha  occ. eigenvalues --  -19.73303  -1.14985  -0.60828  -0.47091  -0.39827
 Alpha virt. eigenvalues --    0.04387   0.10060   0.27580   0.30449   0.30749
 Alpha virt. eigenvalues --    0.35172   0.43609   0.50320   0.55932   0.62365
 Alpha virt. eigenvalues --    0.65944   0.80722   0.93250   0.96238   1.02949

 Mulliken charges:
               1
     1  O   -0.455270
     2  H    0.221662
     3  H    0.233608
 Sum of Mulliken charges =   0.00000

 Dipole moment (field-independent basis, Debye):
    X=              0.0144    Y=             -1.9552    Z=              0.0000  Tot=              1.9553
 Quadrupole moment (field-independent basis, Debye-Ang):
   XX=             -4.2658   YY=             -6.3605   ZZ=             -7.6266
   XY=              0.0803   XZ=              0.0000   YZ=              0.0000

 1\1\GINC-NODE17\SP\RB2PLYPD3-FC\def2QZVP\H2O1\BOITTIER\26-Aug-2020\0\\
 #p B2PLYPD3/Def2QZVP\\h2o\\0,1\O,0,-5.326605,-0.764984,0.918733\H,0,-4
 .368927,-0.744869,0.93758\H,0,-5.609308,0.168651,0.76867\\Version=ES64
 L-G09RevD.01\State=1-A'\HF=-76.3339341\MP2=-76.4243543\RMSD=4.320e-09\
 PG=CS [SG(H2O1)]\\@

 IT IS BY LOGIC THAT WE PROVE, BUT BY INTUITION THAT WE DISCOVER.

 Normal termination of Gaussian 09 at Wed Aug 26 11:31:17 2020.
