 Gaussian 09, Revision D.01,
 Gaussian 09:  ES64L-G09RevD.01 24-Apr-2013

 --------------------
 #p B2PLYPD3/Def2QZVP
 --------------------

 ---
 h2o
 ---
 Symbolic Z-matrix:
 Charge =  0 Multiplicity = 1

                         Standard orientation:
 ---------------------------------------------------------------------
 Center     Atomic      Atomic             Coordinates (Angstroms)
 Number     Number       Type             X           Y           Z
 ---------------------------------------------------------------------
      1          8           0        0.000000    0.121318    0.000000
      2          1           0        0.809824   -0.393917    0.000000
      3          1           0       -0.809824   -0.576630    0.000000
 ---------------------------------------------------------------------

 SCF Done:  E(RB2PLYPD3) =  -76.3237302545     A.U. after   10 cycles
 E2(B2PLYPD3) =    -0.9180471001D-01 E(B2PLYPD3) =    -0.76415534964521D+02

 The electronic state is 1-A'.
 Alpha  occ. eigenvalues --  -19.73824  -1.13314  -0.59219  -0.46288  -0.39485
 Alpha virt. eigenvalues --    0.03716   0.09638   0.27692   0.29110   0.30540
 Alpha virt. eigenvalues --    0.33934   0.42788   0.50166   0.55124   0.62409
 Alpha virt. eigenvalues --    0.66765   0.79331   0.90749   0.96898   1.00416

 Mulliken charges:
               1
     1  O   -0.479605
     2  H    0.221837
     3  H    0.257769
 Sum of Mulliken charges =   0.00000

 Dipole moment (field-independent basis, Debye):
    X=              0.0531    Y=             -1.9647    Z=              0.0000  Tot=              1.9654
 Quadrupole moment (field-independent basis, Debye-Ang):
   XX=             -4.1385   YY=             -6.3814   ZZ=             -7.7195
   XY=              0.3172   XZ=              0.0000   YZ=              0.0000

 1\1\GINC-NODE40\SP\RB2PLYPD3-FC\def2QZVP\H2O1\BOITTIER\26-Aug-2020\0\\
 #p B2PLYPD3/Def2QZVP\\h2o\\0,1\O,0,-5.326605,-0.767828,0.915912\H,0,-4
 .368927,-0.784139,0.97812\H,0,-5.609308,0.253428,0.774268\\Version=ES6
 4L-G09RevD.01\State=1-A'\HF=-76.3237303\MP2=-76.415535\RMSD=7.277e-09\
 PG=CS [SG(H2O1)]\\@

 YOU KNOW YOU'VE SPOKEN TOO LONG WHEN THE AUDIENCE STOPS LOOKING AT

 Normal termination of Gaussian 09 at Wed Aug 26 08:58:42 2020.
