 Gaussian 09, Revision D.01,
 Gaussian 09:  ES64L-G09RevD.01 24-Apr-2013

 --------------------
 #p B2PLYPD3/Def2QZVP
 --------------------

 ---
 h2o
 ---
 Symbolic Z-matrix:
 Charge =  0 Multiplicity = 1

                         Standard orientation:
 ---------------------------------------------------------------------
 Center     Atomic      Atomic             Coordinates (Angstroms)
 Number     Number       Type             X           Y           Z
 ---------------------------------------------------------------------
      1          8           0        0.000000    0.114900    0.000000
      2          1           0        0.761286   -0.467148    0.000000
      3          1           0       -0.761286   -0.452053    0.000000
 ---------------------------------------------------------------------

 SCF Done:  E(RB2PLYPD3) =  -76.3352268507     A.U. after   10 cycles
 E2(B2PLYPD3) =    -0.8979598159D-01 E(B2PLYPD3) =    -0.76425022832275D+02

 The electronic state is 1-A'.
 Alpha  occ. eigenvalues --  -19.72999  -1.15824  -0.61741  -0.47288  -0.39978
 Alpha virt. eigenvalues --    0.04615   0.10233   0.27461   0.30403   0.31205
 Alpha virt. eigenvalues --    0.35913   0.44111   0.50545   0.56130   0.62604
 Alpha virt. eigenvalues --    0.65480   0.81204   0.93854   0.95861   1.04488

 Mulliken charges:
               1
     1  O   -0.441848
     2  H    0.223025
     3  H    0.218823
 Sum of Mulliken charges =   0.00000

 Dipole moment (field-independent basis, Debye):
    X=             -0.0045    Y=             -1.9378    Z=              0.0000  Tot=              1.9378
 Quadrupole moment (field-independent basis, Debye-Ang):
   XX=             -4.2939   YY=             -6.3601   ZZ=             -7.5845
   XY=             -0.0252   XZ=              0.0000   YZ=              0.0000

 1\1\GINC-NODE25\SP\RB2PLYPD3-FC\def2QZVP\H2O1\BOITTIER\26-Aug-2020\0\\
 #p B2PLYPD3/Def2QZVP\\h2o\\0,1\O,0,-5.326605,-0.763326,0.917231\H,0,-4
 .368927,-0.736641,0.939067\H,0,-5.609308,0.133901,0.790522\\Version=ES
 64L-G09RevD.01\State=1-A'\HF=-76.3352269\MP2=-76.4250228\RMSD=4.051e-0
 9\PG=CS [SG(H2O1)]\\@

 IT IS UNWORTHY OF EXCELLENT MEN TO LOSE HOURS LIKE SLAVES IN THE LABOR

 Normal termination of Gaussian 09 at Wed Aug 26 08:30:59 2020.
