 Gaussian 09, Revision D.01,
 Gaussian 09:  ES64L-G09RevD.01 24-Apr-2013

 --------------------
 #p B2PLYPD3/Def2QZVP
 --------------------

 ---
 h2o
 ---
 Symbolic Z-matrix:
 Charge =  0 Multiplicity = 1

                         Standard orientation:
 ---------------------------------------------------------------------
 Center     Atomic      Atomic             Coordinates (Angstroms)
 Number     Number       Type             X           Y           Z
 ---------------------------------------------------------------------
      1          8           0        0.000000    0.112689    0.000000
      2          1           0        0.765874   -0.464117    0.000000
      3          1           0       -0.765874   -0.437391    0.000000
 ---------------------------------------------------------------------

 SCF Done:  E(RB2PLYPD3) =  -76.3351045726     A.U. after   10 cycles
 E2(B2PLYPD3) =    -0.8966651045D-01 E(B2PLYPD3) =    -0.76424771083089D+02

 The electronic state is 1-A'.
 Alpha  occ. eigenvalues --  -19.72893  -1.15866  -0.62133  -0.47061  -0.39969
 Alpha virt. eigenvalues --    0.04669   0.10234   0.27421   0.30400   0.31387
 Alpha virt. eigenvalues --    0.35798   0.44192   0.50855   0.55954   0.63055
 Alpha virt. eigenvalues --    0.65376   0.81176   0.93807   0.95849   1.04962

 Mulliken charges:
               1
     1  O   -0.442396
     2  H    0.224946
     3  H    0.217450
 Sum of Mulliken charges =   0.00000

 Dipole moment (field-independent basis, Debye):
    X=             -0.0076    Y=             -1.9137    Z=              0.0000  Tot=              1.9137
 Quadrupole moment (field-independent basis, Debye-Ang):
   XX=             -4.2416   YY=             -6.3983   ZZ=             -7.5805
   XY=             -0.0454   XZ=              0.0000   YZ=              0.0000

 1\1\GINC-NODE15\SP\RB2PLYPD3-FC\def2QZVP\H2O1\BOITTIER\26-Aug-2020\0\\
 #p B2PLYPD3/Def2QZVP\\h2o\\0,1\O,0,-5.326605,-0.762075,0.913717\H,0,-4
 .368927,-0.755976,0.959362\H,0,-5.609308,0.133228,0.826181\\Version=ES
 64L-G09RevD.01\State=1-A'\HF=-76.3351046\MP2=-76.4247711\RMSD=4.103e-0
 9\PG=CS [SG(H2O1)]\\@

 THE MOST INCOMPREHENSIBLE THING ABOUT THE WORLD

 Normal termination of Gaussian 09 at Wed Aug 26 12:46:40 2020.
