 Gaussian 09, Revision D.01,
 Gaussian 09:  ES64L-G09RevD.01 24-Apr-2013

 --------------------
 #p B2PLYPD3/Def2QZVP
 --------------------

 ---
 h2o
 ---
 Symbolic Z-matrix:
 Charge =  0 Multiplicity = 1

                         Standard orientation:
 ---------------------------------------------------------------------
 Center     Atomic      Atomic             Coordinates (Angstroms)
 Number     Number       Type             X           Y           Z
 ---------------------------------------------------------------------
      1          8           0        0.000000    0.116528    0.000000
      2          1           0        0.746290   -0.486563    0.000000
      3          1           0       -0.746290   -0.445665    0.000000
 ---------------------------------------------------------------------

 SCF Done:  E(RB2PLYPD3) =  -76.3348663042     A.U. after   10 cycles
 E2(B2PLYPD3) =    -0.8962769529D-01 E(B2PLYPD3) =    -0.76424493999469D+02

 The electronic state is 1-A'.
 Alpha  occ. eigenvalues --  -19.72961  -1.16303  -0.61711  -0.47731  -0.40083
 Alpha virt. eigenvalues --    0.04646   0.10330   0.27442   0.30380   0.31131
 Alpha virt. eigenvalues --    0.36535   0.44336   0.50259   0.56487   0.62110
 Alpha virt. eigenvalues --    0.65342   0.81470   0.94182   0.95687   1.04509

 Mulliken charges:
               1
     1  O   -0.431819
     2  H    0.221921
     3  H    0.209898
 Sum of Mulliken charges =   0.00000

 Dipole moment (field-independent basis, Debye):
    X=             -0.0130    Y=             -1.9620    Z=              0.0000  Tot=              1.9620
 Quadrupole moment (field-independent basis, Debye-Ang):
   XX=             -4.3883   YY=             -6.3000   ZZ=             -7.5652
   XY=             -0.0661   XZ=              0.0000   YZ=              0.0000

 1\1\GINC-NODE30\SP\RB2PLYPD3-FC\def2QZVP\H2O1\BOITTIER\26-Aug-2020\0\\
 #p B2PLYPD3/Def2QZVP\\h2o\\0,1\O,0,-5.326605,-0.763842,0.921252\H,0,-4
 .368927,-0.705574,0.910036\H,0,-5.609308,0.111087,0.755154\\Version=ES
 64L-G09RevD.01\State=1-A'\HF=-76.3348663\MP2=-76.424494\RMSD=4.612e-09
 \PG=CS [SG(H2O1)]\\@

 WE HAVE SEEN THAT MAN ON THE AVERAGE DOES NOT LIVE ABOVE

 Normal termination of Gaussian 09 at Wed Aug 26 08:30:48 2020.
