 Gaussian 09, Revision D.01,
 Gaussian 09:  ES64L-G09RevD.01 24-Apr-2013

 --------------------
 #p B2PLYPD3/Def2QZVP
 --------------------

 ---
 h2o
 ---
 Symbolic Z-matrix:
 Charge =  0 Multiplicity = 1

                         Standard orientation:
 ---------------------------------------------------------------------
 Center     Atomic      Atomic             Coordinates (Angstroms)
 Number     Number       Type             X           Y           Z
 ---------------------------------------------------------------------
      1          8           0        0.000000    0.118394    0.000000
      2          1           0        0.748812   -0.494346    0.000000
      3          1           0       -0.748812   -0.452810    0.000000
 ---------------------------------------------------------------------

 SCF Done:  E(RB2PLYPD3) =  -76.3348008189     A.U. after   10 cycles
 E2(B2PLYPD3) =    -0.8990139059D-01 E(B2PLYPD3) =    -0.76424702209504D+02

 The electronic state is 1-A'.
 Alpha  occ. eigenvalues --  -19.73115  -1.15979  -0.61222  -0.47760  -0.40033
 Alpha virt. eigenvalues --    0.04548   0.10271   0.27505   0.30397   0.30914
 Alpha virt. eigenvalues --    0.36306   0.44116   0.50067   0.56497   0.61845
 Alpha virt. eigenvalues --    0.65549   0.81317   0.94038   0.95841   1.03803

 Mulliken charges:
               1
     1  O   -0.436751
     2  H    0.224231
     3  H    0.212520
 Sum of Mulliken charges =   0.00000

 Dipole moment (field-independent basis, Debye):
    X=             -0.0135    Y=             -1.9781    Z=              0.0000  Tot=              1.9781
 Quadrupole moment (field-independent basis, Debye-Ang):
   XX=             -4.4020   YY=             -6.2841   ZZ=             -7.5818
   XY=             -0.0667   XZ=              0.0000   YZ=              0.0000

 1\1\GINC-NODE38\SP\RB2PLYPD3-FC\def2QZVP\H2O1\BOITTIER\26-Aug-2020\0\\
 #p B2PLYPD3/Def2QZVP\\h2o\\0,1\O,0,-5.326605,-0.761394,0.933415\H,0,-4
 .368927,-0.732305,0.798597\H,0,-5.609308,0.098646,0.673794\\Version=ES
 64L-G09RevD.01\State=1-A'\HF=-76.3348008\MP2=-76.4247022\RMSD=4.563e-0
 9\PG=CS [SG(H2O1)]\\@

 FLOATING POINT NUMBERS ARE LIKE SANDPILES:

 Normal termination of Gaussian 09 at Wed Aug 26 08:38:22 2020.
