 Gaussian 09, Revision D.01,
 Gaussian 09:  ES64L-G09RevD.01 24-Apr-2013

 --------------------
 #p B2PLYPD3/Def2QZVP
 --------------------

 ---
 h2o
 ---
 Symbolic Z-matrix:
 Charge =  0 Multiplicity = 1

                         Standard orientation:
 ---------------------------------------------------------------------
 Center     Atomic      Atomic             Coordinates (Angstroms)
 Number     Number       Type             X           Y           Z
 ---------------------------------------------------------------------
      1          8           0        0.000000    0.115544    0.000000
      2          1           0        0.749824   -0.483995    0.000000
      3          1           0       -0.749824   -0.440361    0.000000
 ---------------------------------------------------------------------

 SCF Done:  E(RB2PLYPD3) =  -76.3348755058     A.U. after   10 cycles
 E2(B2PLYPD3) =    -0.8959976284D-01 E(B2PLYPD3) =    -0.76424475268622D+02

 The electronic state is 1-A'.
 Alpha  occ. eigenvalues --  -19.72928  -1.16260  -0.61860  -0.47593  -0.40067
 Alpha virt. eigenvalues --    0.04662   0.10318   0.27429   0.30382   0.31198
 Alpha virt. eigenvalues --    0.36424   0.44340   0.50393   0.56378   0.62329
 Alpha virt. eigenvalues --    0.65320   0.81441   0.94106   0.95700   1.04645

 Mulliken charges:
               1
     1  O   -0.433105
     2  H    0.222942
     3  H    0.210163
 Sum of Mulliken charges =   0.00000

 Dipole moment (field-independent basis, Debye):
    X=             -0.0135    Y=             -1.9505    Z=              0.0000  Tot=              1.9506
 Quadrupole moment (field-independent basis, Debye-Ang):
   XX=             -4.3580   YY=             -6.3210   ZZ=             -7.5661
   XY=             -0.0713   XZ=              0.0000   YZ=              0.0000

 1\1\GINC-NODE29\SP\RB2PLYPD3-FC\def2QZVP\H2O1\BOITTIER\26-Aug-2020\0\\
 #p B2PLYPD3/Def2QZVP\\h2o\\0,1\O,0,-5.326605,-0.76222,0.925302\H,0,-4.
 368927,-0.726779,0.868036\H,0,-5.609308,0.10634,0.733081\\Version=ES64
 L-G09RevD.01\State=1-A'\HF=-76.3348755\MP2=-76.4244753\RMSD=4.597e-09\
 PG=CS [SG(H2O1)]\\@

 IF YOU GET CONFUSED, LOGIC OUT YOUR DILEMMA

 Normal termination of Gaussian 09 at Wed Aug 26 11:51:23 2020.
