 Gaussian 09, Revision D.01,
 Gaussian 09:  ES64L-G09RevD.01 24-Apr-2013

 --------------------
 #p B2PLYPD3/Def2QZVP
 --------------------

 ---
 h2o
 ---
 Symbolic Z-matrix:
 Charge =  0 Multiplicity = 1

                         Standard orientation:
 ---------------------------------------------------------------------
 Center     Atomic      Atomic             Coordinates (Angstroms)
 Number     Number       Type             X           Y           Z
 ---------------------------------------------------------------------
      1          8           0        0.000000    0.118146    0.000000
      2          1           0        0.769585   -0.455279    0.000000
      3          1           0       -0.769585   -0.489886    0.000000
 ---------------------------------------------------------------------

 SCF Done:  E(RB2PLYPD3) =  -76.3343019610     A.U. after   10 cycles
 E2(B2PLYPD3) =    -0.9036415195D-01 E(B2PLYPD3) =    -0.76424666112959D+02

 The electronic state is 1-A'.
 Alpha  occ. eigenvalues --  -19.73297  -1.15124  -0.60816  -0.47242  -0.39861
 Alpha virt. eigenvalues --    0.04407   0.10092   0.27580   0.30441   0.30760
 Alpha virt. eigenvalues --    0.35358   0.43664   0.50217   0.56059   0.62193
 Alpha virt. eigenvalues --    0.65907   0.80833   0.93415   0.96175   1.03037

 Mulliken charges:
               1
     1  O   -0.452404
     2  H    0.221806
     3  H    0.230598
 Sum of Mulliken charges =   0.00000

 Dipole moment (field-independent basis, Debye):
    X=              0.0106    Y=             -1.9636    Z=              0.0000  Tot=              1.9636
 Quadrupole moment (field-independent basis, Debye-Ang):
   XX=             -4.2979   YY=             -6.3416   ZZ=             -7.6203
   XY=              0.0575   XZ=              0.0000   YZ=              0.0000

 1\1\GINC-NODE34\SP\RB2PLYPD3-FC\def2QZVP\H2O1\BOITTIER\26-Aug-2020\0\\
 #p B2PLYPD3/Def2QZVP\\h2o\\0,1\O,0,-5.326605,-0.765705,0.915592\H,0,-4
 .368927,-0.729578,0.966814\H,0,-5.609308,0.164901,0.789043\\Version=ES
 64L-G09RevD.01\State=1-A'\HF=-76.334302\MP2=-76.4246661\RMSD=4.169e-09
 \PG=CS [SG(H2O1)]\\@

 THE PROGRESS OF RIVERS TO THE SEA IS NOT AS RAPID

 Normal termination of Gaussian 09 at Wed Aug 26 08:30:16 2020.
