 Gaussian 09, Revision D.01,
 Gaussian 09:  ES64L-G09RevD.01 24-Apr-2013

 --------------------
 #p B2PLYPD3/Def2QZVP
 --------------------

 ---
 h2o
 ---
 Symbolic Z-matrix:
 Charge =  0 Multiplicity = 1

                         Standard orientation:
 ---------------------------------------------------------------------
 Center     Atomic      Atomic             Coordinates (Angstroms)
 Number     Number       Type             X           Y           Z
 ---------------------------------------------------------------------
      1          8           0        0.000000    0.117514    0.000000
      2          1           0        0.738097   -0.498154    0.000000
      3          1           0       -0.738097   -0.441956    0.000000
 ---------------------------------------------------------------------

 SCF Done:  E(RB2PLYPD3) =  -76.3343319115     A.U. after   10 cycles
 E2(B2PLYPD3) =    -0.8955430187D-01 E(B2PLYPD3) =    -0.76423886213339D+02

 The electronic state is 1-A'.
 Alpha  occ. eigenvalues --  -19.72946  -1.16557  -0.61658  -0.47976  -0.40138
 Alpha virt. eigenvalues --    0.04651   0.10380   0.27432   0.30368   0.31071
 Alpha virt. eigenvalues --    0.36855   0.44459   0.50107   0.56681   0.61830
 Alpha virt. eigenvalues --    0.65273   0.81579   0.94334   0.95617   1.04468

 Mulliken charges:
               1
     1  O   -0.426453
     2  H    0.221725
     3  H    0.204728
 Sum of Mulliken charges =   0.00000

 Dipole moment (field-independent basis, Debye):
    X=             -0.0185    Y=             -1.9758    Z=              0.0000  Tot=              1.9759
 Quadrupole moment (field-independent basis, Debye-Ang):
   XX=             -4.4405   YY=             -6.2656   ZZ=             -7.5557
   XY=             -0.0892   XZ=              0.0000   YZ=              0.0000

 1\1\GINC-NODE31\SP\RB2PLYPD3-FC\def2QZVP\H2O1\BOITTIER\26-Aug-2020\0\\
 #p B2PLYPD3/Def2QZVP\\h2o\\0,1\O,0,-5.326605,-0.763951,0.923927\H,0,-4
 .368927,-0.689864,0.889321\H,0,-5.609308,0.097127,0.733095\\Version=ES
 64L-G09RevD.01\State=1-A'\HF=-76.3343319\MP2=-76.4238862\RMSD=5.041e-0
 9\PG=CS [SG(H2O1)]\\@

 THOUGH I SPEAK WITH THE TONGUES OF MEN AND OF ANGELS,

 Normal termination of Gaussian 09 at Wed Aug 26 08:32:51 2020.
