 Gaussian 09, Revision D.01,
 Gaussian 09:  ES64L-G09RevD.01 24-Apr-2013

 --------------------
 #p B2PLYPD3/Def2QZVP
 --------------------

 ---
 h2o
 ---
 Symbolic Z-matrix:
 Charge =  0 Multiplicity = 1

                         Standard orientation:
 ---------------------------------------------------------------------
 Center     Atomic      Atomic             Coordinates (Angstroms)
 Number     Number       Type             X           Y           Z
 ---------------------------------------------------------------------
      1          8           0        0.000000    0.118458    0.000000
      2          1           0        0.761784   -0.463821    0.000000
      3          1           0       -0.761784   -0.483847    0.000000
 ---------------------------------------------------------------------

 SCF Done:  E(RB2PLYPD3) =  -76.3347674981     A.U. after   10 cycles
 E2(B2PLYPD3) =    -0.9021164276D-01 E(B2PLYPD3) =    -0.76424979140828D+02

 The electronic state is 1-A'.
 Alpha  occ. eigenvalues --  -19.73246  -1.15413  -0.60922  -0.47451  -0.39923
 Alpha virt. eigenvalues --    0.04458   0.10155   0.27561   0.30426   0.30818
 Alpha virt. eigenvalues --    0.35696   0.43804   0.50131   0.56238   0.62022
 Alpha virt. eigenvalues --    0.65796   0.81021   0.93678   0.96054   1.03307

 Mulliken charges:
               1
     1  O   -0.447042
     2  H    0.220885
     3  H    0.226157
 Sum of Mulliken charges =   0.00000

 Dipole moment (field-independent basis, Debye):
    X=              0.0063    Y=             -1.9713    Z=              0.0000  Tot=              1.9713
 Quadrupole moment (field-independent basis, Debye-Ang):
   XX=             -4.3404   YY=             -6.3181   ZZ=             -7.6070
   XY=              0.0328   XZ=              0.0000   YZ=              0.0000

 1\1\GINC-NODE34\SP\RB2PLYPD3-FC\def2QZVP\H2O1\BOITTIER\26-Aug-2020\0\\
 #p B2PLYPD3/Def2QZVP\\h2o\\0,1\O,0,-5.326605,-0.764739,0.923417\H,0,-4
 .368927,-0.724692,0.898664\H,0,-5.609308,0.144556,0.732764\\Version=ES
 64L-G09RevD.01\State=1-A'\HF=-76.3347675\MP2=-76.4249791\RMSD=4.117e-0
 9\PG=CS [SG(H2O1)]\\@

 If your ship doesn't come in, swim out to it!

 Normal termination of Gaussian 09 at Wed Aug 26 10:59:40 2020.
