 Gaussian 09, Revision D.01,
 Gaussian 09:  ES64L-G09RevD.01 24-Apr-2013

 --------------------
 #p B2PLYPD3/Def2QZVP
 --------------------

 ---
 h2o
 ---
 Symbolic Z-matrix:
 Charge =  0 Multiplicity = 1

                         Standard orientation:
 ---------------------------------------------------------------------
 Center     Atomic      Atomic             Coordinates (Angstroms)
 Number     Number       Type             X           Y           Z
 ---------------------------------------------------------------------
      1          8           0        0.000000    0.121789    0.000000
      2          1           0        0.814942   -0.388783    0.000000
      3          1           0       -0.814942   -0.585526    0.000000
 ---------------------------------------------------------------------

 SCF Done:  E(RB2PLYPD3) =  -76.3219390129     A.U. after   10 cycles
 E2(B2PLYPD3) =    -0.9200336380D-01 E(B2PLYPD3) =    -0.76413942376654D+02

 The electronic state is 1-A'.
 Alpha  occ. eigenvalues --  -19.73891  -1.13095  -0.59007  -0.46168  -0.39439
 Alpha virt. eigenvalues --    0.03608   0.09576   0.27676   0.28878   0.30552
 Alpha virt. eigenvalues --    0.33805   0.42680   0.50154   0.55003   0.62426
 Alpha virt. eigenvalues --    0.66873   0.79116   0.90360   0.96927   1.00262

 Mulliken charges:
               1
     1  O   -0.482668
     2  H    0.222639
     3  H    0.260029
 Sum of Mulliken charges =   0.00000

 Dipole moment (field-independent basis, Debye):
    X=              0.0568    Y=             -1.9651    Z=              0.0000  Tot=              1.9660
 Quadrupole moment (field-independent basis, Debye-Ang):
   XX=             -4.1187   YY=             -6.3843   ZZ=             -7.7324
   XY=              0.3432   XZ=              0.0000   YZ=              0.0000

 1\1\GINC-NODE26\SP\RB2PLYPD3-FC\def2QZVP\H2O1\BOITTIER\26-Aug-2020\0\\
 #p B2PLYPD3/Def2QZVP\\h2o\\0,1\O,0,-5.326605,-0.768274,0.913677\H,0,-4
 .368927,-0.78925,0.99869\H,0,-5.609308,0.265674,0.789358\\Version=ES64
 L-G09RevD.01\State=1-A'\HF=-76.321939\MP2=-76.4139424\RMSD=7.669e-09\P
 G=CS [SG(H2O1)]\\@

      LET US REMEMBER, PLEASE, THAT THE SEARCH FOR THE CONSTITUTION

 Normal termination of Gaussian 09 at Wed Aug 26 09:22:30 2020.
