 Gaussian 09, Revision D.01,
 Gaussian 09:  ES64L-G09RevD.01 24-Apr-2013

 --------------------
 #p B2PLYPD3/Def2QZVP
 --------------------

 ---
 h2o
 ---
 Symbolic Z-matrix:
 Charge =  0 Multiplicity = 1

                         Standard orientation:
 ---------------------------------------------------------------------
 Center     Atomic      Atomic             Coordinates (Angstroms)
 Number     Number       Type             X           Y           Z
 ---------------------------------------------------------------------
      1          8           0        0.000000    0.115607    0.000000
      2          1           0        0.774126   -0.448401    0.000000
      3          1           0       -0.774126   -0.476456    0.000000
 ---------------------------------------------------------------------

 SCF Done:  E(RB2PLYPD3) =  -76.3346057738     A.U. after   10 cycles
 E2(B2PLYPD3) =    -0.9018608783D-01 E(B2PLYPD3) =    -0.76424791861613D+02

 The electronic state is 1-A'.
 Alpha  occ. eigenvalues --  -19.73169  -1.15202  -0.61272  -0.47010  -0.39857
 Alpha virt. eigenvalues --    0.04482   0.10106   0.27528   0.30437   0.31006
 Alpha virt. eigenvalues --    0.35276   0.43762   0.50556   0.55886   0.62681
 Alpha virt. eigenvalues --    0.65775   0.80825   0.93416   0.96134   1.03660

 Mulliken charges:
               1
     1  O   -0.452930
     2  H    0.222849
     3  H    0.230080
 Sum of Mulliken charges =   0.00000

 Dipole moment (field-independent basis, Debye):
    X=              0.0082    Y=             -1.9369    Z=              0.0000  Tot=              1.9370
 Quadrupole moment (field-independent basis, Debye-Ang):
   XX=             -4.2405   YY=             -6.3848   ZZ=             -7.6141
   XY=              0.0476   XZ=              0.0000   YZ=              0.0000

 1\1\GINC-NODE14\SP\RB2PLYPD3-FC\def2QZVP\H2O1\BOITTIER\26-Aug-2020\0\\
 #p B2PLYPD3/Def2QZVP\\h2o\\0,1\O,0,-5.326605,-0.763662,0.918484\H,0,-4
 .368927,-0.755849,0.931437\H,0,-5.609308,0.158491,0.77876\\Version=ES6
 4L-G09RevD.01\State=1-A'\HF=-76.3346058\MP2=-76.4247919\RMSD=4.020e-09
 \PG=CS [SG(H2O1)]\\@

 NEVER LISTEN TO CRITICISM

 Normal termination of Gaussian 09 at Wed Aug 26 10:01:41 2020.
