 Gaussian 09, Revision D.01,
 Gaussian 09:  ES64L-G09RevD.01 24-Apr-2013

 --------------------
 #p B2PLYPD3/Def2QZVP
 --------------------

 ---
 h2o
 ---
 Symbolic Z-matrix:
 Charge =  0 Multiplicity = 1

                         Standard orientation:
 ---------------------------------------------------------------------
 Center     Atomic      Atomic             Coordinates (Angstroms)
 Number     Number       Type             X           Y           Z
 ---------------------------------------------------------------------
      1          8           0        0.000000    0.119792    0.000000
      2          1           0        0.753594   -0.475999    0.000000
      3          1           0       -0.753594   -0.482335    0.000000
 ---------------------------------------------------------------------

 SCF Done:  E(RB2PLYPD3) =  -76.3348533631     A.U. after   10 cycles
 E2(B2PLYPD3) =    -0.9017357426D-01 E(B2PLYPD3) =    -0.76425026937393D+02

 The electronic state is 1-A'.
 Alpha  occ. eigenvalues --  -19.73259  -1.15609  -0.60798  -0.47717  -0.39973
 Alpha virt. eigenvalues --    0.04462   0.10199   0.27568   0.30416   0.30758
 Alpha virt. eigenvalues --    0.35991   0.43871   0.49938   0.56455   0.61681
 Alpha virt. eigenvalues --    0.65765   0.81145   0.93899   0.95985   1.03255

 Mulliken charges:
               1
     1  O   -0.442694
     2  H    0.220495
     3  H    0.222199
 Sum of Mulliken charges =   0.00000

 Dipole moment (field-independent basis, Debye):
    X=              0.0021    Y=             -1.9885    Z=              0.0000  Tot=              1.9885
 Quadrupole moment (field-independent basis, Debye-Ang):
   XX=             -4.3986   YY=             -6.2807   ZZ=             -7.5994
   XY=              0.0102   XZ=              0.0000   YZ=              0.0000

 1\1\GINC-NODE14\SP\RB2PLYPD3-FC\def2QZVP\H2O1\BOITTIER\26-Aug-2020\0\\
 #p B2PLYPD3/Def2QZVP\\h2o\\0,1\O,0,-5.326605,-0.766424,0.919188\H,0,-4
 .368927,-0.694409,0.942374\H,0,-5.609308,0.14123,0.755773\\Version=ES6
 4L-G09RevD.01\State=1-A'\HF=-76.3348534\MP2=-76.4250269\RMSD=4.193e-09
 \PG=CS [SG(H2O1)]\\@

 A ROPE OVER THE TOP OF A FENCE HAS THE SAME LENGTH ON EACH SIDE.

 Normal termination of Gaussian 09 at Wed Aug 26 12:15:21 2020.
