 Gaussian 09, Revision D.01,
 Gaussian 09:  ES64L-G09RevD.01 24-Apr-2013

 --------------------
 #p B2PLYPD3/Def2QZVP
 --------------------

 ---
 h2o
 ---
 Symbolic Z-matrix:
 Charge =  0 Multiplicity = 1

                         Standard orientation:
 ---------------------------------------------------------------------
 Center     Atomic      Atomic             Coordinates (Angstroms)
 Number     Number       Type             X           Y           Z
 ---------------------------------------------------------------------
      1          8           0        0.000000    0.117897    0.000000
      2          1           0        0.767839   -0.456189    0.000000
      3          1           0       -0.767839   -0.486990    0.000000
 ---------------------------------------------------------------------

 SCF Done:  E(RB2PLYPD3) =  -76.3344984699     A.U. after   10 cycles
 E2(B2PLYPD3) =    -0.9029302939D-01 E(B2PLYPD3) =    -0.76424791499253D+02

 The electronic state is 1-A'.
 Alpha  occ. eigenvalues --  -19.73264  -1.15222  -0.60911  -0.47274  -0.39879
 Alpha virt. eigenvalues --    0.04433   0.10113   0.27567   0.30436   0.30810
 Alpha virt. eigenvalues --    0.35451   0.43720   0.50235   0.56090   0.62207
 Alpha virt. eigenvalues --    0.65855   0.80892   0.93491   0.96132   1.03198

 Mulliken charges:
               1
     1  O   -0.450835
     2  H    0.221454
     3  H    0.229381
 Sum of Mulliken charges =   0.00000

 Dipole moment (field-independent basis, Debye):
    X=              0.0095    Y=             -1.9623    Z=              0.0000  Tot=              1.9624
 Quadrupole moment (field-independent basis, Debye-Ang):
   XX=             -4.3030   YY=             -6.3403   ZZ=             -7.6154
   XY=              0.0511   XZ=              0.0000   YZ=              0.0000

 1\1\GINC-NODE31\SP\RB2PLYPD3-FC\def2QZVP\H2O1\BOITTIER\26-Aug-2020\0\\
 #p B2PLYPD3/Def2QZVP\\h2o\\0,1\O,0,-5.326605,-0.765303,0.917934\H,0,-4
 .368927,-0.730197,0.945741\H,0,-5.609308,0.159095,0.772904\\Version=ES
 64L-G09RevD.01\State=1-A'\HF=-76.3344985\MP2=-76.4247915\RMSD=4.140e-0
 9\PG=CS [SG(H2O1)]\\@

 TERENCE, THIS IS STUPID STUFF:

 Normal termination of Gaussian 09 at Wed Aug 26 10:47:33 2020.
