 Gaussian 09, Revision D.01,
 Gaussian 09:  ES64L-G09RevD.01 24-Apr-2013

 --------------------
 #p B2PLYPD3/Def2QZVP
 --------------------

 ---
 h2o
 ---
 Symbolic Z-matrix:
 Charge =  0 Multiplicity = 1

                         Standard orientation:
 ---------------------------------------------------------------------
 Center     Atomic      Atomic             Coordinates (Angstroms)
 Number     Number       Type             X           Y           Z
 ---------------------------------------------------------------------
      1          8           0        0.000000    0.124416    0.000000
      2          1           0        0.748686   -0.482803    0.000000
      3          1           0       -0.748686   -0.512522    0.000000
 ---------------------------------------------------------------------

 SCF Done:  E(RB2PLYPD3) =  -76.3336159388     A.U. after   10 cycles
 E2(B2PLYPD3) =    -0.9062405554D-01 E(B2PLYPD3) =    -0.76424239994354D+02

 The electronic state is 1-A'.
 Alpha  occ. eigenvalues --  -19.73530  -1.15290  -0.59852  -0.48044  -0.39945
 Alpha virt. eigenvalues --    0.04285   0.10134   0.27685   0.30280   0.30431
 Alpha virt. eigenvalues --    0.35876   0.43597   0.49445   0.56694   0.60887
 Alpha virt. eigenvalues --    0.66075   0.80990   0.93856   0.96188   1.02036

 Mulliken charges:
               1
     1  O   -0.445052
     2  H    0.218723
     3  H    0.226329
 Sum of Mulliken charges =   0.00000

 Dipole moment (field-independent basis, Debye):
    X=              0.0105    Y=             -2.0337    Z=              0.0000  Tot=              2.0337
 Quadrupole moment (field-independent basis, Debye-Ang):
   XX=             -4.4872   YY=             -6.2099   ZZ=             -7.6194
   XY=              0.0462   XZ=              0.0000   YZ=              0.0000

 1\1\GINC-NODE39\SP\RB2PLYPD3-FC\def2QZVP\H2O1\BOITTIER\26-Aug-2020\0\\
 #p B2PLYPD3/Def2QZVP\\h2o\\0,1\O,0,-5.326605,-0.76715,0.92962\H,0,-4.3
 68927,-0.678896,0.863974\H,0,-5.609308,0.137334,0.668453\\Version=ES64
 L-G09RevD.01\State=1-A'\HF=-76.3336159\MP2=-76.42424\RMSD=4.478e-09\PG
 =CS [SG(H2O1)]\\@

 Statistics are no substitute for judgment.

 Normal termination of Gaussian 09 at Wed Aug 26 08:59:57 2020.
