 Gaussian 09, Revision D.01,
 Gaussian 09:  ES64L-G09RevD.01 24-Apr-2013

 --------------------
 #p B2PLYPD3/Def2QZVP
 --------------------

 ---
 h2o
 ---
 Symbolic Z-matrix:
 Charge =  0 Multiplicity = 1

                         Standard orientation:
 ---------------------------------------------------------------------
 Center     Atomic      Atomic             Coordinates (Angstroms)
 Number     Number       Type             X           Y           Z
 ---------------------------------------------------------------------
      1          8           0        0.000000    0.118881    0.000000
      2          1           0        0.770529   -0.451082    0.000000
      3          1           0       -0.770529   -0.499964    0.000000
 ---------------------------------------------------------------------

 SCF Done:  E(RB2PLYPD3) =  -76.3338548522     A.U. after   10 cycles
 E2(B2PLYPD3) =    -0.9047455052D-01 E(B2PLYPD3) =    -0.76424329402760D+02

 The electronic state is 1-A'.
 Alpha  occ. eigenvalues --  -19.73354  -1.15010  -0.60632  -0.47248  -0.39843
 Alpha virt. eigenvalues --    0.04361   0.10067   0.27601   0.30447   0.30640
 Alpha virt. eigenvalues --    0.35282   0.43594   0.50139   0.56054   0.62094
 Alpha virt. eigenvalues --    0.65982   0.80768   0.93304   0.96235   1.02719

 Mulliken charges:
               1
     1  O   -0.453782
     2  H    0.220780
     3  H    0.233002
 Sum of Mulliken charges =   0.00000

 Dipole moment (field-independent basis, Debye):
    X=              0.0152    Y=             -1.9698    Z=              0.0000  Tot=              1.9698
 Quadrupole moment (field-independent basis, Debye-Ang):
   XX=             -4.3033   YY=             -6.3341   ZZ=             -7.6267
   XY=              0.0810   XZ=              0.0000   YZ=              0.0000

 1\1\GINC-NODE09\SP\RB2PLYPD3-FC\def2QZVP\H2O1\BOITTIER\26-Aug-2020\0\\
 #p B2PLYPD3/Def2QZVP\\h2o\\0,1\O,0,-5.326605,-0.765741,0.919649\H,0,-4
 .368927,-0.731197,0.934883\H,0,-5.609308,0.167103,0.756663\\Version=ES
 64L-G09RevD.01\State=1-A'\HF=-76.3338549\MP2=-76.4243294\RMSD=4.376e-0
 9\PG=CS [SG(H2O1)]\\@

 Not by the face shall a man be known, but by the mask.

 Normal termination of Gaussian 09 at Wed Aug 26 12:43:18 2020.
