 Gaussian 09, Revision D.01,
 Gaussian 09:  ES64L-G09RevD.01 24-Apr-2013

 --------------------
 #p B2PLYPD3/Def2QZVP
 --------------------

 ---
 h2o
 ---
 Symbolic Z-matrix:
 Charge =  0 Multiplicity = 1

                         Standard orientation:
 ---------------------------------------------------------------------
 Center     Atomic      Atomic             Coordinates (Angstroms)
 Number     Number       Type             X           Y           Z
 ---------------------------------------------------------------------
      1          8           0        0.000000    0.118904    0.000000
      2          1           0        0.788839   -0.425160    0.000000
      3          1           0       -0.788839   -0.526074    0.000000
 ---------------------------------------------------------------------

 SCF Done:  E(RB2PLYPD3) =  -76.3309741564     A.U. after   10 cycles
 E2(B2PLYPD3) =    -0.9094287814D-01 E(B2PLYPD3) =    -0.76421917034576D+02

 The electronic state is 1-A'.
 Alpha  occ. eigenvalues --  -19.73512  -1.14291  -0.60205  -0.46774  -0.39688
 Alpha virt. eigenvalues --    0.04163   0.09897   0.27648   0.30239   0.30487
 Alpha virt. eigenvalues --    0.34557   0.43255   0.50274   0.55625   0.62395
 Alpha virt. eigenvalues --    0.66285   0.80210   0.92429   0.96554   1.01750

 Mulliken charges:
               1
     1  O   -0.466049
     2  H    0.221543
     3  H    0.244506
 Sum of Mulliken charges =   0.00000

 Dipole moment (field-independent basis, Debye):
    X=              0.0298    Y=             -1.9581    Z=              0.0000  Tot=              1.9583
 Quadrupole moment (field-independent basis, Debye-Ang):
   XX=             -4.2122   YY=             -6.3754   ZZ=             -7.6630
   XY=              0.1720   XZ=              0.0000   YZ=              0.0000

 1\1\GINC-NODE33\SP\RB2PLYPD3-FC\def2QZVP\H2O1\BOITTIER\26-Aug-2020\0\\
 #p B2PLYPD3/Def2QZVP\\h2o\\0,1\O,0,-5.326605,-0.766004,0.917852\H,0,-4
 .368927,-0.761551,0.951115\H,0,-5.609308,0.201665,0.769664\\Version=ES
 64L-G09RevD.01\State=1-A'\HF=-76.3309742\MP2=-76.421917\RMSD=5.339e-09
 \PG=CS [SG(H2O1)]\\@

 IF YOU GIVE EVERYONE A PIECE OF YOUR MIND,

 Normal termination of Gaussian 09 at Wed Aug 26 12:53:45 2020.
