 Gaussian 09, Revision D.01,
 Gaussian 09:  ES64L-G09RevD.01 24-Apr-2013

 --------------------
 #p B2PLYPD3/Def2QZVP
 --------------------

 ---
 h2o
 ---
 Symbolic Z-matrix:
 Charge =  0 Multiplicity = 1

                         Standard orientation:
 ---------------------------------------------------------------------
 Center     Atomic      Atomic             Coordinates (Angstroms)
 Number     Number       Type             X           Y           Z
 ---------------------------------------------------------------------
      1          8           0        0.000000    0.111312    0.000000
      2          1           0        0.782298   -0.444559    0.000000
      3          1           0       -0.782298   -0.445936    0.000000
 ---------------------------------------------------------------------

 SCF Done:  E(RB2PLYPD3) =  -76.3347465585     A.U. after   10 cycles
 E2(B2PLYPD3) =    -0.8992198363D-01 E(B2PLYPD3) =    -0.76424668542158D+02

 The electronic state is 1-A'.
 Alpha  occ. eigenvalues --  -19.72962  -1.15299  -0.62018  -0.46600  -0.39842
 Alpha virt. eigenvalues --    0.04597   0.10118   0.27450   0.30430   0.31418
 Alpha virt. eigenvalues --    0.35068   0.43911   0.51178   0.55577   0.63537
 Alpha virt. eigenvalues --    0.65580   0.80746   0.93431   0.96114   1.04790

 Mulliken charges:
               1
     1  O   -0.454451
     2  H    0.227045
     3  H    0.227406
 Sum of Mulliken charges =   0.00000

 Dipole moment (field-independent basis, Debye):
    X=              0.0004    Y=             -1.8906    Z=              0.0000  Tot=              1.8906
 Quadrupole moment (field-independent basis, Debye-Ang):
   XX=             -4.1416   YY=             -6.4586   ZZ=             -7.6055
   XY=              0.0024   XZ=              0.0000   YZ=              0.0000

 1\1\GINC-NODE13\SP\RB2PLYPD3-FC\def2QZVP\H2O1\BOITTIER\26-Aug-2020\0\\
 #p B2PLYPD3/Def2QZVP\\h2o\\0,1\O,0,-5.326605,-0.761165,0.912196\H,0,-4
 .368927,-0.791559,0.966155\H,0,-5.609308,0.15424,0.844162\\Version=ES6
 4L-G09RevD.01\State=1-A'\HF=-76.3347466\MP2=-76.4246685\RMSD=3.722e-09
 \PG=CS [SG(H2O1)]\\@

 Some scientists claim that hydrogen, because it is so

 Normal termination of Gaussian 09 at Wed Aug 26 08:36:28 2020.
