 Gaussian 09, Revision D.01,
 Gaussian 09:  ES64L-G09RevD.01 24-Apr-2013

 --------------------
 #p B2PLYPD3/Def2QZVP
 --------------------

 ---
 h2o
 ---
 Symbolic Z-matrix:
 Charge =  0 Multiplicity = 1

                         Standard orientation:
 ---------------------------------------------------------------------
 Center     Atomic      Atomic             Coordinates (Angstroms)
 Number     Number       Type             X           Y           Z
 ---------------------------------------------------------------------
      1          8           0        0.000000    0.118573    0.000000
      2          1           0        0.762218   -0.464889    0.000000
      3          1           0       -0.762218   -0.483697    0.000000
 ---------------------------------------------------------------------

 SCF Done:  E(RB2PLYPD3) =  -76.3347355296     A.U. after   10 cycles
 E2(B2PLYPD3) =    -0.9023519084D-01 E(B2PLYPD3) =    -0.76424970720450D+02

 The electronic state is 1-A'.
 Alpha  occ. eigenvalues --  -19.73258  -1.15382  -0.60886  -0.47446  -0.39917
 Alpha virt. eigenvalues --    0.04450   0.10149   0.27566   0.30428   0.30803
 Alpha virt. eigenvalues --    0.35669   0.43784   0.50121   0.56233   0.62009
 Alpha virt. eigenvalues --    0.65814   0.81004   0.93661   0.96067   1.03256

 Mulliken charges:
               1
     1  O   -0.447523
     2  H    0.221296
     3  H    0.226227
 Sum of Mulliken charges =   0.00000

 Dipole moment (field-independent basis, Debye):
    X=              0.0059    Y=             -1.9721    Z=              0.0000  Tot=              1.9721
 Quadrupole moment (field-independent basis, Debye-Ang):
   XX=             -4.3399   YY=             -6.3178   ZZ=             -7.6085
   XY=              0.0308   XZ=              0.0000   YZ=              0.0000

 1\1\GINC-NODE38\SP\RB2PLYPD3-FC\def2QZVP\H2O1\BOITTIER\26-Aug-2020\0\\
 #p B2PLYPD3/Def2QZVP\\h2o\\0,1\O,0,-5.326605,-0.76588,0.91687\H,0,-4.3
 68927,-0.714912,0.957609\H,0,-5.609308,0.153039,0.777685\\Version=ES64
 L-G09RevD.01\State=1-A'\HF=-76.3347355\MP2=-76.4249707\RMSD=4.103e-09\
 PG=CS [SG(H2O1)]\\@

 THERE IS MORE TO LIFE THAN INCREASING ITS SPEED.

 Normal termination of Gaussian 09 at Wed Aug 26 08:30:14 2020.
