 Gaussian 09, Revision D.01,
 Gaussian 09:  ES64L-G09RevD.01 24-Apr-2013

 --------------------
 #p B2PLYPD3/Def2QZVP
 --------------------

 ---
 h2o
 ---
 Symbolic Z-matrix:
 Charge =  0 Multiplicity = 1

                         Standard orientation:
 ---------------------------------------------------------------------
 Center     Atomic      Atomic             Coordinates (Angstroms)
 Number     Number       Type             X           Y           Z
 ---------------------------------------------------------------------
      1          8           0        0.000000    0.122003    0.000000
      2          1           0        0.801058   -0.405014    0.000000
      3          1           0       -0.801058   -0.571008    0.000000
 ---------------------------------------------------------------------

 SCF Done:  E(RB2PLYPD3) =  -76.3254898346     A.U. after   10 cycles
 E2(B2PLYPD3) =    -0.9164925226D-01 E(B2PLYPD3) =    -0.76417139086828D+02

 The electronic state is 1-A'.
 Alpha  occ. eigenvalues --  -19.73800  -1.13565  -0.59283  -0.46546  -0.39550
 Alpha virt. eigenvalues --    0.03806   0.09704   0.27721   0.29280   0.30525
 Alpha virt. eigenvalues --    0.34141   0.42893   0.50004   0.55351   0.62157
 Alpha virt. eigenvalues --    0.66680   0.79619   0.91169   0.96842   1.00536

 Mulliken charges:
               1
     1  O   -0.474783
     2  H    0.220500
     3  H    0.254283
 Sum of Mulliken charges =   0.00000

 Dipole moment (field-independent basis, Debye):
    X=              0.0499    Y=             -1.9771    Z=              0.0000  Tot=              1.9777
 Quadrupole moment (field-independent basis, Debye-Ang):
   XX=             -4.1931   YY=             -6.3549   ZZ=             -7.7060
   XY=              0.2836   XZ=              0.0000   YZ=              0.0000

 1\1\GINC-NODE10\SP\RB2PLYPD3-FC\def2QZVP\H2O1\BOITTIER\26-Aug-2020\0\\
 #p B2PLYPD3/Def2QZVP\\h2o\\0,1\O,0,-5.326605,-0.768117,0.917699\H,0,-4
 .368927,-0.766225,0.965548\H,0,-5.609308,0.240138,0.758145\\Version=ES
 64L-G09RevD.01\State=1-A'\HF=-76.3254898\MP2=-76.4171391\RMSD=6.743e-0
 9\PG=CS [SG(H2O1)]\\@

 A ROPE OVER THE TOP OF A FENCE HAS THE SAME LENGTH ON EACH SIDE.

 Normal termination of Gaussian 09 at Wed Aug 26 08:53:51 2020.
