 Gaussian 09, Revision D.01,
 Gaussian 09:  ES64L-G09RevD.01 24-Apr-2013

 --------------------
 #p B2PLYPD3/Def2QZVP
 --------------------

 ---
 h2o
 ---
 Symbolic Z-matrix:
 Charge =  0 Multiplicity = 1

                         Standard orientation:
 ---------------------------------------------------------------------
 Center     Atomic      Atomic             Coordinates (Angstroms)
 Number     Number       Type             X           Y           Z
 ---------------------------------------------------------------------
      1          8           0        0.000000    0.114541    0.000000
      2          1           0        0.778166   -0.443825    0.000000
      3          1           0       -0.778166   -0.472506    0.000000
 ---------------------------------------------------------------------

 SCF Done:  E(RB2PLYPD3) =  -76.3345274905     A.U. after   10 cycles
 E2(B2PLYPD3) =    -0.9016750756D-01 E(B2PLYPD3) =    -0.76424694998092D+02

 The electronic state is 1-A'.
 Alpha  occ. eigenvalues --  -19.73136  -1.15144  -0.61409  -0.46860  -0.39836
 Alpha virt. eigenvalues --    0.04494   0.10092   0.27515   0.30440   0.31085
 Alpha virt. eigenvalues --    0.35138   0.43756   0.50721   0.55767   0.62921
 Alpha virt. eigenvalues --    0.65761   0.80752   0.93348   0.96162   1.03823

 Mulliken charges:
               1
     1  O   -0.454834
     2  H    0.223741
     3  H    0.231093
 Sum of Mulliken charges =   0.00000

 Dipole moment (field-independent basis, Debye):
    X=              0.0081    Y=             -1.9243    Z=              0.0000  Tot=              1.9243
 Quadrupole moment (field-independent basis, Debye-Ang):
   XX=             -4.2059   YY=             -6.4083   ZZ=             -7.6158
   XY=              0.0492   XZ=              0.0000   YZ=              0.0000

 1\1\GINC-NODE13\SP\RB2PLYPD3-FC\def2QZVP\H2O1\BOITTIER\26-Aug-2020\0\\
 #p B2PLYPD3/Def2QZVP\\h2o\\0,1\O,0,-5.326605,-0.762967,0.918175\H,0,-4
 .368927,-0.768909,0.929709\H,0,-5.609308,0.16043,0.785571\\Version=ES6
 4L-G09RevD.01\State=1-A'\HF=-76.3345275\MP2=-76.424695\RMSD=3.982e-09\
 PG=CS [SG(H2O1)]\\@

 WE ARE PERHAPS NOT FAR REMOVED FROM THE TIME WHEN WE SHALL BE ABLE TO SUBMIT

 Normal termination of Gaussian 09 at Wed Aug 26 08:31:54 2020.
