 Gaussian 09, Revision D.01,
 Gaussian 09:  ES64L-G09RevD.01 24-Apr-2013

 --------------------
 #p B2PLYPD3/Def2QZVP
 --------------------

 ---
 h2o
 ---
 Symbolic Z-matrix:
 Charge =  0 Multiplicity = 1

                         Standard orientation:
 ---------------------------------------------------------------------
 Center     Atomic      Atomic             Coordinates (Angstroms)
 Number     Number       Type             X           Y           Z
 ---------------------------------------------------------------------
      1          8           0        0.000000    0.119847    0.000000
      2          1           0        0.775095   -0.443414    0.000000
      3          1           0       -0.775095   -0.515365    0.000000
 ---------------------------------------------------------------------

 SCF Done:  E(RB2PLYPD3) =  -76.3327606463     A.U. after   10 cycles
 E2(B2PLYPD3) =    -0.9070386049D-01 E(B2PLYPD3) =    -0.76423464506798D+02

 The electronic state is 1-A'.
 Alpha  occ. eigenvalues --  -19.73457  -1.14730  -0.60317  -0.47170  -0.39791
 Alpha virt. eigenvalues --    0.04267   0.10003   0.27639   0.30414   0.30462
 Alpha virt. eigenvalues --    0.35046   0.43442   0.50059   0.55969   0.62019
 Alpha virt. eigenvalues --    0.66136   0.80587   0.93000   0.96370   1.02162

 Mulliken charges:
               1
     1  O   -0.457760
     2  H    0.220224
     3  H    0.237536
 Sum of Mulliken charges =   0.00000

 Dipole moment (field-independent basis, Debye):
    X=              0.0224    Y=             -1.9757    Z=              0.0000  Tot=              1.9759
 Quadrupole moment (field-independent basis, Debye-Ang):
   XX=             -4.2941   YY=             -6.3319   ZZ=             -7.6415
   XY=              0.1195   XZ=              0.0000   YZ=              0.0000

 1\1\GINC-NODE38\SP\RB2PLYPD3-FC\def2QZVP\H2O1\BOITTIER\26-Aug-2020\0\\
 #p B2PLYPD3/Def2QZVP\\h2o\\0,1\O,0,-5.326605,-0.766109,0.92141\H,0,-4.
 368927,-0.736361,0.923257\H,0,-5.609308,0.17815,0.740521\\Version=ES64
 L-G09RevD.01\State=1-A'\HF=-76.3327606\MP2=-76.4234645\RMSD=4.746e-09\
 PG=CS [SG(H2O1)]\\@

 THERE'S NOTHING WRONG WITH FOLLOWING A TRAIN OF THOUGHT...

 Normal termination of Gaussian 09 at Wed Aug 26 08:32:23 2020.
