 Gaussian 09, Revision D.01,
 Gaussian 09:  ES64L-G09RevD.01 24-Apr-2013

 --------------------
 #p B2PLYPD3/Def2QZVP
 --------------------

 ---
 h2o
 ---
 Symbolic Z-matrix:
 Charge =  0 Multiplicity = 1

                         Standard orientation:
 ---------------------------------------------------------------------
 Center     Atomic      Atomic             Coordinates (Angstroms)
 Number     Number       Type             X           Y           Z
 ---------------------------------------------------------------------
      1          8           0        0.000000    0.115836    0.000000
      2          1           0        0.733574   -0.505161    0.000000
      3          1           0       -0.733574   -0.421527    0.000000
 ---------------------------------------------------------------------

 SCF Done:  E(RB2PLYPD3) =  -76.3331118590     A.U. after   10 cycles
 E2(B2PLYPD3) =    -0.8926717834D-01 E(B2PLYPD3) =    -0.76422379037340D+02

 The electronic state is 1-A'.
 Alpha  occ. eigenvalues --  -19.72778  -1.16974  -0.62155  -0.47985  -0.40203
 Alpha virt. eigenvalues --    0.04734   0.10448   0.27356   0.30347   0.31207
 Alpha virt. eigenvalues --    0.37149   0.44758   0.50270   0.56687   0.62055
 Alpha virt. eigenvalues --    0.65036   0.81740   0.94362   0.95497   1.04924

 Mulliken charges:
               1
     1  O   -0.418802
     2  H    0.222700
     3  H    0.196102
 Sum of Mulliken charges =   0.00000

 Dipole moment (field-independent basis, Debye):
    X=             -0.0271    Y=             -1.9621    Z=              0.0000  Tot=              1.9623
 Quadrupole moment (field-independent basis, Debye-Ang):
   XX=             -4.4384   YY=             -6.2709   ZZ=             -7.5367
   XY=             -0.1330   XZ=              0.0000   YZ=              0.0000

 1\1\GINC-NODE21\SP\RB2PLYPD3-FC\def2QZVP\H2O1\BOITTIER\26-Aug-2020\0\\
 #p B2PLYPD3/Def2QZVP\\h2o\\0,1\O,0,-5.326605,-0.762751,0.924018\H,0,-4
 .368927,-0.693579,0.881159\H,0,-5.609308,0.081636,0.739681\\Version=ES
 64L-G09RevD.01\State=1-A'\HF=-76.3331119\MP2=-76.422379\RMSD=5.725e-09
 \PG=CS [SG(H2O1)]\\@

 THERE IS MORE TO LIFE THAN INCREASING ITS SPEED.

 Normal termination of Gaussian 09 at Wed Aug 26 08:30:14 2020.
