 Gaussian 09, Revision D.01,
 Gaussian 09:  ES64L-G09RevD.01 24-Apr-2013

 --------------------
 #p B2PLYPD3/Def2QZVP
 --------------------

 ---
 h2o
 ---
 Symbolic Z-matrix:
 Charge =  0 Multiplicity = 1

                         Standard orientation:
 ---------------------------------------------------------------------
 Center     Atomic      Atomic             Coordinates (Angstroms)
 Number     Number       Type             X           Y           Z
 ---------------------------------------------------------------------
      1          8           0        0.000000    0.117086    0.000000
      2          1           0        0.749088   -0.482508    0.000000
      3          1           0       -0.749088   -0.454181    0.000000
 ---------------------------------------------------------------------

 SCF Done:  E(RB2PLYPD3) =  -76.3350683824     A.U. after   10 cycles
 E2(B2PLYPD3) =    -0.8975476572D-01 E(B2PLYPD3) =    -0.76424823148158D+02

 The electronic state is 1-A'.
 Alpha  occ. eigenvalues --  -19.73028  -1.16113  -0.61518  -0.47694  -0.40051
 Alpha virt. eigenvalues --    0.04607   0.10295   0.27471   0.30390   0.31068
 Alpha virt. eigenvalues --    0.36372   0.44213   0.50212   0.56455   0.62056
 Alpha virt. eigenvalues --    0.65444   0.81384   0.94111   0.95760   1.04268

 Mulliken charges:
               1
     1  O   -0.435135
     2  H    0.221635
     3  H    0.213499
 Sum of Mulliken charges =   0.00000

 Dipole moment (field-independent basis, Debye):
    X=             -0.0090    Y=             -1.9657    Z=              0.0000  Tot=              1.9657
 Quadrupole moment (field-independent basis, Debye-Ang):
   XX=             -4.3827   YY=             -6.3013   ZZ=             -7.5740
   XY=             -0.0458   XZ=              0.0000   YZ=              0.0000

 1\1\GINC-NODE19\SP\RB2PLYPD3-FC\def2QZVP\H2O1\BOITTIER\26-Aug-2020\0\\
 #p B2PLYPD3/Def2QZVP\\h2o\\0,1\O,0,-5.326605,-0.763952,0.922635\H,0,-4
 .368927,-0.709395,0.899793\H,0,-5.609308,0.116667,0.74356\\Version=ES6
 4L-G09RevD.01\State=1-A'\HF=-76.3350684\MP2=-76.4248231\RMSD=4.383e-09
 \PG=CS [SG(H2O1)]\\@

 THE WHOLE OF SCIENCE IS NOTHING MORE THAN A REFINEMENT OF EVERYDAY THINKING.

 Normal termination of Gaussian 09 at Wed Aug 26 10:49:40 2020.
