 Gaussian 09, Revision D.01,
 Gaussian 09:  ES64L-G09RevD.01 24-Apr-2013

 --------------------
 #p B2PLYPD3/Def2QZVP
 --------------------

 ---
 h2o
 ---
 Symbolic Z-matrix:
 Charge =  0 Multiplicity = 1

                         Standard orientation:
 ---------------------------------------------------------------------
 Center     Atomic      Atomic             Coordinates (Angstroms)
 Number     Number       Type             X           Y           Z
 ---------------------------------------------------------------------
      1          8           0        0.000000    0.121663    0.000000
      2          1           0        0.725443   -0.517239    0.000000
      3          1           0       -0.725443   -0.456063    0.000000
 ---------------------------------------------------------------------

 SCF Done:  E(RB2PLYPD3) =  -76.3336115022     A.U. after   10 cycles
 E2(B2PLYPD3) =    -0.8976231113D-01 E(B2PLYPD3) =    -0.76423373813380D+02

 The electronic state is 1-A'.
 Alpha  occ. eigenvalues --  -19.73113  -1.16624  -0.60930  -0.48489  -0.40178
 Alpha virt. eigenvalues --    0.04545   0.10405   0.27500   0.30368   0.30745
 Alpha virt. eigenvalues --    0.37129   0.44389   0.49644   0.57079   0.60985
 Alpha virt. eigenvalues --    0.65396   0.81560   0.94581   0.95656   1.03760

 Mulliken charges:
               1
     1  O   -0.423387
     2  H    0.220950
     3  H    0.202436
 Sum of Mulliken charges =   0.00000

 Dipole moment (field-independent basis, Debye):
    X=             -0.0219    Y=             -2.0216    Z=              0.0000  Tot=              2.0217
 Quadrupole moment (field-independent basis, Debye-Ang):
   XX=             -4.5573   YY=             -6.1820   ZZ=             -7.5585
   XY=             -0.0929   XZ=              0.0000   YZ=              0.0000

 1\1\GINC-NODE27\SP\RB2PLYPD3-FC\def2QZVP\H2O1\BOITTIER\26-Aug-2020\0\\
 #p B2PLYPD3/Def2QZVP\\h2o\\0,1\O,0,-5.326605,-0.765689,0.928121\H,0,-4
 .368927,-0.649459,0.866428\H,0,-5.609308,0.084525,0.688854\\Version=ES
 64L-G09RevD.01\State=1-A'\HF=-76.3336115\MP2=-76.4233738\RMSD=5.352e-0
 9\PG=CS [SG(H2O1)]\\@

 IT IS A PROFOUNDLY ERRONEOUS TRUISM ... THAT WE SHOULD CULTIVATE

 Normal termination of Gaussian 09 at Wed Aug 26 08:37:59 2020.
