 Gaussian 09, Revision D.01,
 Gaussian 09:  ES64L-G09RevD.01 24-Apr-2013

 --------------------
 #p B2PLYPD3/Def2QZVP
 --------------------

 ---
 h2o
 ---
 Symbolic Z-matrix:
 Charge =  0 Multiplicity = 1

                         Standard orientation:
 ---------------------------------------------------------------------
 Center     Atomic      Atomic             Coordinates (Angstroms)
 Number     Number       Type             X           Y           Z
 ---------------------------------------------------------------------
      1          8           0        0.000000    0.111428    0.000000
      2          1           0        0.786422   -0.436829    0.000000
      3          1           0       -0.786422   -0.454591    0.000000
 ---------------------------------------------------------------------

 SCF Done:  E(RB2PLYPD3) =  -76.3344515736     A.U. after   10 cycles
 E2(B2PLYPD3) =    -0.9003773994D-01 E(B2PLYPD3) =    -0.76424489313577D+02

 The electronic state is 1-A'.
 Alpha  occ. eigenvalues --  -19.73009  -1.15113  -0.61883  -0.46507  -0.39804
 Alpha virt. eigenvalues --    0.04555   0.10079   0.27466   0.30440   0.31364
 Alpha virt. eigenvalues --    0.34872   0.43808   0.51203   0.55496   0.63579
 Alpha virt. eigenvalues --    0.65670   0.80608   0.93297   0.96203   1.04524

 Mulliken charges:
               1
     1  O   -0.457958
     2  H    0.226701
     3  H    0.231256
 Sum of Mulliken charges =   0.00000

 Dipole moment (field-independent basis, Debye):
    X=              0.0046    Y=             -1.8892    Z=              0.0000  Tot=              1.8892
 Quadrupole moment (field-independent basis, Debye-Ang):
   XX=             -4.1224   YY=             -6.4678   ZZ=             -7.6146
   XY=              0.0313   XZ=              0.0000   YZ=              0.0000

 1\1\GINC-NODE12\SP\RB2PLYPD3-FC\def2QZVP\H2O1\BOITTIER\26-Aug-2020\0\\
 #p B2PLYPD3/Def2QZVP\\h2o\\0,1\O,0,-5.326605,-0.760658,0.919103\H,0,-4
 .368927,-0.802877,0.908332\H,0,-5.609308,0.157441,0.792571\\Version=ES
 64L-G09RevD.01\State=1-A'\HF=-76.3344516\MP2=-76.4244893\RMSD=3.775e-0
 9\PG=CS [SG(H2O1)]\\@

 There ain't no surer way to find out whether you

 Normal termination of Gaussian 09 at Wed Aug 26 08:27:50 2020.
