 Gaussian 09, Revision D.01,
 Gaussian 09:  ES64L-G09RevD.01 24-Apr-2013

 --------------------
 #p B2PLYPD3/Def2QZVP
 --------------------

 ---
 h2o
 ---
 Symbolic Z-matrix:
 Charge =  0 Multiplicity = 1

                         Standard orientation:
 ---------------------------------------------------------------------
 Center     Atomic      Atomic             Coordinates (Angstroms)
 Number     Number       Type             X           Y           Z
 ---------------------------------------------------------------------
      1          8           0        0.000000    0.122050    0.000000
      2          1           0        0.758556   -0.470956    0.000000
      3          1           0       -0.758556   -0.505445    0.000000
 ---------------------------------------------------------------------

 SCF Done:  E(RB2PLYPD3) =  -76.3338665886     A.U. after   10 cycles
 E2(B2PLYPD3) =    -0.9056295721D-01 E(B2PLYPD3) =    -0.76424429545780D+02

 The electronic state is 1-A'.
 Alpha  occ. eigenvalues --  -19.73459  -1.15153  -0.60186  -0.47693  -0.39899
 Alpha virt. eigenvalues --    0.04319   0.10102   0.27650   0.30435   0.30439
 Alpha virt. eigenvalues --    0.35615   0.43587   0.49720   0.56411   0.61402
 Alpha virt. eigenvalues --    0.66047   0.80907   0.93597   0.96203   1.02317

 Mulliken charges:
               1
     1  O   -0.449005
     2  H    0.220141
     3  H    0.228864
 Sum of Mulliken charges =   0.00000

 Dipole moment (field-independent basis, Debye):
    X=              0.0116    Y=             -2.0063    Z=              0.0000  Tot=              2.0064
 Quadrupole moment (field-independent basis, Debye-Ang):
   XX=             -4.4062   YY=             -6.2647   ZZ=             -7.6230
   XY=              0.0552   XZ=              0.0000   YZ=              0.0000

 1\1\GINC-NODE18\SP\RB2PLYPD3-FC\def2QZVP\H2O1\BOITTIER\26-Aug-2020\0\\
 #p B2PLYPD3/Def2QZVP\\h2o\\0,1\O,0,-5.326605,-0.768242,0.916678\H,0,-4
 .368927,-0.686485,0.973533\H,0,-5.609308,0.162406,0.764588\\Version=ES
 64L-G09RevD.01\State=1-A'\HF=-76.3338666\MP2=-76.4244295\RMSD=4.341e-0
 9\PG=CS [SG(H2O1)]\\@

 The number of Unix installations has grown to 10,

 Normal termination of Gaussian 09 at Wed Aug 26 09:02:47 2020.
