 Gaussian 09, Revision D.01,
 Gaussian 09:  ES64L-G09RevD.01 24-Apr-2013

 --------------------
 #p B2PLYPD3/Def2QZVP
 --------------------

 ---
 h2o
 ---
 Symbolic Z-matrix:
 Charge =  0 Multiplicity = 1

                         Standard orientation:
 ---------------------------------------------------------------------
 Center     Atomic      Atomic             Coordinates (Angstroms)
 Number     Number       Type             X           Y           Z
 ---------------------------------------------------------------------
      1          8           0        0.000000    0.118559    0.000000
      2          1           0        0.783290   -0.432864    0.000000
      3          1           0       -0.783290   -0.515604    0.000000
 ---------------------------------------------------------------------

 SCF Done:  E(RB2PLYPD3) =  -76.3321845322     A.U. after   10 cycles
 E2(B2PLYPD3) =    -0.9075833321D-01 E(B2PLYPD3) =    -0.76422942865421D+02

 The electronic state is 1-A'.
 Alpha  occ. eigenvalues --  -19.73444  -1.14538  -0.60409  -0.46905  -0.39739
 Alpha virt. eigenvalues --    0.04246   0.09957   0.27628   0.30429   0.30473
 Alpha virt. eigenvalues --    0.34773   0.43376   0.50271   0.55750   0.62355
 Alpha virt. eigenvalues --    0.66169   0.80406   0.92750   0.96446   1.02138

 Mulliken charges:
               1
     1  O   -0.462164
     2  H    0.221346
     3  H    0.240818
 Sum of Mulliken charges =   0.00000

 Dipole moment (field-independent basis, Debye):
    X=              0.0247    Y=             -1.9586    Z=              0.0000  Tot=              1.9588
 Quadrupole moment (field-independent basis, Debye-Ang):
   XX=             -4.2353   YY=             -6.3679   ZZ=             -7.6499
   XY=              0.1401   XZ=              0.0000   YZ=              0.0000

 1\1\GINC-NODE26\SP\RB2PLYPD3-FC\def2QZVP\H2O1\BOITTIER\26-Aug-2020\0\\
 #p B2PLYPD3/Def2QZVP\\h2o\\0,1\O,0,-5.326605,-0.765596,0.919169\H,0,-4
 .368927,-0.755263,0.938054\H,0,-5.609308,0.188847,0.761617\\Version=ES
 64L-G09RevD.01\State=1-A'\HF=-76.3321845\MP2=-76.4229429\RMSD=4.948e-0
 9\PG=CS [SG(H2O1)]\\@

 MANHOOD BEGINS BY TRYING TO SHAVE FACE,

 Normal termination of Gaussian 09 at Wed Aug 26 11:57:15 2020.
