 Gaussian 09, Revision D.01,
 Gaussian 09:  ES64L-G09RevD.01 24-Apr-2013

 --------------------
 #p B2PLYPD3/Def2QZVP
 --------------------

 ---
 h2o
 ---
 Symbolic Z-matrix:
 Charge =  0 Multiplicity = 1

                         Standard orientation:
 ---------------------------------------------------------------------
 Center     Atomic      Atomic             Coordinates (Angstroms)
 Number     Number       Type             X           Y           Z
 ---------------------------------------------------------------------
      1          8           0        0.000000    0.119139    0.000000
      2          1           0        0.759145   -0.469881    0.000000
      3          1           0       -0.759145   -0.483233    0.000000
 ---------------------------------------------------------------------

 SCF Done:  E(RB2PLYPD3) =  -76.3347770861     A.U. after   10 cycles
 E2(B2PLYPD3) =    -0.9022782520D-01 E(B2PLYPD3) =    -0.76425004911332D+02

 The electronic state is 1-A'.
 Alpha  occ. eigenvalues --  -19.73267  -1.15448  -0.60827  -0.47549  -0.39935
 Alpha virt. eigenvalues --    0.04449   0.10164   0.27570   0.30424   0.30774
 Alpha virt. eigenvalues --    0.35776   0.43804   0.50039   0.56317   0.61870
 Alpha virt. eigenvalues --    0.65808   0.81051   0.93741   0.96044   1.03217

 Mulliken charges:
               1
     1  O   -0.445967
     2  H    0.221220
     3  H    0.224746
 Sum of Mulliken charges =   0.00000

 Dipole moment (field-independent basis, Debye):
    X=              0.0043    Y=             -1.9792    Z=              0.0000  Tot=              1.9792
 Quadrupole moment (field-independent basis, Debye-Ang):
   XX=             -4.3627   YY=             -6.3030   ZZ=             -7.6061
   XY=              0.0217   XZ=              0.0000   YZ=              0.0000

 1\1\GINC-NODE19\SP\RB2PLYPD3-FC\def2QZVP\H2O1\BOITTIER\26-Aug-2020\0\\
 #p B2PLYPD3/Def2QZVP\\h2o\\0,1\O,0,-5.326605,-0.766321,0.916264\H,0,-4
 .368927,-0.70534,0.965051\H,0,-5.609308,0.150514,0.779715\\Version=ES6
 4L-G09RevD.01\State=1-A'\HF=-76.3347771\MP2=-76.4250049\RMSD=4.121e-09
 \PG=CS [SG(H2O1)]\\@

 ABOVE ALL I AM AN OPTIMIST FOR NUMBER THEORY,

 Normal termination of Gaussian 09 at Wed Aug 26 11:39:34 2020.
