 Gaussian 09, Revision D.01,
 Gaussian 09:  ES64L-G09RevD.01 24-Apr-2013

 --------------------
 #p B2PLYPD3/Def2QZVP
 --------------------

 ---
 h2o
 ---
 Symbolic Z-matrix:
 Charge =  0 Multiplicity = 1

                         Standard orientation:
 ---------------------------------------------------------------------
 Center     Atomic      Atomic             Coordinates (Angstroms)
 Number     Number       Type             X           Y           Z
 ---------------------------------------------------------------------
      1          8           0        0.000000    0.119838    0.000000
      2          1           0        0.742065   -0.492132    0.000000
      3          1           0       -0.742065   -0.466576    0.000000
 ---------------------------------------------------------------------

 SCF Done:  E(RB2PLYPD3) =  -76.3348423720     A.U. after   10 cycles
 E2(B2PLYPD3) =    -0.8991271398D-01 E(B2PLYPD3) =    -0.76424755085997D+02

 The electronic state is 1-A'.
 Alpha  occ. eigenvalues --  -19.73151  -1.16100  -0.61029  -0.48002  -0.40069
 Alpha virt. eigenvalues --    0.04536   0.10300   0.27521   0.30392   0.30845
 Alpha virt. eigenvalues --    0.36521   0.44133   0.49879   0.56695   0.61503
 Alpha virt. eigenvalues --    0.65557   0.81383   0.94241   0.95795   1.03712

 Mulliken charges:
               1
     1  O   -0.433890
     2  H    0.220593
     3  H    0.213297
 Sum of Mulliken charges =   0.00000

 Dipole moment (field-independent basis, Debye):
    X=             -0.0086    Y=             -1.9956    Z=              0.0000  Tot=              1.9956
 Quadrupole moment (field-independent basis, Debye-Ang):
   XX=             -4.4542   YY=             -6.2497   ZZ=             -7.5778
   XY=             -0.0403   XZ=              0.0000   YZ=              0.0000

 1\1\GINC-NODE02\SP\RB2PLYPD3-FC\def2QZVP\H2O1\BOITTIER\26-Aug-2020\0\\
 #p B2PLYPD3/Def2QZVP\\h2o\\0,1\O,0,-5.326605,-0.766094,0.921385\H,0,-4
 .368927,-0.676539,0.922692\H,0,-5.609308,0.118085,0.740142\\Version=ES
 64L-G09RevD.01\State=1-A'\HF=-76.3348424\MP2=-76.4247551\RMSD=4.511e-0
 9\PG=CS [SG(H2O1)]\\@

 FORGIVE MY NONSENSE AS I ALSO FORGIVE THOSE WHO THINK THEY TALK SENSE

 Normal termination of Gaussian 09 at Wed Aug 26 09:08:34 2020.
