 Gaussian 09, Revision D.01,
 Gaussian 09:  ES64L-G09RevD.01 24-Apr-2013

 --------------------
 #p B2PLYPD3/Def2QZVP
 --------------------

 ---
 h2o
 ---
 Symbolic Z-matrix:
 Charge =  0 Multiplicity = 1

                         Standard orientation:
 ---------------------------------------------------------------------
 Center     Atomic      Atomic             Coordinates (Angstroms)
 Number     Number       Type             X           Y           Z
 ---------------------------------------------------------------------
      1          8           0        0.000000    0.114970    0.000000
      2          1           0        0.766174   -0.459871    0.000000
      3          1           0       -0.766174   -0.459889    0.000000
 ---------------------------------------------------------------------

 SCF Done:  E(RB2PLYPD3) =  -76.3351598817     A.U. after   10 cycles
 E2(B2PLYPD3) =    -0.8992067692D-01 E(B2PLYPD3) =    -0.76425080558615D+02

 The electronic state is 1-A'.
 Alpha  occ. eigenvalues --  -19.73051  -1.15605  -0.61608  -0.47174  -0.39934
 Alpha virt. eigenvalues --    0.04576   0.10189   0.27483   0.30415   0.31163
 Alpha virt. eigenvalues --    0.35677   0.43990   0.50572   0.56033   0.62665
 Alpha virt. eigenvalues --    0.65577   0.81075   0.93713   0.95953   1.04272

 Mulliken charges:
               1
     1  O   -0.445941
     2  H    0.222968
     3  H    0.222973
 Sum of Mulliken charges =   0.00000

 Dipole moment (field-independent basis, Debye):
    X=              0.0000    Y=             -1.9357    Z=              0.0000  Tot=              1.9357
 Quadrupole moment (field-independent basis, Debye-Ang):
   XX=             -4.2710   YY=             -6.3723   ZZ=             -7.5945
   XY=              0.0000   XZ=              0.0000   YZ=              0.0000

 1\1\GINC-NODE07\SP\RB2PLYPD3-FC\def2QZVP\H2O1\BOITTIER\26-Aug-2020\0\\
 #p B2PLYPD3/Def2QZVP\\h2o\\0,1\O,0,-5.326605,-0.762877,0.920648\H,0,-4
 .368927,-0.749112,0.909308\H,0,-5.609308,0.139195,0.766274\\Version=ES
 64L-G09RevD.01\State=1-A'\HF=-76.3351599\MP2=-76.4250806\RMSD=3.927e-0
 9\PG=CS [SG(H2O1)]\\@

 DIATOMIC MOLECULES ARE PECULIAR BECAUSE THEY ONLY HAVE TWO ENDS,

 Normal termination of Gaussian 09 at Wed Aug 26 09:34:04 2020.
