 Gaussian 09, Revision D.01,
 Gaussian 09:  ES64L-G09RevD.01 24-Apr-2013

 --------------------
 #p B2PLYPD3/Def2QZVP
 --------------------

 ---
 h2o
 ---
 Symbolic Z-matrix:
 Charge =  0 Multiplicity = 1

                         Standard orientation:
 ---------------------------------------------------------------------
 Center     Atomic      Atomic             Coordinates (Angstroms)
 Number     Number       Type             X           Y           Z
 ---------------------------------------------------------------------
      1          8           0        0.000000    0.127829    0.000000
      2          1           0        0.744838   -0.490182    0.000000
      3          1           0       -0.744838   -0.532451    0.000000
 ---------------------------------------------------------------------

 SCF Done:  E(RB2PLYPD3) =  -76.3322464884     A.U. after   10 cycles
 E2(B2PLYPD3) =    -0.9097337360D-01 E(B2PLYPD3) =    -0.76423219862006D+02

 The electronic state is 1-A'.
 Alpha  occ. eigenvalues --  -19.73729  -1.15056  -0.59161  -0.48280  -0.39927
 Alpha virt. eigenvalues --    0.04147   0.10079   0.27774   0.29915   0.30441
 Alpha virt. eigenvalues --    0.35750   0.43403   0.49122   0.56863   0.60323
 Alpha virt. eigenvalues --    0.66291   0.80863   0.93823   0.96349   1.01229

 Mulliken charges:
               1
     1  O   -0.446475
     2  H    0.218035
     3  H    0.228440
 Sum of Mulliken charges =   0.00000

 Dipole moment (field-independent basis, Debye):
    X=              0.0158    Y=             -2.0663    Z=              0.0000  Tot=              2.0663
 Quadrupole moment (field-independent basis, Debye-Ang):
   XX=             -4.5543   YY=             -6.1562   ZZ=             -7.6344
   XY=              0.0640   XZ=              0.0000   YZ=              0.0000

 1\1\GINC-NODE28\SP\RB2PLYPD3-FC\def2QZVP\H2O1\BOITTIER\26-Aug-2020\0\\
 #p B2PLYPD3/Def2QZVP\\h2o\\0,1\O,0,-5.326605,-0.76829,0.933121\H,0,-4.
 368927,-0.661184,0.843111\H,0,-5.609308,0.137861,0.633585\\Version=ES6
 4L-G09RevD.01\State=1-A'\HF=-76.3322465\MP2=-76.4232199\RMSD=4.692e-09
 \PG=CS [SG(H2O1)]\\@

 GOD DOES NOT PLAY WITH DICE.

 Normal termination of Gaussian 09 at Wed Aug 26 09:12:24 2020.
