 Gaussian 09, Revision D.01,
 Gaussian 09:  ES64L-G09RevD.01 24-Apr-2013

 --------------------
 #p B2PLYPD3/Def2QZVP
 --------------------

 ---
 h2o
 ---
 Symbolic Z-matrix:
 Charge =  0 Multiplicity = 1

                         Standard orientation:
 ---------------------------------------------------------------------
 Center     Atomic      Atomic             Coordinates (Angstroms)
 Number     Number       Type             X           Y           Z
 ---------------------------------------------------------------------
      1          8           0        0.000000    0.120595    0.000000
      2          1           0        0.742734   -0.493694    0.000000
      3          1           0       -0.742734   -0.471069    0.000000
 ---------------------------------------------------------------------

 SCF Done:  E(RB2PLYPD3) =  -76.3347757402     A.U. after   10 cycles
 E2(B2PLYPD3) =    -0.9001817950D-01 E(B2PLYPD3) =    -0.76424793919689D+02

 The electronic state is 1-A'.
 Alpha  occ. eigenvalues --  -19.73211  -1.15983  -0.60840  -0.48022  -0.40051
 Alpha virt. eigenvalues --    0.04499   0.10278   0.27547   0.30398   0.30762
 Alpha virt. eigenvalues --    0.36437   0.44050   0.49804   0.56707   0.61392
 Alpha virt. eigenvalues --    0.65636   0.81328   0.94202   0.95852   1.03452

 Mulliken charges:
               1
     1  O   -0.435577
     2  H    0.220968
     3  H    0.214609
 Sum of Mulliken charges =   0.00000

 Dipole moment (field-independent basis, Debye):
    X=             -0.0077    Y=             -2.0023    Z=              0.0000  Tot=              2.0023
 Quadrupole moment (field-independent basis, Debye-Ang):
   XX=             -4.4616   YY=             -6.2423   ZZ=             -7.5839
   XY=             -0.0356   XZ=              0.0000   YZ=              0.0000

 1\1\GINC-NODE38\SP\RB2PLYPD3-FC\def2QZVP\H2O1\BOITTIER\26-Aug-2020\0\\
 #p B2PLYPD3/Def2QZVP\\h2o\\0,1\O,0,-5.326605,-0.764467,0.929607\H,0,-4
 .368927,-0.692919,0.847514\H,0,-5.609308,0.108428,0.684957\\Version=ES
 64L-G09RevD.01\State=1-A'\HF=-76.3347757\MP2=-76.4247939\RMSD=4.478e-0
 9\PG=CS [SG(H2O1)]\\@

 UNLESS WE CHANGE DIRECTIONS, WE WILL WIND UP WHERE WE ARE HEADED.

 Normal termination of Gaussian 09 at Wed Aug 26 09:26:27 2020.
