 Gaussian 09, Revision D.01,
 Gaussian 09:  ES64L-G09RevD.01 24-Apr-2013

 --------------------
 #p B2PLYPD3/Def2QZVP
 --------------------

 ---
 h2o
 ---
 Symbolic Z-matrix:
 Charge =  0 Multiplicity = 1

                         Standard orientation:
 ---------------------------------------------------------------------
 Center     Atomic      Atomic             Coordinates (Angstroms)
 Number     Number       Type             X           Y           Z
 ---------------------------------------------------------------------
      1          8           0        0.000000    0.119311    0.000000
      2          1           0        0.760473   -0.465094    0.000000
      3          1           0       -0.760473   -0.489397    0.000000
 ---------------------------------------------------------------------

 SCF Done:  E(RB2PLYPD3) =  -76.3346128010     A.U. after   10 cycles
 E2(B2PLYPD3) =    -0.9028033956D-01 E(B2PLYPD3) =    -0.76424893140549D+02

 The electronic state is 1-A'.
 Alpha  occ. eigenvalues --  -19.73291  -1.15375  -0.60759  -0.47522  -0.39922
 Alpha virt. eigenvalues --    0.04430   0.10148   0.27580   0.30428   0.30733
 Alpha virt. eigenvalues --    0.35706   0.43764   0.50028   0.56291   0.61865
 Alpha virt. eigenvalues --    0.65845   0.81009   0.93676   0.96079   1.03086

 Mulliken charges:
               1
     1  O   -0.447116
     2  H    0.220380
     3  H    0.226736
 Sum of Mulliken charges =   0.00000

 Dipole moment (field-independent basis, Debye):
    X=              0.0078    Y=             -1.9800    Z=              0.0000  Tot=              1.9800
 Quadrupole moment (field-independent basis, Debye-Ang):
   XX=             -4.3586   YY=             -6.3041   ZZ=             -7.6097
   XY=              0.0396   XZ=              0.0000   YZ=              0.0000

 1\1\GINC-NODE03\SP\RB2PLYPD3-FC\def2QZVP\H2O1\BOITTIER\26-Aug-2020\0\\
 #p B2PLYPD3/Def2QZVP\\h2o\\0,1\O,0,-5.326605,-0.765435,0.922927\H,0,-4
 .368927,-0.716033,0.906796\H,0,-5.609308,0.147035,0.732343\\Version=ES
 64L-G09RevD.01\State=1-A'\HF=-76.3346128\MP2=-76.4248931\RMSD=4.182e-0
 9\PG=CS [SG(H2O1)]\\@

 IN THE UNIVERSE THE DIFFICULT THINGS ARE DONE AS IF THEY WERE EASY.

 Normal termination of Gaussian 09 at Wed Aug 26 08:46:13 2020.
