 Gaussian 09, Revision D.01,
 Gaussian 09:  ES64L-G09RevD.01 24-Apr-2013

 --------------------
 #p B2PLYPD3/Def2QZVP
 --------------------

 ---
 h2o
 ---
 Symbolic Z-matrix:
 Charge =  0 Multiplicity = 1

                         Standard orientation:
 ---------------------------------------------------------------------
 Center     Atomic      Atomic             Coordinates (Angstroms)
 Number     Number       Type             X           Y           Z
 ---------------------------------------------------------------------
      1          8           0        0.000000    0.121959    0.000000
      2          1           0        0.757505   -0.476053    0.000000
      3          1           0       -0.757505   -0.499621    0.000000
 ---------------------------------------------------------------------

 SCF Done:  E(RB2PLYPD3) =  -76.3340640287     A.U. after   10 cycles
 E2(B2PLYPD3) =    -0.9052592642D-01 E(B2PLYPD3) =    -0.76424589955091D+02

 The electronic state is 1-A'.
 Alpha  occ. eigenvalues --  -19.73444  -1.15204  -0.60228  -0.47718  -0.39909
 Alpha virt. eigenvalues --    0.04335   0.10114   0.27645   0.30436   0.30471
 Alpha virt. eigenvalues --    0.35665   0.43610   0.49725   0.56436   0.61397
 Alpha virt. eigenvalues --    0.66023   0.80939   0.93663   0.96176   1.02408

 Mulliken charges:
               1
     1  O   -0.448249
     2  H    0.221124
     3  H    0.227125
 Sum of Mulliken charges =   0.00000

 Dipole moment (field-independent basis, Debye):
    X=              0.0079    Y=             -2.0062    Z=              0.0000  Tot=              2.0062
 Quadrupole moment (field-independent basis, Debye-Ang):
   XX=             -4.4100   YY=             -6.2636   ZZ=             -7.6204
   XY=              0.0377   XZ=              0.0000   YZ=              0.0000

 1\1\GINC-NODE22\SP\RB2PLYPD3-FC\def2QZVP\H2O1\BOITTIER\26-Aug-2020\0\\
 #p B2PLYPD3/Def2QZVP\\h2o\\0,1\O,0,-5.326605,-0.768379,0.913758\H,0,-4
 .368927,-0.683114,0.997512\H,0,-5.609308,0.161222,0.786887\\Version=ES
 64L-G09RevD.01\State=1-A'\HF=-76.334064\MP2=-76.42459\RMSD=4.254e-09\P
 G=CS [SG(H2O1)]\\@

 IF YOU PERCEIVE THAT THERE ARE FOUR POSSIBLE WAYS IN

 Normal termination of Gaussian 09 at Wed Aug 26 08:35:16 2020.
