 Gaussian 09, Revision D.01,
 Gaussian 09:  ES64L-G09RevD.01 24-Apr-2013

 --------------------
 #p B2PLYPD3/Def2QZVP
 --------------------

 ---
 h2o
 ---
 Symbolic Z-matrix:
 Charge =  0 Multiplicity = 1

                         Standard orientation:
 ---------------------------------------------------------------------
 Center     Atomic      Atomic             Coordinates (Angstroms)
 Number     Number       Type             X           Y           Z
 ---------------------------------------------------------------------
      1          8           0        0.000000    0.121993    0.000000
      2          1           0        0.766658   -0.460136    0.000000
      3          1           0       -0.766658   -0.515808    0.000000
 ---------------------------------------------------------------------

 SCF Done:  E(RB2PLYPD3) =  -76.3330318303     A.U. after   10 cycles
 E2(B2PLYPD3) =    -0.9075179576D-01 E(B2PLYPD3) =    -0.76423783626022D+02

 The electronic state is 1-A'.
 Alpha  occ. eigenvalues --  -19.73527  -1.14835  -0.60031  -0.47483  -0.39833
 Alpha virt. eigenvalues --    0.04250   0.10029   0.27675   0.30311   0.30456
 Alpha virt. eigenvalues --    0.35270   0.43437   0.49766   0.56224   0.61541
 Alpha virt. eigenvalues --    0.66178   0.80709   0.93246   0.96334   1.01963

 Mulliken charges:
               1
     1  O   -0.454349
     2  H    0.220415
     3  H    0.233934
 Sum of Mulliken charges =   0.00000

 Dipole moment (field-independent basis, Debye):
    X=              0.0183    Y=             -2.0008    Z=              0.0000  Tot=              2.0008
 Quadrupole moment (field-independent basis, Debye-Ang):
   XX=             -4.3658   YY=             -6.2849   ZZ=             -7.6381
   XY=              0.0902   XZ=              0.0000   YZ=              0.0000

 1\1\GINC-NODE03\SP\RB2PLYPD3-FC\def2QZVP\H2O1\BOITTIER\26-Aug-2020\0\\
 #p B2PLYPD3/Def2QZVP\\h2o\\0,1\O,0,-5.326605,-0.768319,0.915272\H,0,-4
 .368927,-0.700617,0.985327\H,0,-5.609308,0.177768,0.775438\\Version=ES
 64L-G09RevD.01\State=1-A'\HF=-76.3330318\MP2=-76.4237836\RMSD=4.520e-0
 9\PG=CS [SG(H2O1)]\\@

 WE SHOULD BE CAREFUL TO GET OUT OF AN EXPERIENCE ONLY THE WISDOM

 Normal termination of Gaussian 09 at Wed Aug 26 08:48:51 2020.
