 Gaussian 09, Revision D.01,
 Gaussian 09:  ES64L-G09RevD.01 24-Apr-2013

 --------------------
 #p B2PLYPD3/Def2QZVP
 --------------------

 ---
 h2o
 ---
 Symbolic Z-matrix:
 Charge =  0 Multiplicity = 1

                         Standard orientation:
 ---------------------------------------------------------------------
 Center     Atomic      Atomic             Coordinates (Angstroms)
 Number     Number       Type             X           Y           Z
 ---------------------------------------------------------------------
      1          8           0        0.000000    0.120101    0.000000
      2          1           0        0.775279   -0.442973    0.000000
      3          1           0       -0.775279   -0.517833    0.000000
 ---------------------------------------------------------------------

 SCF Done:  E(RB2PLYPD3) =  -76.3325905991     A.U. after   10 cycles
 E2(B2PLYPD3) =    -0.9073899009D-01 E(B2PLYPD3) =    -0.76423329589229D+02

 The electronic state is 1-A'.
 Alpha  occ. eigenvalues --  -19.73475  -1.14697  -0.60258  -0.47175  -0.39786
 Alpha virt. eigenvalues --    0.04252   0.09995   0.27646   0.30372   0.30464
 Alpha virt. eigenvalues --    0.35028   0.43422   0.50031   0.55970   0.61983
 Alpha virt. eigenvalues --    0.66158   0.80568   0.92963   0.96387   1.02073

 Mulliken charges:
               1
     1  O   -0.458094
     2  H    0.220085
     3  H    0.238009
 Sum of Mulliken charges =   0.00000

 Dipole moment (field-independent basis, Debye):
    X=              0.0234    Y=             -1.9779    Z=              0.0000  Tot=              1.9781
 Quadrupole moment (field-independent basis, Debye-Ang):
   XX=             -4.2967   YY=             -6.3290   ZZ=             -7.6434
   XY=              0.1242   XZ=              0.0000   YZ=              0.0000

 1\1\GINC-NODE35\SP\RB2PLYPD3-FC\def2QZVP\H2O1\BOITTIER\26-Aug-2020\0\\
 #p B2PLYPD3/Def2QZVP\\h2o\\0,1\O,0,-5.326605,-0.766268,0.921487\H,0,-4
 .368927,-0.735319,0.923627\H,0,-5.609308,0.179655,0.738935\\Version=ES
 64L-G09RevD.01\State=1-A'\HF=-76.3325906\MP2=-76.4233296\RMSD=4.798e-0
 9\PG=CS [SG(H2O1)]\\@

 WE'RE IN THE POSITION OF A VISITOR FROM ANOTHER

 Normal termination of Gaussian 09 at Wed Aug 26 11:51:20 2020.
