 Gaussian 09, Revision D.01,
 Gaussian 09:  ES64L-G09RevD.01 24-Apr-2013

 --------------------
 #p B2PLYPD3/Def2QZVP
 --------------------

 ---
 h2o
 ---
 Symbolic Z-matrix:
 Charge =  0 Multiplicity = 1

                         Standard orientation:
 ---------------------------------------------------------------------
 Center     Atomic      Atomic             Coordinates (Angstroms)
 Number     Number       Type             X           Y           Z
 ---------------------------------------------------------------------
      1          8           0        0.000000    0.112379    0.000000
      2          1           0        0.711692   -0.536896    0.000000
      3          1           0       -0.711692   -0.362133    0.000000
 ---------------------------------------------------------------------

 SCF Done:  E(RB2PLYPD3) =  -76.3233138050     A.U. after   10 cycles
 E2(B2PLYPD3) =    -0.8844513858D-01 E(B2PLYPD3) =    -0.76411758943559D+02

 The electronic state is 1-A'.
 Alpha  occ. eigenvalues --  -19.72271  -1.18513  -0.63479  -0.48232  -0.40446
 Alpha virt. eigenvalues --    0.04910   0.10665   0.27101   0.30276   0.31363
 Alpha virt. eigenvalues --    0.38103   0.45832   0.50578   0.56828   0.62395
 Alpha virt. eigenvalues --    0.64348   0.82206   0.94101   0.95367   1.05462

 Mulliken charges:
               1
     1  O   -0.384709
     2  H    0.225323
     3  H    0.159386
 Sum of Mulliken charges =   0.00000

 Dipole moment (field-independent basis, Debye):
    X=             -0.0563    Y=             -1.9388    Z=              0.0000  Tot=              1.9396
 Quadrupole moment (field-independent basis, Debye-Ang):
   XX=             -4.4902   YY=             -6.2358   ZZ=             -7.4743
   XY=             -0.2735   XZ=              0.0000   YZ=              0.0000

 1\1\GINC-NODE35\SP\RB2PLYPD3-FC\def2QZVP\H2O1\BOITTIER\26-Aug-2020\0\\
 #p B2PLYPD3/Def2QZVP\\h2o\\0,1\O,0,-5.326605,-0.759922,0.925328\H,0,-4
 .368927,-0.68449,0.853039\H,0,-5.609308,0.027288,0.746313\\Version=ES6
 4L-G09RevD.01\State=1-A'\HF=-76.3233138\MP2=-76.4117589\RMSD=6.681e-09
 \PG=CS [SG(H2O1)]\\@

 HERE WE GO......

 Normal termination of Gaussian 09 at Wed Aug 26 07:57:37 2020.
