 Gaussian 09, Revision D.01,
 Gaussian 09:  ES64L-G09RevD.01 24-Apr-2013

 --------------------
 #p B2PLYPD3/Def2QZVP
 --------------------

 ---
 h2o
 ---
 Symbolic Z-matrix:
 Charge =  0 Multiplicity = 1

                         Standard orientation:
 ---------------------------------------------------------------------
 Center     Atomic      Atomic             Coordinates (Angstroms)
 Number     Number       Type             X           Y           Z
 ---------------------------------------------------------------------
      1          8           0        0.000000    0.117175    0.000000
      2          1           0        0.756219   -0.473362    0.000000
      3          1           0       -0.756219   -0.464036    0.000000
 ---------------------------------------------------------------------

 SCF Done:  E(RB2PLYPD3) =  -76.3351693185     A.U. after   10 cycles
 E2(B2PLYPD3) =    -0.8993109399D-01 E(B2PLYPD3) =    -0.76425100412526D+02

 The electronic state is 1-A'.
 Alpha  occ. eigenvalues --  -19.73105  -1.15791  -0.61338  -0.47526  -0.39989
 Alpha virt. eigenvalues --    0.04556   0.10232   0.27504   0.30406   0.31013
 Alpha virt. eigenvalues --    0.36030   0.44034   0.50243   0.56314   0.62147
 Alpha virt. eigenvalues --    0.65584   0.81220   0.93917   0.95885   1.03976

 Mulliken charges:
               1
     1  O   -0.441063
     2  H    0.221820
     3  H    0.219243
 Sum of Mulliken charges =   0.00000

 Dipole moment (field-independent basis, Debye):
    X=             -0.0029    Y=             -1.9625    Z=              0.0000  Tot=              1.9625
 Quadrupole moment (field-independent basis, Debye-Ang):
   XX=             -4.3497   YY=             -6.3194   ZZ=             -7.5884
   XY=             -0.0153   XZ=              0.0000   YZ=              0.0000

 1\1\GINC-NODE01\SP\RB2PLYPD3-FC\def2QZVP\H2O1\BOITTIER\26-Aug-2020\0\\
 #p B2PLYPD3/Def2QZVP\\h2o\\0,1\O,0,-5.326605,-0.763492,0.924861\H,0,-4
 .368927,-0.726172,0.879458\H,0,-5.609308,0.126083,0.728878\\Version=ES
 64L-G09RevD.01\State=1-A'\HF=-76.3351693\MP2=-76.4251004\RMSD=4.120e-0
 9\PG=CS [SG(H2O1)]\\@

 THE PROGRESS OF RIVERS TO THE SEA IS NOT AS RAPID

 Normal termination of Gaussian 09 at Wed Aug 26 09:48:11 2020.
