 Gaussian 09, Revision D.01,
 Gaussian 09:  ES64L-G09RevD.01 24-Apr-2013

 --------------------
 #p B2PLYPD3/Def2QZVP
 --------------------

 ---
 h2o
 ---
 Symbolic Z-matrix:
 Charge =  0 Multiplicity = 1

                         Standard orientation:
 ---------------------------------------------------------------------
 Center     Atomic      Atomic             Coordinates (Angstroms)
 Number     Number       Type             X           Y           Z
 ---------------------------------------------------------------------
      1          8           0        0.000000    0.116048    0.000000
      2          1           0        0.746052   -0.487247    0.000000
      3          1           0       -0.746052   -0.441141    0.000000
 ---------------------------------------------------------------------

 SCF Done:  E(RB2PLYPD3) =  -76.3347609314     A.U. after   10 cycles
 E2(B2PLYPD3) =    -0.8956871238D-01 E(B2PLYPD3) =    -0.76424329643783D+02

 The electronic state is 1-A'.
 Alpha  occ. eigenvalues --  -19.72925  -1.16370  -0.61828  -0.47711  -0.40092
 Alpha virt. eigenvalues --    0.04666   0.10341   0.27426   0.30376   0.31173
 Alpha virt. eigenvalues --    0.36573   0.44388   0.50312   0.56472   0.62188
 Alpha virt. eigenvalues --    0.65294   0.81498   0.94189   0.95661   1.04638

 Mulliken charges:
               1
     1  O   -0.430751
     2  H    0.222212
     3  H    0.208540
 Sum of Mulliken charges =   0.00000

 Dipole moment (field-independent basis, Debye):
    X=             -0.0145    Y=             -1.9575    Z=              0.0000  Tot=              1.9575
 Quadrupole moment (field-independent basis, Debye-Ang):
   XX=             -4.3828   YY=             -6.3048   ZZ=             -7.5618
   XY=             -0.0747   XZ=              0.0000   YZ=              0.0000

 1\1\GINC-NODE32\SP\RB2PLYPD3-FC\def2QZVP\H2O1\BOITTIER\26-Aug-2020\0\\
 #p B2PLYPD3/Def2QZVP\\h2o\\0,1\O,0,-5.326605,-0.763279,0.922394\H,0,-4
 .368927,-0.710423,0.897522\H,0,-5.609308,0.106928,0.749558\\Version=ES
 64L-G09RevD.01\State=1-A'\HF=-76.3347609\MP2=-76.4243296\RMSD=4.710e-0
 9\PG=CS [SG(H2O1)]\\@

 RESEARCH IS WHAT I AM DOING WHEN I DON'T KNOW WHAT I AM DOING.

 Normal termination of Gaussian 09 at Wed Aug 26 11:05:47 2020.
