 Gaussian 09, Revision D.01,
 Gaussian 09:  ES64L-G09RevD.01 24-Apr-2013

 --------------------
 #p B2PLYPD3/Def2QZVP
 --------------------

 ---
 h2o
 ---
 Symbolic Z-matrix:
 Charge =  0 Multiplicity = 1

                         Standard orientation:
 ---------------------------------------------------------------------
 Center     Atomic      Atomic             Coordinates (Angstroms)
 Number     Number       Type             X           Y           Z
 ---------------------------------------------------------------------
      1          8           0        0.000000    0.114805    0.000000
      2          1           0        0.762871   -0.464867    0.000000
      3          1           0       -0.762871   -0.453576    0.000000
 ---------------------------------------------------------------------

 SCF Done:  E(RB2PLYPD3) =  -76.3352246006     A.U. after   10 cycles
 E2(B2PLYPD3) =    -0.8982325804D-01 E(B2PLYPD3) =    -0.76425047858591D+02

 The electronic state is 1-A'.
 Alpha  occ. eigenvalues --  -19.73008  -1.15766  -0.61724  -0.47245  -0.39965
 Alpha virt. eigenvalues --    0.04607   0.10221   0.27465   0.30406   0.31204
 Alpha virt. eigenvalues --    0.35842   0.44081   0.50568   0.56095   0.62644
 Alpha virt. eigenvalues --    0.65501   0.81168   0.93815   0.95885   1.04459

 Mulliken charges:
               1
     1  O   -0.443021
     2  H    0.223071
     3  H    0.219950
 Sum of Mulliken charges =   0.00000

 Dipole moment (field-independent basis, Debye):
    X=             -0.0033    Y=             -1.9360    Z=              0.0000  Tot=              1.9360
 Quadrupole moment (field-independent basis, Debye-Ang):
   XX=             -4.2849   YY=             -6.3655   ZZ=             -7.5870
   XY=             -0.0189   XZ=              0.0000   YZ=              0.0000

 1\1\GINC-NODE29\SP\RB2PLYPD3-FC\def2QZVP\H2O1\BOITTIER\26-Aug-2020\0\\
 #p B2PLYPD3/Def2QZVP\\h2o\\0,1\O,0,-5.326605,-0.763218,0.917597\H,0,-4
 .368927,-0.74035,0.935536\H,0,-5.609308,0.135889,0.788313\\Version=ES6
 4L-G09RevD.01\State=1-A'\HF=-76.3352246\MP2=-76.4250479\RMSD=4.003e-09
 \PG=CS [SG(H2O1)]\\@

 AND HERE I AM, FOR ALL MY LORE,

 Normal termination of Gaussian 09 at Wed Aug 26 10:09:43 2020.
