 Gaussian 09, Revision D.01,
 Gaussian 09:  ES64L-G09RevD.01 24-Apr-2013

 --------------------
 #p B2PLYPD3/Def2QZVP
 --------------------

 ---
 h2o
 ---
 Symbolic Z-matrix:
 Charge =  0 Multiplicity = 1

                         Standard orientation:
 ---------------------------------------------------------------------
 Center     Atomic      Atomic             Coordinates (Angstroms)
 Number     Number       Type             X           Y           Z
 ---------------------------------------------------------------------
      1          8           0        0.000000    0.123622    0.000000
      2          1           0        0.729967   -0.510424    0.000000
      3          1           0       -0.729967   -0.478550    0.000000
 ---------------------------------------------------------------------

 SCF Done:  E(RB2PLYPD3) =  -76.3340794304     A.U. after   10 cycles
 E2(B2PLYPD3) =    -0.9010015381D-01 E(B2PLYPD3) =    -0.76424179584169D+02

 The electronic state is 1-A'.
 Alpha  occ. eigenvalues --  -19.73299  -1.16174  -0.60383  -0.48479  -0.40110
 Alpha virt. eigenvalues --    0.04444   0.10322   0.27586   0.30389   0.30551
 Alpha virt. eigenvalues --    0.36770   0.44073   0.49476   0.57070   0.60732
 Alpha virt. eigenvalues --    0.65661   0.81381   0.94513   0.95827   1.03076

 Mulliken charges:
               1
     1  O   -0.430592
     2  H    0.219853
     3  H    0.210739
 Sum of Mulliken charges =   0.00000

 Dipole moment (field-independent basis, Debye):
    X=             -0.0116    Y=             -2.0373    Z=              0.0000  Tot=              2.0373
 Quadrupole moment (field-independent basis, Debye-Ang):
   XX=             -4.5642   YY=             -6.1716   ZZ=             -7.5796
   XY=             -0.0482   XZ=              0.0000   YZ=              0.0000

 1\1\GINC-NODE08\SP\RB2PLYPD3-FC\def2QZVP\H2O1\BOITTIER\26-Aug-2020\0\\
 #p B2PLYPD3/Def2QZVP\\h2o\\0,1\O,0,-5.326605,-0.767208,0.927603\H,0,-4
 .368927,-0.642927,0.879934\H,0,-5.609308,0.102303,0.683693\\Version=ES
 64L-G09RevD.01\State=1-A'\HF=-76.3340794\MP2=-76.4241796\RMSD=4.867e-0
 9\PG=CS [SG(H2O1)]\\@

 The hours that make us happy make us wise.

 Normal termination of Gaussian 09 at Wed Aug 26 08:46:32 2020.
