 Gaussian 09, Revision D.01,
 Gaussian 09:  ES64L-G09RevD.01 24-Apr-2013

 --------------------
 #p B2PLYPD3/Def2QZVP
 --------------------

 ---
 h2o
 ---
 Symbolic Z-matrix:
 Charge =  0 Multiplicity = 1

                         Standard orientation:
 ---------------------------------------------------------------------
 Center     Atomic      Atomic             Coordinates (Angstroms)
 Number     Number       Type             X           Y           Z
 ---------------------------------------------------------------------
      1          8           0        0.000000    0.120093    0.000000
      2          1           0        0.733636   -0.504207    0.000000
      3          1           0       -0.733636   -0.456538    0.000000
 ---------------------------------------------------------------------

 SCF Done:  E(RB2PLYPD3) =  -76.3343274409     A.U. after   10 cycles
 E2(B2PLYPD3) =    -0.8975388740D-01 E(B2PLYPD3) =    -0.76424081328269D+02

 The electronic state is 1-A'.
 Alpha  occ. eigenvalues --  -19.73084  -1.16446  -0.61142  -0.48217  -0.40135
 Alpha virt. eigenvalues --    0.04572   0.10367   0.27490   0.30375   0.30862
 Alpha virt. eigenvalues --    0.36887   0.44322   0.49820   0.56868   0.61344
 Alpha virt. eigenvalues --    0.65418   0.81520   0.94430   0.95682   1.03928

 Mulliken charges:
               1
     1  O   -0.427425
     2  H    0.220798
     3  H    0.206627
 Sum of Mulliken charges =   0.00000

 Dipole moment (field-independent basis, Debye):
    X=             -0.0164    Y=             -2.0026    Z=              0.0000  Tot=              2.0027
 Quadrupole moment (field-independent basis, Debye-Ang):
   XX=             -4.4973   YY=             -6.2234   ZZ=             -7.5636
   XY=             -0.0740   XZ=              0.0000   YZ=              0.0000

 1\1\GINC-NODE03\SP\RB2PLYPD3-FC\def2QZVP\H2O1\BOITTIER\26-Aug-2020\0\\
 #p B2PLYPD3/Def2QZVP\\h2o\\0,1\O,0,-5.326605,-0.765693,0.924119\H,0,-4
 .368927,-0.664882,0.898378\H,0,-5.609308,0.100013,0.720753\\Version=ES
 64L-G09RevD.01\State=1-A'\HF=-76.3343274\MP2=-76.4240813\RMSD=4.968e-0
 9\PG=CS [SG(H2O1)]\\@

 THE HURRIEDER I GO, THE BEHINDER I GET.

 Normal termination of Gaussian 09 at Wed Aug 26 08:32:09 2020.
