 Gaussian 09, Revision D.01,
 Gaussian 09:  ES64L-G09RevD.01 24-Apr-2013

 --------------------
 #p B2PLYPD3/Def2QZVP
 --------------------

 ---
 h2o
 ---
 Symbolic Z-matrix:
 Charge =  0 Multiplicity = 1

                         Standard orientation:
 ---------------------------------------------------------------------
 Center     Atomic      Atomic             Coordinates (Angstroms)
 Number     Number       Type             X           Y           Z
 ---------------------------------------------------------------------
      1          8           0        0.000000    0.121435    0.000000
      2          1           0        0.750950   -0.483104    0.000000
      3          1           0       -0.750950   -0.488379    0.000000
 ---------------------------------------------------------------------

 SCF Done:  E(RB2PLYPD3) =  -76.3345746973     A.U. after   10 cycles
 E2(B2PLYPD3) =    -0.9030827553D-01 E(B2PLYPD3) =    -0.76424882972805D+02

 The electronic state is 1-A'.
 Alpha  occ. eigenvalues --  -19.73348  -1.15534  -0.60480  -0.47859  -0.39971
 Alpha virt. eigenvalues --    0.04408   0.10186   0.27606   0.30420   0.30605
 Alpha virt. eigenvalues --    0.35999   0.43790   0.49751   0.56563   0.61379
 Alpha virt. eigenvalues --    0.65861   0.81114   0.93925   0.96037   1.02857

 Mulliken charges:
               1
     1  O   -0.442952
     2  H    0.220775
     3  H    0.222177
 Sum of Mulliken charges =   0.00000

 Dipole moment (field-independent basis, Debye):
    X=              0.0018    Y=             -2.0053    Z=              0.0000  Tot=              2.0053
 Quadrupole moment (field-independent basis, Debye-Ang):
   XX=             -4.4343   YY=             -6.2535   ZZ=             -7.6047
   XY=              0.0084   XZ=              0.0000   YZ=              0.0000

 1\1\GINC-NODE35\SP\RB2PLYPD3-FC\def2QZVP\H2O1\BOITTIER\26-Aug-2020\0\\
 #p B2PLYPD3/Def2QZVP\\h2o\\0,1\O,0,-5.326605,-0.767894,0.915932\H,0,-4
 .368927,-0.67571,0.977154\H,0,-5.609308,0.146055,0.772491\\Version=ES6
 4L-G09RevD.01\State=1-A'\HF=-76.3345747\MP2=-76.424883\RMSD=4.264e-09\
 PG=CS [SG(H2O1)]\\@

 LAWS OF PROGRAMMING DEFINITION:  A WORKING PROGRAM

 Normal termination of Gaussian 09 at Wed Aug 26 07:33:58 2020.
