 Gaussian 09, Revision D.01,
 Gaussian 09:  ES64L-G09RevD.01 24-Apr-2013

 --------------------
 #p B2PLYPD3/Def2QZVP
 --------------------

 ---
 h2o
 ---
 Symbolic Z-matrix:
 Charge =  0 Multiplicity = 1

                         Standard orientation:
 ---------------------------------------------------------------------
 Center     Atomic      Atomic             Coordinates (Angstroms)
 Number     Number       Type             X           Y           Z
 ---------------------------------------------------------------------
      1          8           0        0.000000    0.118098    0.000000
      2          1           0        0.744282   -0.488987    0.000000
      3          1           0       -0.744282   -0.455799    0.000000
 ---------------------------------------------------------------------

 SCF Done:  E(RB2PLYPD3) =  -76.3349129063     A.U. after   10 cycles
 E2(B2PLYPD3) =    -0.8976028664D-01 E(B2PLYPD3) =    -0.76424673192894D+02

 The electronic state is 1-A'.
 Alpha  occ. eigenvalues --  -19.73051  -1.16208  -0.61388  -0.47861  -0.40076
 Alpha virt. eigenvalues --    0.04595   0.10316   0.27479   0.30386   0.30998
 Alpha virt. eigenvalues --    0.36534   0.44240   0.50074   0.56587   0.61819
 Alpha virt. eigenvalues --    0.65444   0.81432   0.94210   0.95735   1.04139

 Mulliken charges:
               1
     1  O   -0.432822
     2  H    0.221224
     3  H    0.211598
 Sum of Mulliken charges =   0.00000

 Dipole moment (field-independent basis, Debye):
    X=             -0.0108    Y=             -1.9780    Z=              0.0000  Tot=              1.9780
 Quadrupole moment (field-independent basis, Debye-Ang):
   XX=             -4.4195   YY=             -6.2763   ZZ=             -7.5711
   XY=             -0.0530   XZ=              0.0000   YZ=              0.0000

 1\1\GINC-NODE36\SP\RB2PLYPD3-FC\def2QZVP\H2O1\BOITTIER\26-Aug-2020\0\\
 #p B2PLYPD3/Def2QZVP\\h2o\\0,1\O,0,-5.326605,-0.764551,0.923101\H,0,-4
 .368927,-0.695184,0.899672\H,0,-5.609308,0.112042,0.736079\\Version=ES
 64L-G09RevD.01\State=1-A'\HF=-76.3349129\MP2=-76.4246732\RMSD=4.539e-0
 9\PG=CS [SG(H2O1)]\\@

 SCIENCE IS LONG AND LIFE IS SHORT.

 Normal termination of Gaussian 09 at Wed Aug 26 08:32:11 2020.
