 Gaussian 09, Revision D.01,
 Gaussian 09:  ES64L-G09RevD.01 24-Apr-2013

 --------------------
 #p B2PLYPD3/Def2QZVP
 --------------------

 ---
 h2o
 ---
 Symbolic Z-matrix:
 Charge =  0 Multiplicity = 1

                         Standard orientation:
 ---------------------------------------------------------------------
 Center     Atomic      Atomic             Coordinates (Angstroms)
 Number     Number       Type             X           Y           Z
 ---------------------------------------------------------------------
      1          8           0        0.000000    0.118546    0.000000
      2          1           0        0.800931   -0.408442    0.000000
      3          1           0       -0.800931   -0.539926    0.000000
 ---------------------------------------------------------------------

 SCF Done:  E(RB2PLYPD3) =  -76.3285875502     A.U. after   10 cycles
 E2(B2PLYPD3) =    -0.9122149413D-01 E(B2PLYPD3) =    -0.76419809044295D+02

 The electronic state is 1-A'.
 Alpha  occ. eigenvalues --  -19.73588  -1.13870  -0.59991  -0.46441  -0.39590
 Alpha virt. eigenvalues --    0.04027   0.09792   0.27654   0.29943   0.30511
 Alpha virt. eigenvalues --    0.34175   0.43067   0.50426   0.55325   0.62656
 Alpha virt. eigenvalues --    0.66453   0.79807   0.91821   0.96726   1.01264

 Mulliken charges:
               1
     1  O   -0.473508
     2  H    0.222617
     3  H    0.250891
 Sum of Mulliken charges =   0.00000

 Dipole moment (field-independent basis, Debye):
    X=              0.0374    Y=             -1.9466    Z=              0.0000  Tot=              1.9469
 Quadrupole moment (field-independent basis, Debye-Ang):
   XX=             -4.1457   YY=             -6.4056   ZZ=             -7.6852
   XY=              0.2285   XZ=              0.0000   YZ=              0.0000

 1\1\GINC-NODE06\SP\RB2PLYPD3-FC\def2QZVP\H2O1\BOITTIER\26-Aug-2020\0\\
 #p B2PLYPD3/Def2QZVP\\h2o\\0,1\O,0,-5.326605,-0.765871,0.916859\H,0,-4
 .368927,-0.78409,0.958416\H,0,-5.609308,0.222076,0.7786\\Version=ES64L
 -G09RevD.01\State=1-A'\HF=-76.3285876\MP2=-76.419809\RMSD=6.097e-09\PG
 =CS [SG(H2O1)]\\@

 Where a calculator on the ENIAC is equipped with 18,000

 Normal termination of Gaussian 09 at Wed Aug 26 09:14:47 2020.
