 Gaussian 09, Revision D.01,
 Gaussian 09:  ES64L-G09RevD.01 24-Apr-2013

 --------------------
 #p B2PLYPD3/Def2QZVP
 --------------------

 ---
 h2o
 ---
 Symbolic Z-matrix:
 Charge =  0 Multiplicity = 1

                         Standard orientation:
 ---------------------------------------------------------------------
 Center     Atomic      Atomic             Coordinates (Angstroms)
 Number     Number       Type             X           Y           Z
 ---------------------------------------------------------------------
      1          8           0        0.000000    0.117220    0.000000
      2          1           0        0.755074   -0.474195    0.000000
      3          1           0       -0.755074   -0.463564    0.000000
 ---------------------------------------------------------------------

 SCF Done:  E(RB2PLYPD3) =  -76.3351761288     A.U. after   10 cycles
 E2(B2PLYPD3) =    -0.8990923519D-01 E(B2PLYPD3) =    -0.76425085363936D+02

 The electronic state is 1-A'.
 Alpha  occ. eigenvalues --  -19.73097  -1.15836  -0.61354  -0.47556  -0.39998
 Alpha virt. eigenvalues --    0.04563   0.10241   0.27500   0.30404   0.31017
 Alpha virt. eigenvalues --    0.36081   0.44057   0.50231   0.56339   0.62122
 Alpha virt. eigenvalues --    0.65567   0.81245   0.93949   0.95867   1.04009

 Mulliken charges:
               1
     1  O   -0.440220
     2  H    0.221587
     3  H    0.218634
 Sum of Mulliken charges =   0.00000

 Dipole moment (field-independent basis, Debye):
    X=             -0.0033    Y=             -1.9636    Z=              0.0000  Tot=              1.9636
 Quadrupole moment (field-independent basis, Debye-Ang):
   XX=             -4.3558   YY=             -6.3159   ZZ=             -7.5864
   XY=             -0.0174   XZ=              0.0000   YZ=              0.0000

 1\1\GINC-NODE23\SP\RB2PLYPD3-FC\def2QZVP\H2O1\BOITTIER\26-Aug-2020\0\\
 #p B2PLYPD3/Def2QZVP\\h2o\\0,1\O,0,-5.326605,-0.763884,0.923374\H,0,-4
 .368927,-0.720566,0.89364\H,0,-5.609308,0.126761,0.738234\\Version=ES6
 4L-G09RevD.01\State=1-A'\HF=-76.3351761\MP2=-76.4250854\RMSD=4.145e-09
 \PG=CS [SG(H2O1)]\\@

 MY DESCRIPTION OF EXPERIENCE IS NOT WHAT HAPPENS

 Normal termination of Gaussian 09 at Wed Aug 26 08:45:02 2020.
