 Gaussian 09, Revision D.01,
 Gaussian 09:  ES64L-G09RevD.01 24-Apr-2013

 --------------------
 #p B2PLYPD3/Def2QZVP
 --------------------

 ---
 h2o
 ---
 Symbolic Z-matrix:
 Charge =  0 Multiplicity = 1

                         Standard orientation:
 ---------------------------------------------------------------------
 Center     Atomic      Atomic             Coordinates (Angstroms)
 Number     Number       Type             X           Y           Z
 ---------------------------------------------------------------------
      1          8           0        0.000000    0.117942    0.000000
      2          1           0        0.784193   -0.432964    0.000000
      3          1           0       -0.784193   -0.510574    0.000000
 ---------------------------------------------------------------------

 SCF Done:  E(RB2PLYPD3) =  -76.3324268878     A.U. after   10 cycles
 E2(B2PLYPD3) =    -0.9070818972D-01 E(B2PLYPD3) =    -0.76423135077537D+02

 The electronic state is 1-A'.
 Alpha  occ. eigenvalues --  -19.73412  -1.14562  -0.60520  -0.46859  -0.39739
 Alpha virt. eigenvalues --    0.04270   0.09963   0.27615   0.30472   0.30512
 Alpha virt. eigenvalues --    0.34756   0.43397   0.50352   0.55719   0.62465
 Alpha virt. eigenvalues --    0.66138   0.80410   0.92788   0.96430   1.02297

 Mulliken charges:
               1
     1  O   -0.462333
     2  H    0.221991
     3  H    0.240342
 Sum of Mulliken charges =   0.00000

 Dipole moment (field-independent basis, Debye):
    X=              0.0229    Y=             -1.9524    Z=              0.0000  Tot=              1.9525
 Quadrupole moment (field-independent basis, Debye-Ang):
   XX=             -4.2223   YY=             -6.3784   ZZ=             -7.6480
   XY=              0.1320   XZ=              0.0000   YZ=              0.0000

 1\1\GINC-NODE07\SP\RB2PLYPD3-FC\def2QZVP\H2O1\BOITTIER\26-Aug-2020\0\\
 #p B2PLYPD3/Def2QZVP\\h2o\\0,1\O,0,-5.326605,-0.765422,0.917197\H,0,-4
 .368927,-0.758134,0.95264\H,0,-5.609308,0.188931,0.778343\\Version=ES6
 4L-G09RevD.01\State=1-A'\HF=-76.3324269\MP2=-76.4231351\RMSD=4.841e-09
 \PG=CS [SG(H2O1)]\\@

 ... A MOLECULAR SYSTEM ... (PASSES) ... FROM ONE STATE OF EQUILIBRIUM

 Normal termination of Gaussian 09 at Wed Aug 26 12:27:21 2020.
