 Gaussian 09, Revision D.01,
 Gaussian 09:  ES64L-G09RevD.01 24-Apr-2013

 --------------------
 #p B2PLYPD3/Def2QZVP
 --------------------

 ---
 h2o
 ---
 Symbolic Z-matrix:
 Charge =  0 Multiplicity = 1

                         Standard orientation:
 ---------------------------------------------------------------------
 Center     Atomic      Atomic             Coordinates (Angstroms)
 Number     Number       Type             X           Y           Z
 ---------------------------------------------------------------------
      1          8           0        0.000000    0.116258    0.000000
      2          1           0        0.735276   -0.512347    0.000000
      3          1           0       -0.735276   -0.417720    0.000000
 ---------------------------------------------------------------------

 SCF Done:  E(RB2PLYPD3) =  -76.3328793448     A.U. after   10 cycles
 E2(B2PLYPD3) =    -0.8935844952D-01 E(B2PLYPD3) =    -0.76422237794339D+02

 The electronic state is 1-A'.
 Alpha  occ. eigenvalues --  -19.72822  -1.16854  -0.62017  -0.47953  -0.40180
 Alpha virt. eigenvalues --    0.04696   0.10426   0.27372   0.30354   0.31114
 Alpha virt. eigenvalues --    0.37040   0.44698   0.50238   0.56651   0.62025
 Alpha virt. eigenvalues --    0.65095   0.81678   0.94240   0.95571   1.04594

 Mulliken charges:
               1
     1  O   -0.420688
     2  H    0.225161
     3  H    0.195527
 Sum of Mulliken charges =   0.00000

 Dipole moment (field-independent basis, Debye):
    X=             -0.0306    Y=             -1.9650    Z=              0.0000  Tot=              1.9652
 Quadrupole moment (field-independent basis, Debye-Ang):
   XX=             -4.4361   YY=             -6.2691   ZZ=             -7.5429
   XY=             -0.1506   XZ=              0.0000   YZ=              0.0000

 1\1\GINC-NODE05\SP\RB2PLYPD3-FC\def2QZVP\H2O1\BOITTIER\26-Aug-2020\0\\
 #p B2PLYPD3/Def2QZVP\\h2o\\0,1\O,0,-5.326605,-0.760351,0.932139\H,0,-4
 .368927,-0.718994,0.802069\H,0,-5.609308,0.068653,0.690075\\Version=ES
 64L-G09RevD.01\State=1-A'\HF=-76.3328793\MP2=-76.4222378\RMSD=5.862e-0
 9\PG=CS [SG(H2O1)]\\@

 OF ALL THE WONDERS OF THE UNIVERSE, THE GREATEST IS MAN.

 Normal termination of Gaussian 09 at Wed Aug 26 10:11:46 2020.
