 Gaussian 09, Revision D.01,
 Gaussian 09:  ES64L-G09RevD.01 24-Apr-2013

 --------------------
 #p B2PLYPD3/Def2QZVP
 --------------------

 ---
 h2o
 ---
 Symbolic Z-matrix:
 Charge =  0 Multiplicity = 1

                         Standard orientation:
 ---------------------------------------------------------------------
 Center     Atomic      Atomic             Coordinates (Angstroms)
 Number     Number       Type             X           Y           Z
 ---------------------------------------------------------------------
      1          8           0        0.000000    0.111099    0.000000
      2          1           0        0.759876   -0.475165    0.000000
      3          1           0       -0.759876   -0.413630    0.000000
 ---------------------------------------------------------------------

 SCF Done:  E(RB2PLYPD3) =  -76.3343653600     A.U. after   10 cycles
 E2(B2PLYPD3) =    -0.8936053776D-01 E(B2PLYPD3) =    -0.76423725897757D+02

 The electronic state is 1-A'.
 Alpha  occ. eigenvalues --  -19.72722  -1.16311  -0.62648  -0.47107  -0.40044
 Alpha virt. eigenvalues --    0.04766   0.10311   0.27351   0.30375   0.31530
 Alpha virt. eigenvalues --    0.36153   0.44493   0.51016   0.55998   0.63254
 Alpha virt. eigenvalues --    0.65126   0.81387   0.93953   0.95692   1.05378

 Mulliken charges:
               1
     1  O   -0.434245
     2  H    0.226230
     3  H    0.208015
 Sum of Mulliken charges =   0.00000

 Dipole moment (field-independent basis, Debye):
    X=             -0.0172    Y=             -1.9014    Z=              0.0000  Tot=              1.9015
 Quadrupole moment (field-independent basis, Debye-Ang):
   XX=             -4.2494   YY=             -6.3989   ZZ=             -7.5595
   XY=             -0.1046   XZ=              0.0000   YZ=              0.0000

 1\1\GINC-NODE02\SP\RB2PLYPD3-FC\def2QZVP\H2O1\BOITTIER\26-Aug-2020\0\\
 #p B2PLYPD3/Def2QZVP\\h2o\\0,1\O,0,-5.326605,-0.761022,0.911062\H,0,-4
 .368927,-0.755819,0.973855\H,0,-5.609308,0.116208,0.853622\\Version=ES
 64L-G09RevD.01\State=1-A'\HF=-76.3343654\MP2=-76.4237259\RMSD=4.914e-0
 9\PG=CS [SG(H2O1)]\\@

 THE ONLY DIFFERENCE BETWEEN ECCENTRICS AND JOGGERS

 Normal termination of Gaussian 09 at Wed Aug 26 08:43:21 2020.
