 Gaussian 09, Revision D.01,
 Gaussian 09:  ES64L-G09RevD.01 24-Apr-2013

 --------------------
 #p B2PLYPD3/Def2QZVP
 --------------------

 ---
 h2o
 ---
 Symbolic Z-matrix:
 Charge =  0 Multiplicity = 1

                         Standard orientation:
 ---------------------------------------------------------------------
 Center     Atomic      Atomic             Coordinates (Angstroms)
 Number     Number       Type             X           Y           Z
 ---------------------------------------------------------------------
      1          8           0        0.000000    0.121749    0.000000
      2          1           0        0.803055   -0.405071    0.000000
      3          1           0       -0.803055   -0.568921    0.000000
 ---------------------------------------------------------------------

 SCF Done:  E(RB2PLYPD3) =  -76.3254355280     A.U. after   10 cycles
 E2(B2PLYPD3) =    -0.9166816920D-01 E(B2PLYPD3) =    -0.76417103697154D+02

 The electronic state is 1-A'.
 Alpha  occ. eigenvalues --  -19.73801  -1.13511  -0.59289  -0.46493  -0.39537
 Alpha virt. eigenvalues --    0.03803   0.09691   0.27718   0.29300   0.30528
 Alpha virt. eigenvalues --    0.34071   0.42864   0.50048   0.55309   0.62218
 Alpha virt. eigenvalues --    0.66701   0.79570   0.91146   0.96844   1.00542

 Mulliken charges:
               1
     1  O   -0.476021
     2  H    0.221440
     3  H    0.254581
 Sum of Mulliken charges =   0.00000

 Dipole moment (field-independent basis, Debye):
    X=              0.0489    Y=             -1.9736    Z=              0.0000  Tot=              1.9742
 Quadrupole moment (field-independent basis, Debye-Ang):
   XX=             -4.1794   YY=             -6.3636   ZZ=             -7.7082
   XY=              0.2811   XZ=              0.0000   YZ=              0.0000

 1\1\GINC-NODE21\SP\RB2PLYPD3-FC\def2QZVP\H2O1\BOITTIER\26-Aug-2020\0\\
 #p B2PLYPD3/Def2QZVP\\h2o\\0,1\O,0,-5.326605,-0.768182,0.914962\H,0,-4
 .368927,-0.768625,0.987691\H,0,-5.609308,0.243574,0.779491\\Version=ES
 64L-G09RevD.01\State=1-A'\HF=-76.3254355\MP2=-76.4171037\RMSD=6.724e-0
 9\PG=CS [SG(H2O1)]\\@

 IT IS THE GODS' CUSTOM TO BRING LOW ALL THINGS OF SURPASSING GREATNESS.

 Normal termination of Gaussian 09 at Wed Aug 26 09:01:31 2020.
