 Gaussian 09, Revision D.01,
 Gaussian 09:  ES64L-G09RevD.01 24-Apr-2013

 --------------------
 #p B2PLYPD3/Def2QZVP
 --------------------

 ---
 h2o
 ---
 Symbolic Z-matrix:
 Charge =  0 Multiplicity = 1

                         Standard orientation:
 ---------------------------------------------------------------------
 Center     Atomic      Atomic             Coordinates (Angstroms)
 Number     Number       Type             X           Y           Z
 ---------------------------------------------------------------------
      1          8           0        0.000000    0.118974    0.000000
      2          1           0        0.749986   -0.480459    0.000000
      3          1           0       -0.749986   -0.471330    0.000000
 ---------------------------------------------------------------------

 SCF Done:  E(RB2PLYPD3) =  -76.3350442372     A.U. after   10 cycles
 E2(B2PLYPD3) =    -0.8999292189D-01 E(B2PLYPD3) =    -0.76425037159082D+02

 The electronic state is 1-A'.
 Alpha  occ. eigenvalues --  -19.73169  -1.15856  -0.61063  -0.47767  -0.40015
 Alpha virt. eigenvalues --    0.04523   0.10249   0.27530   0.30403   0.30878
 Alpha virt. eigenvalues --    0.36212   0.44022   0.50008   0.56504   0.61758
 Alpha virt. eigenvalues --    0.65628   0.81268   0.94043   0.95876   1.03668

 Mulliken charges:
               1
     1  O   -0.438798
     2  H    0.220666
     3  H    0.218132
 Sum of Mulliken charges =   0.00000

 Dipole moment (field-independent basis, Debye):
    X=             -0.0030    Y=             -1.9830    Z=              0.0000  Tot=              1.9830
 Quadrupole moment (field-independent basis, Debye-Ang):
   XX=             -4.4045   YY=             -6.2813   ZZ=             -7.5874
   XY=             -0.0146   XZ=              0.0000   YZ=              0.0000

 1\1\GINC-NODE13\SP\RB2PLYPD3-FC\def2QZVP\H2O1\BOITTIER\26-Aug-2020\0\\
 #p B2PLYPD3/Def2QZVP\\h2o\\0,1\O,0,-5.326605,-0.765212,0.922858\H,0,-4
 .368927,-0.699192,0.905762\H,0,-5.609308,0.126622,0.734051\\Version=ES
 64L-G09RevD.01\State=1-A'\HF=-76.3350442\MP2=-76.4250372\RMSD=4.249e-0
 9\PG=CS [SG(H2O1)]\\@

 QED = W**5 (WHICH WAS WHAT WE WANTED)

 Normal termination of Gaussian 09 at Wed Aug 26 10:40:51 2020.
