 Gaussian 09, Revision D.01,
 Gaussian 09:  ES64L-G09RevD.01 24-Apr-2013

 --------------------
 #p B2PLYPD3/Def2QZVP
 --------------------

 ---
 h2o
 ---
 Symbolic Z-matrix:
 Charge =  0 Multiplicity = 1

                         Standard orientation:
 ---------------------------------------------------------------------
 Center     Atomic      Atomic             Coordinates (Angstroms)
 Number     Number       Type             X           Y           Z
 ---------------------------------------------------------------------
      1          8           0        0.000000    0.111516    0.000000
      2          1           0        0.718260   -0.527125    0.000000
      3          1           0       -0.718260   -0.365004    0.000000
 ---------------------------------------------------------------------

 SCF Done:  E(RB2PLYPD3) =  -76.3252207640     A.U. after   10 cycles
 E2(B2PLYPD3) =    -0.8848948828D-01 E(B2PLYPD3) =    -0.76413710252275D+02

 The electronic state is 1-A'.
 Alpha  occ. eigenvalues --  -19.72286  -1.18280  -0.63547  -0.48043  -0.40404
 Alpha virt. eigenvalues --    0.04927   0.10628   0.27122   0.30283   0.31451
 Alpha virt. eigenvalues --    0.37902   0.45693   0.50711   0.56697   0.62624
 Alpha virt. eigenvalues --    0.64395   0.82165   0.94131   0.95361   1.05581

 Mulliken charges:
               1
     1  O   -0.390398
     2  H    0.225081
     3  H    0.165317
 Sum of Mulliken charges =   0.00000

 Dipole moment (field-independent basis, Debye):
    X=             -0.0508    Y=             -1.9272    Z=              0.0000  Tot=              1.9278
 Quadrupole moment (field-independent basis, Debye-Ang):
   XX=             -4.4494   YY=             -6.2662   ZZ=             -7.4814
   XY=             -0.2576   XZ=              0.0000   YZ=              0.0000

 1\1\GINC-NODE02\SP\RB2PLYPD3-FC\def2QZVP\H2O1\BOITTIER\26-Aug-2020\0\\
 #p B2PLYPD3/Def2QZVP\\h2o\\0,1\O,0,-5.326605,-0.759956,0.922852\H,0,-4
 .368927,-0.695698,0.873016\H,0,-5.609308,0.039046,0.765868\\Version=ES
 64L-G09RevD.01\State=1-A'\HF=-76.3252208\MP2=-76.4137103\RMSD=6.788e-0
 9\PG=CS [SG(H2O1)]\\@

 Children are likely to live up to what you believe of them.

 Normal termination of Gaussian 09 at Wed Aug 26 08:35:50 2020.
