 Gaussian 09, Revision D.01,
 Gaussian 09:  ES64L-G09RevD.01 24-Apr-2013

 --------------------
 #p B2PLYPD3/Def2QZVP
 --------------------

 ---
 h2o
 ---
 Symbolic Z-matrix:
 Charge =  0 Multiplicity = 1

                         Standard orientation:
 ---------------------------------------------------------------------
 Center     Atomic      Atomic             Coordinates (Angstroms)
 Number     Number       Type             X           Y           Z
 ---------------------------------------------------------------------
      1          8           0        0.000000    0.113197    0.000000
      2          1           0        0.794879   -0.422768    0.000000
      3          1           0       -0.794879   -0.482807    0.000000
 ---------------------------------------------------------------------

 SCF Done:  E(RB2PLYPD3) =  -76.3329974447     A.U. after   10 cycles
 E2(B2PLYPD3) =    -0.9044555882D-01 E(B2PLYPD3) =    -0.76423443003538D+02

 The electronic state is 1-A'.
 Alpha  occ. eigenvalues --  -19.73201  -1.14594  -0.61273  -0.46385  -0.39707
 Alpha virt. eigenvalues --    0.04390   0.09969   0.27529   0.30471   0.31002
 Alpha virt. eigenvalues --    0.34460   0.43499   0.51052   0.55366   0.63406
 Alpha virt. eigenvalues --    0.65966   0.80258   0.92841   0.96435   1.03285

 Mulliken charges:
               1
     1  O   -0.466165
     2  H    0.225887
     3  H    0.240278
 Sum of Mulliken charges =   0.00000

 Dipole moment (field-independent basis, Debye):
    X=              0.0158    Y=             -1.9010    Z=              0.0000  Tot=              1.9010
 Quadrupole moment (field-independent basis, Debye-Ang):
   XX=             -4.1034   YY=             -6.4661   ZZ=             -7.6419
   XY=              0.1062   XZ=              0.0000   YZ=              0.0000

 1\1\GINC-NODE15\SP\RB2PLYPD3-FC\def2QZVP\H2O1\BOITTIER\26-Aug-2020\0\\
 #p B2PLYPD3/Def2QZVP\\h2o\\0,1\O,0,-5.326605,-0.761957,0.918747\H,0,-4
 .368927,-0.80604,0.91929\H,0,-5.609308,0.1814,0.787562\\Version=ES64L-
 G09RevD.01\State=1-A'\HF=-76.3329974\MP2=-76.423443\RMSD=4.473e-09\PG=
 CS [SG(H2O1)]\\@

 ALL THINGS ARE POSSIBLE EXCEPT SKIING THROUGH A REVOLVING DOOR.

 Normal termination of Gaussian 09 at Wed Aug 26 08:46:57 2020.
