 Gaussian 09, Revision D.01,
 Gaussian 09:  ES64L-G09RevD.01 24-Apr-2013

 --------------------
 #p B2PLYPD3/Def2QZVP
 --------------------

 ---
 h2o
 ---
 Symbolic Z-matrix:
 Charge =  0 Multiplicity = 1

                         Standard orientation:
 ---------------------------------------------------------------------
 Center     Atomic      Atomic             Coordinates (Angstroms)
 Number     Number       Type             X           Y           Z
 ---------------------------------------------------------------------
      1          8           0        0.000000    0.123086    0.000000
      2          1           0        0.725768   -0.517518    0.000000
      3          1           0       -0.725768   -0.467173    0.000000
 ---------------------------------------------------------------------

 SCF Done:  E(RB2PLYPD3) =  -76.3337499006     A.U. after   10 cycles
 E2(B2PLYPD3) =    -0.8994268478D-01 E(B2PLYPD3) =    -0.76423692585406D+02

 The electronic state is 1-A'.
 Alpha  occ. eigenvalues --  -19.73219  -1.16429  -0.60587  -0.48553  -0.40152
 Alpha virt. eigenvalues --    0.04485   0.10371   0.27548   0.30377   0.30617
 Alpha virt. eigenvalues --    0.36999   0.44235   0.49516   0.57129   0.60763
 Alpha virt. eigenvalues --    0.65529   0.81475   0.94594   0.95736   1.03373

 Mulliken charges:
               1
     1  O   -0.426302
     2  H    0.220577
     3  H    0.205725
 Sum of Mulliken charges =   0.00000

 Dipole moment (field-independent basis, Debye):
    X=             -0.0184    Y=             -2.0346    Z=              0.0000  Tot=              2.0347
 Quadrupole moment (field-independent basis, Debye-Ang):
   XX=             -4.5760   YY=             -6.1663   ZZ=             -7.5684
   XY=             -0.0759   XZ=              0.0000   YZ=              0.0000

 1\1\GINC-NODE09\SP\RB2PLYPD3-FC\def2QZVP\H2O1\BOITTIER\26-Aug-2020\0\\
 #p B2PLYPD3/Def2QZVP\\h2o\\0,1\O,0,-5.326605,-0.76807,0.922567\H,0,-4.
 368927,-0.626791,0.925079\H,0,-5.609308,0.099961,0.718246\\Version=ES6
 4L-G09RevD.01\State=1-A'\HF=-76.3337499\MP2=-76.4236926\RMSD=5.172e-09
 \PG=CS [SG(H2O1)]\\@

 CONFIDENCE IS WHAT YOU FEEL BEFORE YOU FULLY

 Normal termination of Gaussian 09 at Wed Aug 26 09:19:21 2020.
