 Gaussian 09, Revision D.01,
 Gaussian 09:  ES64L-G09RevD.01 24-Apr-2013

 --------------------
 #p B2PLYPD3/Def2QZVP
 --------------------

 ---
 h2o
 ---
 Symbolic Z-matrix:
 Charge =  0 Multiplicity = 1

                         Standard orientation:
 ---------------------------------------------------------------------
 Center     Atomic      Atomic             Coordinates (Angstroms)
 Number     Number       Type             X           Y           Z
 ---------------------------------------------------------------------
      1          8           0        0.000000    0.113100    0.000000
      2          1           0        0.767509   -0.461663    0.000000
      3          1           0       -0.767509   -0.443140    0.000000
 ---------------------------------------------------------------------

 SCF Done:  E(RB2PLYPD3) =  -76.3351499405     A.U. after   10 cycles
 E2(B2PLYPD3) =    -0.8974952027D-01 E(B2PLYPD3) =    -0.76424899460768D+02

 The electronic state is 1-A'.
 Alpha  occ. eigenvalues --  -19.72937  -1.15749  -0.61998  -0.47045  -0.39949
 Alpha virt. eigenvalues --    0.04642   0.10213   0.27439   0.30406   0.31340
 Alpha virt. eigenvalues --    0.35701   0.44116   0.50816   0.55938   0.63007
 Alpha virt. eigenvalues --    0.65442   0.81116   0.93752   0.95896   1.04797

 Mulliken charges:
               1
     1  O   -0.444413
     2  H    0.224767
     3  H    0.219646
 Sum of Mulliken charges =   0.00000

 Dipole moment (field-independent basis, Debye):
    X=             -0.0053    Y=             -1.9168    Z=              0.0000  Tot=              1.9168
 Quadrupole moment (field-independent basis, Debye-Ang):
   XX=             -4.2391   YY=             -6.3980   ZZ=             -7.5862
   XY=             -0.0315   XZ=              0.0000   YZ=              0.0000

 1\1\GINC-NODE08\SP\RB2PLYPD3-FC\def2QZVP\H2O1\BOITTIER\26-Aug-2020\0\\
 #p B2PLYPD3/Def2QZVP\\h2o\\0,1\O,0,-5.326605,-0.762361,0.913732\H,0,-4
 .368927,-0.756138,0.961024\H,0,-5.609308,0.137951,0.824341\\Version=ES
 64L-G09RevD.01\State=1-A'\HF=-76.3351499\MP2=-76.4248995\RMSD=3.985e-0
 9\PG=CS [SG(H2O1)]\\@

 The chemist is a guest at the physicist's table and

 Normal termination of Gaussian 09 at Wed Aug 26 11:14:45 2020.
