 Gaussian 09, Revision D.01,
 Gaussian 09:  ES64L-G09RevD.01 24-Apr-2013

 --------------------
 #p B2PLYPD3/Def2QZVP
 --------------------

 ---
 h2o
 ---
 Symbolic Z-matrix:
 Charge =  0 Multiplicity = 1

                         Standard orientation:
 ---------------------------------------------------------------------
 Center     Atomic      Atomic             Coordinates (Angstroms)
 Number     Number       Type             X           Y           Z
 ---------------------------------------------------------------------
      1          8           0        0.000000    0.115889    0.000000
      2          1           0        0.748304   -0.484748    0.000000
      3          1           0       -0.748304   -0.442360    0.000000
 ---------------------------------------------------------------------

 SCF Done:  E(RB2PLYPD3) =  -76.3348746731     A.U. after   10 cycles
 E2(B2PLYPD3) =    -0.8960256253D-01 E(B2PLYPD3) =    -0.76424477235630D+02

 The electronic state is 1-A'.
 Alpha  occ. eigenvalues --  -19.72937  -1.16287  -0.61815  -0.47648  -0.40075
 Alpha virt. eigenvalues --    0.04659   0.10325   0.27432   0.30380   0.31178
 Alpha virt. eigenvalues --    0.36477   0.44346   0.50344   0.56422   0.62247
 Alpha virt. eigenvalues --    0.65322   0.81459   0.94141   0.95690   1.04613

 Mulliken charges:
               1
     1  O   -0.432418
     2  H    0.222434
     3  H    0.209984
 Sum of Mulliken charges =   0.00000

 Dipole moment (field-independent basis, Debye):
    X=             -0.0133    Y=             -1.9547    Z=              0.0000  Tot=              1.9547
 Quadrupole moment (field-independent basis, Debye-Ang):
   XX=             -4.3699   YY=             -6.3129   ZZ=             -7.5652
   XY=             -0.0690   XZ=              0.0000   YZ=              0.0000

 1\1\GINC-NODE07\SP\RB2PLYPD3-FC\def2QZVP\H2O1\BOITTIER\26-Aug-2020\0\\
 #p B2PLYPD3/Def2QZVP\\h2o\\0,1\O,0,-5.326605,-0.762852,0.923787\H,0,-4
 .368927,-0.718295,0.883902\H,0,-5.609308,0.107972,0.74118\\Version=ES6
 4L-G09RevD.01\State=1-A'\HF=-76.3348747\MP2=-76.4244772\RMSD=4.601e-09
 \PG=CS [SG(H2O1)]\\@

 GOD GAVE US TWO ENDS... ONE TO SIT ON...

 Normal termination of Gaussian 09 at Wed Aug 26 10:57:12 2020.
