 Gaussian 09, Revision D.01,
 Gaussian 09:  ES64L-G09RevD.01 24-Apr-2013

 --------------------
 #p B2PLYPD3/Def2QZVP
 --------------------

 ---
 h2o
 ---
 Symbolic Z-matrix:
 Charge =  0 Multiplicity = 1

                         Standard orientation:
 ---------------------------------------------------------------------
 Center     Atomic      Atomic             Coordinates (Angstroms)
 Number     Number       Type             X           Y           Z
 ---------------------------------------------------------------------
      1          8           0        0.000000    0.118227    0.000000
      2          1           0        0.763734   -0.461689    0.000000
      3          1           0       -0.763734   -0.484126    0.000000
 ---------------------------------------------------------------------

 SCF Done:  E(RB2PLYPD3) =  -76.3347112514     A.U. after   10 cycles
 E2(B2PLYPD3) =    -0.9023155772D-01 E(B2PLYPD3) =    -0.76424942809099D+02

 The electronic state is 1-A'.
 Alpha  occ. eigenvalues --  -19.73248  -1.15357  -0.60930  -0.47391  -0.39909
 Alpha virt. eigenvalues --    0.04453   0.10143   0.27561   0.30429   0.30823
 Alpha virt. eigenvalues --    0.35619   0.43781   0.50170   0.56189   0.62089
 Alpha virt. eigenvalues --    0.65811   0.80983   0.93622   0.96076   1.03292

 Mulliken charges:
               1
     1  O   -0.448206
     2  H    0.221169
     3  H    0.227037
 Sum of Mulliken charges =   0.00000

 Dipole moment (field-independent basis, Debye):
    X=              0.0070    Y=             -1.9679    Z=              0.0000  Tot=              1.9679
 Quadrupole moment (field-independent basis, Debye-Ang):
   XX=             -4.3277   YY=             -6.3259   ZZ=             -7.6094
   XY=              0.0369   XZ=              0.0000   YZ=              0.0000

 1\1\GINC-NODE24\SP\RB2PLYPD3-FC\def2QZVP\H2O1\BOITTIER\26-Aug-2020\0\\
 #p B2PLYPD3/Def2QZVP\\h2o\\0,1\O,0,-5.326605,-0.765446,0.918573\H,0,-4
 .368927,-0.721628,0.941462\H,0,-5.609308,0.152805,0.766874\\Version=ES
 64L-G09RevD.01\State=1-A'\HF=-76.3347113\MP2=-76.4249428\RMSD=4.108e-0
 9\PG=CS [SG(H2O1)]\\@

 TWO ROADS DIVERGED IN A WOOD, AND I--

 Normal termination of Gaussian 09 at Wed Aug 26 10:51:15 2020.
