 Gaussian 09, Revision D.01,
 Gaussian 09:  ES64L-G09RevD.01 24-Apr-2013

 --------------------
 #p B2PLYPD3/Def2QZVP
 --------------------

 ---
 h2o
 ---
 Symbolic Z-matrix:
 Charge =  0 Multiplicity = 1

                         Standard orientation:
 ---------------------------------------------------------------------
 Center     Atomic      Atomic             Coordinates (Angstroms)
 Number     Number       Type             X           Y           Z
 ---------------------------------------------------------------------
      1          8           0        0.000000    0.112345    0.000000
      2          1           0        0.781472   -0.442278    0.000000
      3          1           0       -0.781472   -0.456486    0.000000
 ---------------------------------------------------------------------

 SCF Done:  E(RB2PLYPD3) =  -76.3346902581     A.U. after   10 cycles
 E2(B2PLYPD3) =    -0.9001087445D-01 E(B2PLYPD3) =    -0.76424701132574D+02

 The electronic state is 1-A'.
 Alpha  occ. eigenvalues --  -19.73022  -1.15229  -0.61811  -0.46672  -0.39836
 Alpha virt. eigenvalues --    0.04560   0.10106   0.27472   0.30434   0.31309
 Alpha virt. eigenvalues --    0.35069   0.43850   0.51033   0.55629   0.63345
 Alpha virt. eigenvalues --    0.65646   0.80736   0.93391   0.96136   1.04454

 Mulliken charges:
               1
     1  O   -0.454985
     2  H    0.225647
     3  H    0.229338
 Sum of Mulliken charges =   0.00000

 Dipole moment (field-independent basis, Debye):
    X=              0.0038    Y=             -1.9011    Z=              0.0000  Tot=              1.9012
 Quadrupole moment (field-independent basis, Debye-Ang):
   XX=             -4.1597   YY=             -6.4439   ZZ=             -7.6098
   XY=              0.0248   XZ=              0.0000   YZ=              0.0000

 1\1\GINC-NODE27\SP\RB2PLYPD3-FC\def2QZVP\H2O1\BOITTIER\26-Aug-2020\0\\
 #p B2PLYPD3/Def2QZVP\\h2o\\0,1\O,0,-5.326605,-0.761693,0.915885\H,0,-4
 .368927,-0.78559,0.940116\H,0,-5.609308,0.156718,0.811636\\Version=ES6
 4L-G09RevD.01\State=1-A'\HF=-76.3346903\MP2=-76.4247011\RMSD=3.788e-09
 \PG=CS [SG(H2O1)]\\@

 THE LENGTH OF A MEETING IS PROPORTIONAL TO THE

 Normal termination of Gaussian 09 at Wed Aug 26 08:58:41 2020.
