 Gaussian 09, Revision D.01,
 Gaussian 09:  ES64L-G09RevD.01 24-Apr-2013

 --------------------
 #p B2PLYPD3/Def2QZVP
 --------------------

 ---
 h2o
 ---
 Symbolic Z-matrix:
 Charge =  0 Multiplicity = 1

                         Standard orientation:
 ---------------------------------------------------------------------
 Center     Atomic      Atomic             Coordinates (Angstroms)
 Number     Number       Type             X           Y           Z
 ---------------------------------------------------------------------
      1          8           0        0.000000    0.119989    0.000000
      2          1           0        0.732220   -0.506412    0.000000
      3          1           0       -0.732220   -0.453499    0.000000
 ---------------------------------------------------------------------

 SCF Done:  E(RB2PLYPD3) =  -76.3341723822     A.U. after   10 cycles
 E2(B2PLYPD3) =    -0.8971042814D-01 E(B2PLYPD3) =    -0.76423882810298D+02

 The electronic state is 1-A'.
 Alpha  occ. eigenvalues --  -19.73062  -1.16523  -0.61195  -0.48245  -0.40149
 Alpha virt. eigenvalues --    0.04583   0.10381   0.27480   0.30372   0.30875
 Alpha virt. eigenvalues --    0.36957   0.44371   0.49825   0.56890   0.61342
 Alpha virt. eigenvalues --    0.65381   0.81549   0.94454   0.95658   1.03997

 Mulliken charges:
               1
     1  O   -0.426026
     2  H    0.220950
     3  H    0.205076
 Sum of Mulliken charges =   0.00000

 Dipole moment (field-independent basis, Debye):
    X=             -0.0183    Y=             -2.0024    Z=              0.0000  Tot=              2.0025
 Quadrupole moment (field-independent basis, Debye-Ang):
   XX=             -4.5024   YY=             -6.2206   ZZ=             -7.5603
   XY=             -0.0820   XZ=              0.0000   YZ=              0.0000

 1\1\GINC-NODE10\SP\RB2PLYPD3-FC\def2QZVP\H2O1\BOITTIER\26-Aug-2020\0\\
 #p B2PLYPD3/Def2QZVP\\h2o\\0,1\O,0,-5.326605,-0.765961,0.922573\H,0,-4
 .368927,-0.659796,0.912252\H,0,-5.609308,0.099221,0.73133\\Version=ES6
 4L-G09RevD.01\State=1-A'\HF=-76.3341724\MP2=-76.4238828\RMSD=5.083e-09
 \PG=CS [SG(H2O1)]\\@

 NEVER TEACH A PIG TO SING.

 Normal termination of Gaussian 09 at Wed Aug 26 08:53:57 2020.
