 Gaussian 09, Revision D.01,
 Gaussian 09:  ES64L-G09RevD.01 24-Apr-2013

 --------------------
 #p B2PLYPD3/Def2QZVP
 --------------------

 ---
 h2o
 ---
 Symbolic Z-matrix:
 Charge =  0 Multiplicity = 1

                         Standard orientation:
 ---------------------------------------------------------------------
 Center     Atomic      Atomic             Coordinates (Angstroms)
 Number     Number       Type             X           Y           Z
 ---------------------------------------------------------------------
      1          8           0        0.000000    0.115132    0.000000
      2          1           0        0.766840   -0.458756    0.000000
      3          1           0       -0.766840   -0.462297    0.000000
 ---------------------------------------------------------------------

 SCF Done:  E(RB2PLYPD3) =  -76.3351235058     A.U. after   10 cycles
 E2(B2PLYPD3) =    -0.8995467214D-01 E(B2PLYPD3) =    -0.76425078177917D+02

 The electronic state is 1-A'.
 Alpha  occ. eigenvalues --  -19.73069  -1.15559  -0.61555  -0.47166  -0.39926
 Alpha virt. eigenvalues --    0.04564   0.10180   0.27490   0.30417   0.31140
 Alpha virt. eigenvalues --    0.35637   0.43961   0.50558   0.56025   0.62648
 Alpha virt. eigenvalues --    0.65603   0.81050   0.93686   0.95973   1.04188

 Mulliken charges:
               1
     1  O   -0.446690
     2  H    0.222868
     3  H    0.223822
 Sum of Mulliken charges =   0.00000

 Dipole moment (field-independent basis, Debye):
    X=              0.0010    Y=             -1.9368    Z=              0.0000  Tot=              1.9368
 Quadrupole moment (field-independent basis, Debye-Ang):
   XX=             -4.2700   YY=             -6.3720   ZZ=             -7.5968
   XY=              0.0060   XZ=              0.0000   YZ=              0.0000

 1\1\GINC-NODE37\SP\RB2PLYPD3-FC\def2QZVP\H2O1\BOITTIER\26-Aug-2020\0\\
 #p B2PLYPD3/Def2QZVP\\h2o\\0,1\O,0,-5.326605,-0.763175,0.91955\H,0,-4.
 368927,-0.747585,0.919856\H,0,-5.609308,0.142429,0.773166\\Version=ES6
 4L-G09RevD.01\State=1-A'\HF=-76.3351235\MP2=-76.4250782\RMSD=3.923e-09
 \PG=CS [SG(H2O1)]\\@

 LET US PLACE AT THE END OF EVERY CHAPTER.....THE

 Normal termination of Gaussian 09 at Wed Aug 26 10:14:30 2020.
