 Gaussian 09, Revision D.01,
 Gaussian 09:  ES64L-G09RevD.01 24-Apr-2013

 --------------------
 #p B2PLYPD3/Def2QZVP
 --------------------

 ---
 h2o
 ---
 Symbolic Z-matrix:
 Charge =  0 Multiplicity = 1

                         Standard orientation:
 ---------------------------------------------------------------------
 Center     Atomic      Atomic             Coordinates (Angstroms)
 Number     Number       Type             X           Y           Z
 ---------------------------------------------------------------------
      1          8           0        0.000000    0.121647    0.000000
      2          1           0        0.748311   -0.486586    0.000000
      3          1           0       -0.748311   -0.486588    0.000000
 ---------------------------------------------------------------------

 SCF Done:  E(RB2PLYPD3) =  -76.3346025651     A.U. after   10 cycles
 E2(B2PLYPD3) =    -0.9027256327D-01 E(B2PLYPD3) =    -0.76424875128318D+02

 The electronic state is 1-A'.
 Alpha  occ. eigenvalues --  -19.73337  -1.15621  -0.60485  -0.47934  -0.39989
 Alpha virt. eigenvalues --    0.04417   0.10205   0.27602   0.30416   0.30608
 Alpha virt. eigenvalues --    0.36104   0.43829   0.49719   0.56626   0.61306
 Alpha virt. eigenvalues --    0.65832   0.81158   0.94006   0.96006   1.02905

 Mulliken charges:
               1
     1  O   -0.441317
     2  H    0.220658
     3  H    0.220659
 Sum of Mulliken charges =   0.00000

 Dipole moment (field-independent basis, Debye):
    X=              0.0000    Y=             -2.0088    Z=              0.0000  Tot=              2.0088
 Quadrupole moment (field-independent basis, Debye-Ang):
   XX=             -4.4499   YY=             -6.2441   ZZ=             -7.6010
   XY=              0.0000   XZ=              0.0000   YZ=              0.0000

 1\1\GINC-NODE26\SP\RB2PLYPD3-FC\def2QZVP\H2O1\BOITTIER\26-Aug-2020\0\\
 #p B2PLYPD3/Def2QZVP\\h2o\\0,1\O,0,-5.326605,-0.767983,0.916538\H,0,-4
 .368927,-0.67001,0.97284\H,0,-5.609308,0.141776,0.767085\\Version=ES64
 L-G09RevD.01\State=1-A'\HF=-76.3346026\MP2=-76.4248751\RMSD=4.310e-09\
 PG=CS [SG(H2O1)]\\@

 IT IS DOUBTED WHETHER A MAN EVER BRINGS HIS FACULTIES TO BEAR WITH THEIR FULL FORCE

 Normal termination of Gaussian 09 at Wed Aug 26 09:22:36 2020.
