 Gaussian 09, Revision D.01,
 Gaussian 09:  ES64L-G09RevD.01 24-Apr-2013

 --------------------
 #p B2PLYPD3/Def2QZVP
 --------------------

 ---
 h2o
 ---
 Symbolic Z-matrix:
 Charge =  0 Multiplicity = 1

                         Standard orientation:
 ---------------------------------------------------------------------
 Center     Atomic      Atomic             Coordinates (Angstroms)
 Number     Number       Type             X           Y           Z
 ---------------------------------------------------------------------
      1          8           0        0.000000    0.117787    0.000000
      2          1           0        0.757940   -0.470063    0.000000
      3          1           0       -0.757940   -0.472231    0.000000
 ---------------------------------------------------------------------

 SCF Done:  E(RB2PLYPD3) =  -76.3350771276     A.U. after   10 cycles
 E2(B2PLYPD3) =    -0.9004187248D-01 E(B2PLYPD3) =    -0.76425119000091D+02

 The electronic state is 1-A'.
 Alpha  occ. eigenvalues --  -19.73164  -1.15649  -0.61160  -0.47514  -0.39965
 Alpha virt. eigenvalues --    0.04518   0.10204   0.27528   0.30414   0.30935
 Alpha virt. eigenvalues --    0.35913   0.43943   0.50184   0.56299   0.62072
 Alpha virt. eigenvalues --    0.65669   0.81149   0.93842   0.95948   1.03708

 Mulliken charges:
               1
     1  O   -0.443274
     2  H    0.221343
     3  H    0.221931
 Sum of Mulliken charges =   0.00000

 Dipole moment (field-independent basis, Debye):
    X=              0.0007    Y=             -1.9673    Z=              0.0000  Tot=              1.9673
 Quadrupole moment (field-independent basis, Debye-Ang):
   XX=             -4.3498   YY=             -6.3166   ZZ=             -7.5954
   XY=              0.0035   XZ=              0.0000   YZ=              0.0000

 1\1\GINC-NODE32\SP\RB2PLYPD3-FC\def2QZVP\H2O1\BOITTIER\26-Aug-2020\0\\
 #p B2PLYPD3/Def2QZVP\\h2o\\0,1\O,0,-5.326605,-0.765104,0.918865\H,0,-4
 .368927,-0.714444,0.936939\H,0,-5.609308,0.140145,0.766556\\Version=ES
 64L-G09RevD.01\State=1-A'\HF=-76.3350771\MP2=-76.425119\RMSD=4.084e-09
 \PG=CS [SG(H2O1)]\\@

 ERWIN WITH HIS PSI CAN DO

 Normal termination of Gaussian 09 at Wed Aug 26 11:12:21 2020.
