 Gaussian 09, Revision D.01,
 Gaussian 09:  ES64L-G09RevD.01 24-Apr-2013

 --------------------
 #p B2PLYPD3/Def2QZVP
 --------------------

 ---
 h2o
 ---
 Symbolic Z-matrix:
 Charge =  0 Multiplicity = 1

                         Standard orientation:
 ---------------------------------------------------------------------
 Center     Atomic      Atomic             Coordinates (Angstroms)
 Number     Number       Type             X           Y           Z
 ---------------------------------------------------------------------
      1          8           0        0.000000    0.113978    0.000000
      2          1           0        0.760832   -0.469389    0.000000
      3          1           0       -0.760832   -0.442434    0.000000
 ---------------------------------------------------------------------

 SCF Done:  E(RB2PLYPD3) =  -76.3351550159     A.U. after   10 cycles
 E2(B2PLYPD3) =    -0.8968475077D-01 E(B2PLYPD3) =    -0.76424839766698D+02

 The electronic state is 1-A'.
 Alpha  occ. eigenvalues --  -19.72931  -1.15946  -0.61963  -0.47250  -0.39995
 Alpha virt. eigenvalues --    0.04654   0.10254   0.27434   0.30396   0.31294
 Alpha virt. eigenvalues --    0.35980   0.44204   0.50655   0.56104   0.62756
 Alpha virt. eigenvalues --    0.65391   0.81255   0.93892   0.95812   1.04763

 Mulliken charges:
               1
     1  O   -0.440048
     2  H    0.223835
     3  H    0.216213
 Sum of Mulliken charges =   0.00000

 Dipole moment (field-independent basis, Debye):
    X=             -0.0079    Y=             -1.9292    Z=              0.0000  Tot=              1.9292
 Quadrupole moment (field-independent basis, Debye-Ang):
   XX=             -4.2836   YY=             -6.3696   ZZ=             -7.5781
   XY=             -0.0452   XZ=              0.0000   YZ=              0.0000

 1\1\GINC-NODE06\SP\RB2PLYPD3-FC\def2QZVP\H2O1\BOITTIER\26-Aug-2020\0\\
 #p B2PLYPD3/Def2QZVP\\h2o\\0,1\O,0,-5.326605,-0.762891,0.91503\H,0,-4.
 368927,-0.739917,0.953854\H,0,-5.609308,0.130218,0.810653\\Version=ES6
 4L-G09RevD.01\State=1-A'\HF=-76.335155\MP2=-76.4248398\RMSD=4.175e-09\
 PG=CS [SG(H2O1)]\\@

 IT IS BETTER TO THINK YOU ARE HALF DRY THAN TO KNOW YOU

 Normal termination of Gaussian 09 at Wed Aug 26 08:32:00 2020.
