 Gaussian 09, Revision D.01,
 Gaussian 09:  ES64L-G09RevD.01 24-Apr-2013

 --------------------
 #p B2PLYPD3/Def2QZVP
 --------------------

 ---
 h2o
 ---
 Symbolic Z-matrix:
 Charge =  0 Multiplicity = 1

                         Standard orientation:
 ---------------------------------------------------------------------
 Center     Atomic      Atomic             Coordinates (Angstroms)
 Number     Number       Type             X           Y           Z
 ---------------------------------------------------------------------
      1          8           0        0.000000    0.112434    0.000000
      2          1           0        0.718005   -0.526998    0.000000
      3          1           0       -0.718005   -0.372478    0.000000
 ---------------------------------------------------------------------

 SCF Done:  E(RB2PLYPD3) =  -76.3262193142     A.U. after   10 cycles
 E2(B2PLYPD3) =    -0.8857647932D-01 E(B2PLYPD3) =    -0.76414795793548D+02

 The electronic state is 1-A'.
 Alpha  occ. eigenvalues --  -19.72352  -1.18174  -0.63326  -0.48111  -0.40391
 Alpha virt. eigenvalues --    0.04899   0.10619   0.27150   0.30290   0.31400
 Alpha virt. eigenvalues --    0.37894   0.45606   0.50594   0.56754   0.62455
 Alpha virt. eigenvalues --    0.64461   0.82130   0.94189   0.95364   1.05510

 Mulliken charges:
               1
     1  O   -0.392972
     2  H    0.224632
     3  H    0.168340
 Sum of Mulliken charges =   0.00000

 Dipole moment (field-independent basis, Debye):
    X=             -0.0491    Y=             -1.9365    Z=              0.0000  Tot=              1.9371
 Quadrupole moment (field-independent basis, Debye-Ang):
   XX=             -4.4630   YY=             -6.2569   ZZ=             -7.4864
   XY=             -0.2442   XZ=              0.0000   YZ=              0.0000

 1\1\GINC-NODE15\SP\RB2PLYPD3-FC\def2QZVP\H2O1\BOITTIER\26-Aug-2020\0\\
 #p B2PLYPD3/Def2QZVP\\h2o\\0,1\O,0,-5.326605,-0.760629,0.922784\H,0,-4
 .368927,-0.688367,0.877669\H,0,-5.609308,0.042478,0.762257\\Version=ES
 64L-G09RevD.01\State=1-A'\HF=-76.3262193\MP2=-76.4147958\RMSD=6.784e-0
 9\PG=CS [SG(H2O1)]\\@

 ON A TOMBSTONE, "HERE LIES LESTER MOORE,

 Normal termination of Gaussian 09 at Wed Aug 26 09:06:25 2020.
