 Gaussian 09, Revision D.01,
 Gaussian 09:  ES64L-G09RevD.01 24-Apr-2013

 --------------------
 #p B2PLYPD3/Def2QZVP
 --------------------

 ---
 h2o
 ---
 Symbolic Z-matrix:
 Charge =  0 Multiplicity = 1

                         Standard orientation:
 ---------------------------------------------------------------------
 Center     Atomic      Atomic             Coordinates (Angstroms)
 Number     Number       Type             X           Y           Z
 ---------------------------------------------------------------------
      1          8           0        0.000000    0.114534    0.000000
      2          1           0        0.724244   -0.520120    0.000000
      3          1           0       -0.724244   -0.396151    0.000000
 ---------------------------------------------------------------------

 SCF Done:  E(RB2PLYPD3) =  -76.3300222352     A.U. after   10 cycles
 E2(B2PLYPD3) =    -0.8892762291D-01 E(B2PLYPD3) =    -0.76418949858094D+02

 The electronic state is 1-A'.
 Alpha  occ. eigenvalues --  -19.72578  -1.17593  -0.62674  -0.48109  -0.40303
 Alpha virt. eigenvalues --    0.04809   0.10543   0.27258   0.30318   0.31273
 Alpha virt. eigenvalues --    0.37589   0.45190   0.50375   0.56768   0.62166
 Alpha virt. eigenvalues --    0.64743   0.81945   0.94316   0.95409   1.05183

 Mulliken charges:
               1
     1  O   -0.405899
     2  H    0.224104
     3  H    0.181795
 Sum of Mulliken charges =   0.00000

 Dipole moment (field-independent basis, Debye):
    X=             -0.0401    Y=             -1.9541    Z=              0.0000  Tot=              1.9545
 Quadrupole moment (field-independent basis, Debye-Ang):
   XX=             -4.4633   YY=             -6.2555   ZZ=             -7.5111
   XY=             -0.1956   XZ=              0.0000   YZ=              0.0000

 1\1\GINC-NODE10\SP\RB2PLYPD3-FC\def2QZVP\H2O1\BOITTIER\26-Aug-2020\0\\
 #p B2PLYPD3/Def2QZVP\\h2o\\0,1\O,0,-5.326605,-0.761161,0.926416\H,0,-4
 .368927,-0.692878,0.852221\H,0,-5.609308,0.0555,0.730273\\Version=ES64
 L-G09RevD.01\State=1-A'\HF=-76.3300222\MP2=-76.4189499\RMSD=6.553e-09\
 PG=CS [SG(H2O1)]\\@

 The impersonal hand of government can

 Normal termination of Gaussian 09 at Wed Aug 26 08:51:11 2020.
