 Gaussian 09, Revision D.01,
 Gaussian 09:  ES64L-G09RevD.01 24-Apr-2013

 --------------------
 #p B2PLYPD3/Def2QZVP
 --------------------

 ---
 h2o
 ---
 Symbolic Z-matrix:
 Charge =  0 Multiplicity = 1

                         Standard orientation:
 ---------------------------------------------------------------------
 Center     Atomic      Atomic             Coordinates (Angstroms)
 Number     Number       Type             X           Y           Z
 ---------------------------------------------------------------------
      1          8           0        0.000000    0.128306    0.000000
      2          1           0        0.745521   -0.489833    0.000000
      3          1           0       -0.745521   -0.536611    0.000000
 ---------------------------------------------------------------------

 SCF Done:  E(RB2PLYPD3) =  -76.3319099820     A.U. after   10 cycles
 E2(B2PLYPD3) =    -0.9105175659D-01 E(B2PLYPD3) =    -0.76422961738597D+02

 The electronic state is 1-A'.
 Alpha  occ. eigenvalues --  -19.73767  -1.14975  -0.59044  -0.48280  -0.39915
 Alpha virt. eigenvalues --    0.04117   0.10060   0.27791   0.29843   0.30445
 Alpha virt. eigenvalues --    0.35680   0.43355   0.49081   0.56857   0.60265
 Alpha virt. eigenvalues --    0.66341   0.80820   0.93758   0.96392   1.01074

 Mulliken charges:
               1
     1  O   -0.447408
     2  H    0.218015
     3  H    0.229393
 Sum of Mulliken charges =   0.00000

 Dipole moment (field-independent basis, Debye):
    X=              0.0176    Y=             -2.0700    Z=              0.0000  Tot=              2.0701
 Quadrupole moment (field-independent basis, Debye-Ang):
   XX=             -4.5578   YY=             -6.1516   ZZ=             -7.6387
   XY=              0.0708   XZ=              0.0000   YZ=              0.0000

 1\1\GINC-NODE39\SP\RB2PLYPD3-FC\def2QZVP\H2O1\BOITTIER\26-Aug-2020\0\\
 #p B2PLYPD3/Def2QZVP\\h2o\\0,1\O,0,-5.326605,-0.76828,0.934006\H,0,-4.
 368927,-0.66267,0.83605\H,0,-5.609308,0.1392,0.626638\\Version=ES64L-G
 09RevD.01\State=1-A'\HF=-76.33191\MP2=-76.4229617\RMSD=4.729e-09\PG=CS
  [SG(H2O1)]\\@

 THESE ARE THE TIMES THAT TRY MENS SOULS.

 Normal termination of Gaussian 09 at Wed Aug 26 09:13:29 2020.
