 Gaussian 09, Revision D.01,
 Gaussian 09:  ES64L-G09RevD.01 24-Apr-2013

 --------------------
 #p B2PLYPD3/Def2QZVP
 --------------------

 ---
 h2o
 ---
 Symbolic Z-matrix:
 Charge =  0 Multiplicity = 1

                         Standard orientation:
 ---------------------------------------------------------------------
 Center     Atomic      Atomic             Coordinates (Angstroms)
 Number     Number       Type             X           Y           Z
 ---------------------------------------------------------------------
      1          8           0        0.000000    0.121554    0.000000
      2          1           0        0.731538   -0.507469    0.000000
      3          1           0       -0.731538   -0.464959    0.000000
 ---------------------------------------------------------------------

 SCF Done:  E(RB2PLYPD3) =  -76.3342488523     A.U. after   10 cycles
 E2(B2PLYPD3) =    -0.8988179158D-01 E(B2PLYPD3) =    -0.76424130643831D+02

 The electronic state is 1-A'.
 Alpha  occ. eigenvalues --  -19.73168  -1.16360  -0.60839  -0.48341  -0.40130
 Alpha virt. eigenvalues --    0.04523   0.10355   0.27527   0.30380   0.30738
 Alpha virt. eigenvalues --    0.36871   0.44234   0.49671   0.56964   0.61080
 Alpha virt. eigenvalues --    0.65508   0.81473   0.94478   0.95731   1.03599

 Mulliken charges:
               1
     1  O   -0.428307
     2  H    0.220392
     3  H    0.207915
 Sum of Mulliken charges =   0.00000

 Dipole moment (field-independent basis, Debye):
    X=             -0.0150    Y=             -2.0174    Z=              0.0000  Tot=              2.0174
 Quadrupole moment (field-independent basis, Debye-Ang):
   XX=             -4.5276   YY=             -6.2005   ZZ=             -7.5690
   XY=             -0.0652   XZ=              0.0000   YZ=              0.0000

 1\1\GINC-NODE24\SP\RB2PLYPD3-FC\def2QZVP\H2O1\BOITTIER\26-Aug-2020\0\\
 #p B2PLYPD3/Def2QZVP\\h2o\\0,1\O,0,-5.326605,-0.766484,0.925006\H,0,-4
 .368927,-0.653189,0.896132\H,0,-5.609308,0.10097,0.708795\\Version=ES6
 4L-G09RevD.01\State=1-A'\HF=-76.3342489\MP2=-76.4241306\RMSD=4.940e-09
 \PG=CS [SG(H2O1)]\\@

 IF AT FIRST YOU DON'T SUCCEED, TRY LOOKING IN

 Normal termination of Gaussian 09 at Wed Aug 26 12:26:31 2020.
