 Gaussian 09, Revision D.01,
 Gaussian 09:  ES64L-G09RevD.01 24-Apr-2013

 --------------------
 #p B2PLYPD3/Def2QZVP
 --------------------

 ---
 h2o
 ---
 Symbolic Z-matrix:
 Charge =  0 Multiplicity = 1

                         Standard orientation:
 ---------------------------------------------------------------------
 Center     Atomic      Atomic             Coordinates (Angstroms)
 Number     Number       Type             X           Y           Z
 ---------------------------------------------------------------------
      1          8           0        0.000000    0.118187    0.000000
      2          1           0        0.786059   -0.429765    0.000000
      3          1           0       -0.786059   -0.515730    0.000000
 ---------------------------------------------------------------------

 SCF Done:  E(RB2PLYPD3) =  -76.3319503633     A.U. after   10 cycles
 E2(B2PLYPD3) =    -0.9078535830D-01 E(B2PLYPD3) =    -0.76422735721646D+02

 The electronic state is 1-A'.
 Alpha  occ. eigenvalues --  -19.73443  -1.14466  -0.60423  -0.46819  -0.39720
 Alpha virt. eigenvalues --    0.04235   0.09940   0.27625   0.30427   0.30477
 Alpha virt. eigenvalues --    0.34678   0.43348   0.50338   0.55679   0.62458
 Alpha virt. eigenvalues --    0.66187   0.80337   0.92665   0.96475   1.02112

 Mulliken charges:
               1
     1  O   -0.463751
     2  H    0.221846
     3  H    0.241905
 Sum of Mulliken charges =   0.00000

 Dipole moment (field-independent basis, Debye):
    X=              0.0253    Y=             -1.9534    Z=              0.0000  Tot=              1.9536
 Quadrupole moment (field-independent basis, Debye-Ang):
   XX=             -4.2163   YY=             -6.3792   ZZ=             -7.6532
   XY=              0.1464   XZ=              0.0000   YZ=              0.0000

 1\1\GINC-NODE22\SP\RB2PLYPD3-FC\def2QZVP\H2O1\BOITTIER\26-Aug-2020\0\\
 #p B2PLYPD3/Def2QZVP\\h2o\\0,1\O,0,-5.326605,-0.765527,0.917756\H,0,-4
 .368927,-0.760622,0.948885\H,0,-5.609308,0.193093,0.773304\\Version=ES
 64L-G09RevD.01\State=1-A'\HF=-76.3319504\MP2=-76.4227357\RMSD=5.020e-0
 9\PG=CS [SG(H2O1)]\\@

 THE LENGTH OF A MEETING IS PROPORTIONAL TO THE

 Normal termination of Gaussian 09 at Wed Aug 26 12:55:55 2020.
