 Gaussian 09, Revision D.01,
 Gaussian 09:  ES64L-G09RevD.01 24-Apr-2013

 --------------------
 #p B2PLYPD3/Def2QZVP
 --------------------

 ---
 h2o
 ---
 Symbolic Z-matrix:
 Charge =  0 Multiplicity = 1

                         Standard orientation:
 ---------------------------------------------------------------------
 Center     Atomic      Atomic             Coordinates (Angstroms)
 Number     Number       Type             X           Y           Z
 ---------------------------------------------------------------------
      1          8           0        0.000000    0.113703    0.000000
      2          1           0        0.783830   -0.437200    0.000000
      3          1           0       -0.783830   -0.472427    0.000000
 ---------------------------------------------------------------------

 SCF Done:  E(RB2PLYPD3) =  -76.3342106582     A.U. after   10 cycles
 E2(B2PLYPD3) =    -0.9021735218D-01 E(B2PLYPD3) =    -0.76424428010335D+02

 The electronic state is 1-A'.
 Alpha  occ. eigenvalues --  -19.73134  -1.14994  -0.61451  -0.46681  -0.39797
 Alpha virt. eigenvalues --    0.04479   0.10058   0.27512   0.30448   0.31115
 Alpha virt. eigenvalues --    0.34915   0.43696   0.50878   0.55621   0.63150
 Alpha virt. eigenvalues --    0.65798   0.80610   0.93212   0.96236   1.03807

 Mulliken charges:
               1
     1  O   -0.458301
     2  H    0.224713
     3  H    0.233588
 Sum of Mulliken charges =   0.00000

 Dipole moment (field-independent basis, Debye):
    X=              0.0097    Y=             -1.9128    Z=              0.0000  Tot=              1.9128
 Quadrupole moment (field-independent basis, Debye-Ang):
   XX=             -4.1662   YY=             -6.4329   ZZ=             -7.6223
   XY=              0.0612   XZ=              0.0000   YZ=              0.0000

 1\1\GINC-NODE14\SP\RB2PLYPD3-FC\def2QZVP\H2O1\BOITTIER\26-Aug-2020\0\\
 #p B2PLYPD3/Def2QZVP\\h2o\\0,1\O,0,-5.326605,-0.762516,0.917107\H,0,-4
 .368927,-0.782464,0.935517\H,0,-5.609308,0.16677,0.796918\\Version=ES6
 4L-G09RevD.01\State=1-A'\HF=-76.3342107\MP2=-76.424428\RMSD=4.029e-09\
 PG=CS [SG(H2O1)]\\@

 The mind is not a vessel to be filled but a fire to be kindled.

 Normal termination of Gaussian 09 at Wed Aug 26 08:30:32 2020.
