 Gaussian 09, Revision D.01,
 Gaussian 09:  ES64L-G09RevD.01 24-Apr-2013

 --------------------
 #p B2PLYPD3/Def2QZVP
 --------------------

 ---
 h2o
 ---
 Symbolic Z-matrix:
 Charge =  0 Multiplicity = 1

                         Standard orientation:
 ---------------------------------------------------------------------
 Center     Atomic      Atomic             Coordinates (Angstroms)
 Number     Number       Type             X           Y           Z
 ---------------------------------------------------------------------
      1          8           0        0.000000    0.110222    0.000000
      2          1           0        0.760584   -0.474042    0.000000
      3          1           0       -0.760584   -0.407730    0.000000
 ---------------------------------------------------------------------

 SCF Done:  E(RB2PLYPD3) =  -76.3341330897     A.U. after   10 cycles
 E2(B2PLYPD3) =    -0.8928747903D-01 E(B2PLYPD3) =    -0.76423420568769D+02

 The electronic state is 1-A'.
 Alpha  occ. eigenvalues --  -19.72669  -1.16376  -0.62832  -0.47040  -0.40050
 Alpha virt. eigenvalues --    0.04793   0.10319   0.27331   0.30371   0.31600
 Alpha virt. eigenvalues --    0.36153   0.44553   0.51138   0.55947   0.63422
 Alpha virt. eigenvalues --    0.65067   0.81399   0.93958   0.95674   1.05531

 Mulliken charges:
               1
     1  O   -0.433338
     2  H    0.226565
     3  H    0.206773
 Sum of Mulliken charges =   0.00000

 Dipole moment (field-independent basis, Debye):
    X=             -0.0182    Y=             -1.8923    Z=              0.0000  Tot=              1.8924
 Quadrupole moment (field-independent basis, Debye-Ang):
   XX=             -4.2343   YY=             -6.4105   ZZ=             -7.5559
   XY=             -0.1133   XZ=              0.0000   YZ=              0.0000

 1\1\GINC-NODE40\SP\RB2PLYPD3-FC\def2QZVP\H2O1\BOITTIER\26-Aug-2020\0\\
 #p B2PLYPD3/Def2QZVP\\h2o\\0,1\O,0,-5.326605,-0.760405,0.911853\H,0,-4
 .368927,-0.762666,0.963809\H,0,-5.609308,0.113183,0.851157\\Version=ES
 64L-G09RevD.01\State=1-A'\HF=-76.3341331\MP2=-76.4234206\RMSD=5.057e-0
 9\PG=CS [SG(H2O1)]\\@

 ...THOSE SCIENCES ARE VAIN AND FULL OF ERRORS WHICH

 Normal termination of Gaussian 09 at Wed Aug 26 09:08:42 2020.
