 Gaussian 09, Revision D.01,
 Gaussian 09:  ES64L-G09RevD.01 24-Apr-2013

 --------------------
 #p B2PLYPD3/Def2QZVP
 --------------------

 ---
 h2o
 ---
 Symbolic Z-matrix:
 Charge =  0 Multiplicity = 1

                         Standard orientation:
 ---------------------------------------------------------------------
 Center     Atomic      Atomic             Coordinates (Angstroms)
 Number     Number       Type             X           Y           Z
 ---------------------------------------------------------------------
      1          8           0        0.000000    0.125636    0.000000
      2          1           0        0.755296   -0.474832    0.000000
      3          1           0       -0.755296   -0.530259    0.000000
 ---------------------------------------------------------------------

 SCF Done:  E(RB2PLYPD3) =  -76.3323812006     A.U. after   10 cycles
 E2(B2PLYPD3) =    -0.9093469679D-01 E(B2PLYPD3) =    -0.76423315897383D+02

 The electronic state is 1-A'.
 Alpha  occ. eigenvalues --  -19.73671  -1.14891  -0.59458  -0.47921  -0.39875
 Alpha virt. eigenvalues --    0.04168   0.10041   0.27742   0.30019   0.30451
 Alpha virt. eigenvalues --    0.35501   0.43383   0.49345   0.56568   0.60812
 Alpha virt. eigenvalues --    0.66287   0.80774   0.93470   0.96375   1.01400

 Mulliken charges:
               1
     1  O   -0.450625
     2  H    0.218598
     3  H    0.232027
 Sum of Mulliken charges =   0.00000

 Dipole moment (field-independent basis, Debye):
    X=              0.0197    Y=             -2.0405    Z=              0.0000  Tot=              2.0406
 Quadrupole moment (field-independent basis, Debye-Ang):
   XX=             -4.4726   YY=             -6.2099   ZZ=             -7.6396
   XY=              0.0865   XZ=              0.0000   YZ=              0.0000

 1\1\GINC-NODE27\SP\RB2PLYPD3-FC\def2QZVP\H2O1\BOITTIER\26-Aug-2020\0\\
 #p B2PLYPD3/Def2QZVP\\h2o\\0,1\O,0,-5.326605,-0.767016,0.932443\H,0,-4
 .368927,-0.692809,0.840899\H,0,-5.609308,0.149108,0.647021\\Version=ES
 64L-G09RevD.01\State=1-A'\HF=-76.3323812\MP2=-76.4233159\RMSD=4.663e-0
 9\PG=CS [SG(H2O1)]\\@

 MARY HAD A LITTLE LAMB

 Normal termination of Gaussian 09 at Wed Aug 26 09:17:05 2020.
