 Gaussian 09, Revision D.01,
 Gaussian 09:  ES64L-G09RevD.01 24-Apr-2013

 --------------------
 #p B2PLYPD3/Def2QZVP
 --------------------

 ---
 h2o
 ---
 Symbolic Z-matrix:
 Charge =  0 Multiplicity = 1

                         Standard orientation:
 ---------------------------------------------------------------------
 Center     Atomic      Atomic             Coordinates (Angstroms)
 Number     Number       Type             X           Y           Z
 ---------------------------------------------------------------------
      1          8           0        0.000000    0.113105    0.000000
      2          1           0        0.716256   -0.530778    0.000000
      3          1           0       -0.716256   -0.374060    0.000000
 ---------------------------------------------------------------------

 SCF Done:  E(RB2PLYPD3) =  -76.3260655653     A.U. after   10 cycles
 E2(B2PLYPD3) =    -0.8861165207D-01 E(B2PLYPD3) =    -0.76414677217386D+02

 The electronic state is 1-A'.
 Alpha  occ. eigenvalues --  -19.72380  -1.18180  -0.63199  -0.48187  -0.40395
 Alpha virt. eigenvalues --    0.04878   0.10623   0.27158   0.30291   0.31339
 Alpha virt. eigenvalues --    0.37932   0.45603   0.50508   0.56808   0.62320
 Alpha virt. eigenvalues --    0.64481   0.82119   0.94194   0.95373   1.05391

 Mulliken charges:
               1
     1  O   -0.392684
     2  H    0.224880
     3  H    0.167805
 Sum of Mulliken charges =   0.00000

 Dipole moment (field-independent basis, Debye):
    X=             -0.0505    Y=             -1.9439    Z=              0.0000  Tot=              1.9445
 Quadrupole moment (field-independent basis, Debye-Ang):
   XX=             -4.4798   YY=             -6.2441   ZZ=             -7.4873
   XY=             -0.2461   XZ=              0.0000   YZ=              0.0000

 1\1\GINC-NODE26\SP\RB2PLYPD3-FC\def2QZVP\H2O1\BOITTIER\26-Aug-2020\0\\
 #p B2PLYPD3/Def2QZVP\\h2o\\0,1\O,0,-5.326605,-0.760376,0.925581\H,0,-4
 .368927,-0.687429,0.853888\H,0,-5.609308,0.037483,0.74159\\Version=ES6
 4L-G09RevD.01\State=1-A'\HF=-76.3260656\MP2=-76.4146772\RMSD=6.775e-09
 \PG=CS [SG(H2O1)]\\@

 CHARLIE BROWN -- WHICH DO YOU THINK LASTS LONGER IN LIFE, THE GOOD THINGS

 Normal termination of Gaussian 09 at Wed Aug 26 08:33:27 2020.
