 Gaussian 09, Revision D.01,
 Gaussian 09:  ES64L-G09RevD.01 24-Apr-2013

 --------------------
 #p B2PLYPD3/Def2QZVP
 --------------------

 ---
 h2o
 ---
 Symbolic Z-matrix:
 Charge =  0 Multiplicity = 1

                         Standard orientation:
 ---------------------------------------------------------------------
 Center     Atomic      Atomic             Coordinates (Angstroms)
 Number     Number       Type             X           Y           Z
 ---------------------------------------------------------------------
      1          8           0        0.000000    0.118006    0.000000
      2          1           0        0.765020   -0.460429    0.000000
      3          1           0       -0.765020   -0.483618    0.000000
 ---------------------------------------------------------------------

 SCF Done:  E(RB2PLYPD3) =  -76.3346899309     A.U. after   10 cycles
 E2(B2PLYPD3) =    -0.9023690203D-01 E(B2PLYPD3) =    -0.76424926832939D+02

 The electronic state is 1-A'.
 Alpha  occ. eigenvalues --  -19.73245  -1.15327  -0.60951  -0.47349  -0.39902
 Alpha virt. eigenvalues --    0.04452   0.10136   0.27560   0.30430   0.30835
 Alpha virt. eigenvalues --    0.35573   0.43770   0.50203   0.56155   0.62145
 Alpha virt. eigenvalues --    0.65815   0.80961   0.93590   0.96087   1.03306

 Mulliken charges:
               1
     1  O   -0.448897
     2  H    0.221426
     3  H    0.227471
 Sum of Mulliken charges =   0.00000

 Dipole moment (field-independent basis, Debye):
    X=              0.0072    Y=             -1.9651    Z=              0.0000  Tot=              1.9651
 Quadrupole moment (field-independent basis, Debye-Ang):
   XX=             -4.3183   YY=             -6.3319   ZZ=             -7.6105
   XY=              0.0383   XZ=              0.0000   YZ=              0.0000

 1\1\GINC-NODE34\SP\RB2PLYPD3-FC\def2QZVP\H2O1\BOITTIER\26-Aug-2020\0\\
 #p B2PLYPD3/Def2QZVP\\h2o\\0,1\O,0,-5.326605,-0.765417,0.917594\H,0,-4
 .368927,-0.724149,0.94908\H,0,-5.609308,0.15486,0.77485\\Version=ES64L
 -G09RevD.01\State=1-A'\HF=-76.3346899\MP2=-76.4249268\RMSD=4.095e-09\P
 G=CS [SG(H2O1)]\\@

 ...THE PHYSICISTS HAVE MADE THEIR UNIVERSE, AND IF YOU DO NOT LIKE

 Normal termination of Gaussian 09 at Wed Aug 26 10:41:17 2020.
