 Gaussian 09, Revision D.01,
 Gaussian 09:  ES64L-G09RevD.01 24-Apr-2013

 --------------------
 #p B2PLYPD3/Def2QZVP
 --------------------

 ---
 h2o
 ---
 Symbolic Z-matrix:
 Charge =  0 Multiplicity = 1

                         Standard orientation:
 ---------------------------------------------------------------------
 Center     Atomic      Atomic             Coordinates (Angstroms)
 Number     Number       Type             X           Y           Z
 ---------------------------------------------------------------------
      1          8           0        0.000000    0.120073    0.000000
      2          1           0        0.747658   -0.483840    0.000000
      3          1           0       -0.747658   -0.476742    0.000000
 ---------------------------------------------------------------------

 SCF Done:  E(RB2PLYPD3) =  -76.3349157650     A.U. after   10 cycles
 E2(B2PLYPD3) =    -0.9006850139D-01 E(B2PLYPD3) =    -0.76424984266408D+02

 The electronic state is 1-A'.
 Alpha  occ. eigenvalues --  -19.73222  -1.15830  -0.60859  -0.47877  -0.40018
 Alpha virt. eigenvalues --    0.04491   0.10246   0.27552   0.30405   0.30783
 Alpha virt. eigenvalues --    0.36246   0.43980   0.49879   0.56590   0.61546
 Alpha virt. eigenvalues --    0.65682   0.81259   0.94080   0.95900   1.03423

 Mulliken charges:
               1
     1  O   -0.438617
     2  H    0.220289
     3  H    0.218328
 Sum of Mulliken charges =   0.00000

 Dipole moment (field-independent basis, Debye):
    X=             -0.0024    Y=             -1.9946    Z=              0.0000  Tot=              1.9946
 Quadrupole moment (field-independent basis, Debye-Ang):
   XX=             -4.4310   YY=             -6.2618   ZZ=             -7.5899
   XY=             -0.0113   XZ=              0.0000   YZ=              0.0000

 1\1\GINC-NODE19\SP\RB2PLYPD3-FC\def2QZVP\H2O1\BOITTIER\26-Aug-2020\0\\
 #p B2PLYPD3/Def2QZVP\\h2o\\0,1\O,0,-5.326605,-0.766244,0.921454\H,0,-4
 .368927,-0.685299,0.923175\H,0,-5.609308,0.12924,0.738787\\Version=ES6
 4L-G09RevD.01\State=1-A'\HF=-76.3349158\MP2=-76.4249843\RMSD=4.302e-09
 \PG=CS [SG(H2O1)]\\@

 THE WISE MAN HAS THE POWER TO REASON AWAY

 Normal termination of Gaussian 09 at Wed Aug 26 12:01:14 2020.
