 Gaussian 09, Revision D.01,
 Gaussian 09:  ES64L-G09RevD.01 24-Apr-2013

 --------------------
 #p B2PLYPD3/Def2QZVP
 --------------------

 ---
 h2o
 ---
 Symbolic Z-matrix:
 Charge =  0 Multiplicity = 1

                         Standard orientation:
 ---------------------------------------------------------------------
 Center     Atomic      Atomic             Coordinates (Angstroms)
 Number     Number       Type             X           Y           Z
 ---------------------------------------------------------------------
      1          8           0        0.000000    0.119621    0.000000
      2          1           0        0.781664   -0.435084    0.000000
      3          1           0       -0.781664   -0.521882    0.000000
 ---------------------------------------------------------------------

 SCF Done:  E(RB2PLYPD3) =  -76.3318687834     A.U. after   10 cycles
 E2(B2PLYPD3) =    -0.9084280882D-01 E(B2PLYPD3) =    -0.76422711592222D+02

 The electronic state is 1-A'.
 Alpha  occ. eigenvalues --  -19.73498  -1.14496  -0.60218  -0.46991  -0.39739
 Alpha virt. eigenvalues --    0.04209   0.09947   0.27650   0.30307   0.30475
 Alpha virt. eigenvalues --    0.34796   0.43337   0.50132   0.55811   0.62163
 Alpha virt. eigenvalues --    0.66225   0.80403   0.92710   0.96468   1.01906

 Mulliken charges:
               1
     1  O   -0.461918
     2  H    0.220827
     3  H    0.241092
 Sum of Mulliken charges =   0.00000

 Dipole moment (field-independent basis, Debye):
    X=              0.0265    Y=             -1.9694    Z=              0.0000  Tot=              1.9696
 Quadrupole moment (field-independent basis, Debye-Ang):
   XX=             -4.2582   YY=             -6.3500   ZZ=             -7.6530
   XY=              0.1458   XZ=              0.0000   YZ=              0.0000

 1\1\GINC-NODE27\SP\RB2PLYPD3-FC\def2QZVP\H2O1\BOITTIER\26-Aug-2020\0\\
 #p B2PLYPD3/Def2QZVP\\h2o\\0,1\O,0,-5.326605,-0.76645,0.918177\H,0,-4.
 368927,-0.744901,0.951122\H,0,-5.609308,0.19214,0.7642\\Version=ES64L-
 G09RevD.01\State=1-A'\HF=-76.3318688\MP2=-76.4227116\RMSD=5.021e-09\PG
 =CS [SG(H2O1)]\\@

 There are more things in heaven and earth, Horatio,

 Normal termination of Gaussian 09 at Wed Aug 26 12:36:09 2020.
