 Gaussian 09, Revision D.01,
 Gaussian 09:  ES64L-G09RevD.01 24-Apr-2013

 --------------------
 #p B2PLYPD3/Def2QZVP
 --------------------

 ---
 h2o
 ---
 Symbolic Z-matrix:
 Charge =  0 Multiplicity = 1

                         Standard orientation:
 ---------------------------------------------------------------------
 Center     Atomic      Atomic             Coordinates (Angstroms)
 Number     Number       Type             X           Y           Z
 ---------------------------------------------------------------------
      1          8           0        0.000000    0.115877    0.000000
      2          1           0        0.747634   -0.485121    0.000000
      3          1           0       -0.747634   -0.441898    0.000000
 ---------------------------------------------------------------------

 SCF Done:  E(RB2PLYPD3) =  -76.3348459053     A.U. after   10 cycles
 E2(B2PLYPD3) =    -0.8958578695D-01 E(B2PLYPD3) =    -0.76424431692254D+02

 The electronic state is 1-A'.
 Alpha  occ. eigenvalues --  -19.72929  -1.16318  -0.61832  -0.47664  -0.40081
 Alpha virt. eigenvalues --    0.04664   0.10331   0.27429   0.30379   0.31183
 Alpha virt. eigenvalues --    0.36509   0.44363   0.50341   0.56435   0.62239
 Alpha virt. eigenvalues --    0.65309   0.81474   0.94158   0.95678   1.04641

 Mulliken charges:
               1
     1  O   -0.431831
     2  H    0.222287
     3  H    0.209545
 Sum of Mulliken charges =   0.00000

 Dipole moment (field-independent basis, Debye):
    X=             -0.0135    Y=             -1.9550    Z=              0.0000  Tot=              1.9550
 Quadrupole moment (field-independent basis, Debye-Ang):
   XX=             -4.3730   YY=             -6.3112   ZZ=             -7.5638
   XY=             -0.0702   XZ=              0.0000   YZ=              0.0000

 1\1\GINC-NODE11\SP\RB2PLYPD3-FC\def2QZVP\H2O1\BOITTIER\26-Aug-2020\0\\
 #p B2PLYPD3/Def2QZVP\\h2o\\0,1\O,0,-5.326605,-0.763182,0.922291\H,0,-4
 .368927,-0.714107,0.897782\H,0,-5.609308,0.109063,0.751006\\Version=ES
 64L-G09RevD.01\State=1-A'\HF=-76.3348459\MP2=-76.4244317\RMSD=4.629e-0
 9\PG=CS [SG(H2O1)]\\@

 STEINBACH'S GUIDELINES FOR SYSTEMS PROGRAMMING:

 Normal termination of Gaussian 09 at Wed Aug 26 09:45:16 2020.
