 Gaussian 09, Revision D.01,
 Gaussian 09:  ES64L-G09RevD.01 24-Apr-2013

 --------------------
 #p B2PLYPD3/Def2QZVP
 --------------------

 ---
 h2o
 ---
 Symbolic Z-matrix:
 Charge =  0 Multiplicity = 1

                         Standard orientation:
 ---------------------------------------------------------------------
 Center     Atomic      Atomic             Coordinates (Angstroms)
 Number     Number       Type             X           Y           Z
 ---------------------------------------------------------------------
      1          8           0        0.000000    0.115847    0.000000
      2          1           0        0.756333   -0.476424    0.000000
      3          1           0       -0.756333   -0.450354    0.000000
 ---------------------------------------------------------------------

 SCF Done:  E(RB2PLYPD3) =  -76.3351503671     A.U. after   10 cycles
 E2(B2PLYPD3) =    -0.8978464418D-01 E(B2PLYPD3) =    -0.76424935011298D+02

 The electronic state is 1-A'.
 Alpha  occ. eigenvalues --  -19.73014  -1.15936  -0.61640  -0.47454  -0.40007
 Alpha virt. eigenvalues --    0.04609   0.10257   0.27466   0.30398   0.31138
 Alpha virt. eigenvalues --    0.36100   0.44150   0.50399   0.56262   0.62372
 Alpha virt. eigenvalues --    0.65469   0.81280   0.93946   0.95823   1.04356

 Mulliken charges:
               1
     1  O   -0.439129
     2  H    0.223237
     3  H    0.215892
 Sum of Mulliken charges =   0.00000

 Dipole moment (field-independent basis, Debye):
    X=             -0.0080    Y=             -1.9498    Z=              0.0000  Tot=              1.9498
 Quadrupole moment (field-independent basis, Debye-Ang):
   XX=             -4.3309   YY=             -6.3354   ZZ=             -7.5805
   XY=             -0.0430   XZ=              0.0000   YZ=              0.0000

 1\1\GINC-NODE22\SP\RB2PLYPD3-FC\def2QZVP\H2O1\BOITTIER\26-Aug-2020\0\\
 #p B2PLYPD3/Def2QZVP\\h2o\\0,1\O,0,-5.326605,-0.762,0.926822\H,0,-4.36
 8927,-0.739998,0.854755\H,0,-5.609308,0.116041,0.722503\\Version=ES64L
 -G09RevD.01\State=1-A'\HF=-76.3351504\MP2=-76.424935\RMSD=4.235e-09\PG
 =CS [SG(H2O1)]\\@

 There was a great rattling of the words for the fewness of ideas.

 Normal termination of Gaussian 09 at Wed Aug 26 08:31:58 2020.
