 Gaussian 09, Revision D.01,
 Gaussian 09:  ES64L-G09RevD.01 24-Apr-2013

 --------------------
 #p B2PLYPD3/Def2QZVP
 --------------------

 ---
 h2o
 ---
 Symbolic Z-matrix:
 Charge =  0 Multiplicity = 1

                         Standard orientation:
 ---------------------------------------------------------------------
 Center     Atomic      Atomic             Coordinates (Angstroms)
 Number     Number       Type             X           Y           Z
 ---------------------------------------------------------------------
      1          8           0        0.000000    0.116842    0.000000
      2          1           0        0.787178   -0.429053    0.000000
      3          1           0       -0.787178   -0.505683    0.000000
 ---------------------------------------------------------------------

 SCF Done:  E(RB2PLYPD3) =  -76.3324941974     A.U. after   10 cycles
 E2(B2PLYPD3) =    -0.9065727555D-01 E(B2PLYPD3) =    -0.76423151472953D+02

 The electronic state is 1-A'.
 Alpha  occ. eigenvalues --  -19.73367  -1.14552  -0.60685  -0.46736  -0.39728
 Alpha virt. eigenvalues --    0.04292   0.09961   0.27595   0.30473   0.30609
 Alpha virt. eigenvalues --    0.34676   0.43413   0.50512   0.55625   0.62689
 Alpha virt. eigenvalues --    0.66103   0.80365   0.92769   0.96434   1.02477

 Mulliken charges:
               1
     1  O   -0.463498
     2  H    0.222679
     3  H    0.240819
 Sum of Mulliken charges =   0.00000

 Dipole moment (field-independent basis, Debye):
    X=              0.0220    Y=             -1.9403    Z=              0.0000  Tot=              1.9404
 Quadrupole moment (field-independent basis, Debye-Ang):
   XX=             -4.1922   YY=             -6.3998   ZZ=             -7.6475
   XY=              0.1317   XZ=              0.0000   YZ=              0.0000

 1\1\GINC-NODE12\SP\RB2PLYPD3-FC\def2QZVP\H2O1\BOITTIER\26-Aug-2020\0\\
 #p B2PLYPD3/Def2QZVP\\h2o\\0,1\O,0,-5.326605,-0.764557,0.918168\H,0,-4
 .368927,-0.770875,0.939691\H,0,-5.609308,0.187839,0.776017\\Version=ES
 64L-G09RevD.01\State=1-A'\HF=-76.3324942\MP2=-76.4231515\RMSD=4.830e-0
 9\PG=CS [SG(H2O1)]\\@

 This summer one third of the nation will be ill-housed

 Normal termination of Gaussian 09 at Wed Aug 26 08:06:02 2020.
