 Gaussian 09, Revision D.01,
 Gaussian 09:  ES64L-G09RevD.01 24-Apr-2013

 --------------------
 #p B2PLYPD3/Def2QZVP
 --------------------

 ---
 h2o
 ---
 Symbolic Z-matrix:
 Charge =  0 Multiplicity = 1

                         Standard orientation:
 ---------------------------------------------------------------------
 Center     Atomic      Atomic             Coordinates (Angstroms)
 Number     Number       Type             X           Y           Z
 ---------------------------------------------------------------------
      1          8           0        0.000000    0.114752    0.000000
      2          1           0        0.760538   -0.468170    0.000000
      3          1           0       -0.760538   -0.449845    0.000000
 ---------------------------------------------------------------------

 SCF Done:  E(RB2PLYPD3) =  -76.3352207084     A.U. after   10 cycles
 E2(B2PLYPD3) =    -0.8976191362D-01 E(B2PLYPD3) =    -0.76424982621972D+02

 The electronic state is 1-A'.
 Alpha  occ. eigenvalues --  -19.72981  -1.15873  -0.61792  -0.47298  -0.39986
 Alpha virt. eigenvalues --    0.04626   0.10242   0.27454   0.30401   0.31225
 Alpha virt. eigenvalues --    0.35956   0.44142   0.50558   0.56140   0.62618
 Alpha virt. eigenvalues --    0.65453   0.81229   0.93879   0.95840   1.04560

 Mulliken charges:
               1
     1  O   -0.441004
     2  H    0.223068
     3  H    0.217936
 Sum of Mulliken charges =   0.00000

 Dipole moment (field-independent basis, Debye):
    X=             -0.0055    Y=             -1.9368    Z=              0.0000  Tot=              1.9369
 Quadrupole moment (field-independent basis, Debye-Ang):
   XX=             -4.2956   YY=             -6.3598   ZZ=             -7.5821
   XY=             -0.0306   XZ=              0.0000   YZ=              0.0000

 1\1\GINC-NODE31\SP\RB2PLYPD3-FC\def2QZVP\H2O1\BOITTIER\26-Aug-2020\0\\
 #p B2PLYPD3/Def2QZVP\\h2o\\0,1\O,0,-5.326605,-0.763196,0.917468\H,0,-4
 .368927,-0.736537,0.936373\H,0,-5.609308,0.131718,0.789425\\Version=ES
 64L-G09RevD.01\State=1-A'\HF=-76.3352207\MP2=-76.4249826\RMSD=4.088e-0
 9\PG=CS [SG(H2O1)]\\@

 IT'S WHAT A FELLER THINKS HE KNOWS THAT HURTS HIM...

 Normal termination of Gaussian 09 at Wed Aug 26 09:34:07 2020.
