 Gaussian 09, Revision D.01,
 Gaussian 09:  ES64L-G09RevD.01 24-Apr-2013

 --------------------
 #p B2PLYPD3/Def2QZVP
 --------------------

 ---
 h2o
 ---
 Symbolic Z-matrix:
 Charge =  0 Multiplicity = 1

                         Standard orientation:
 ---------------------------------------------------------------------
 Center     Atomic      Atomic             Coordinates (Angstroms)
 Number     Number       Type             X           Y           Z
 ---------------------------------------------------------------------
      1          8           0        0.000000    0.115347    0.000000
      2          1           0        0.767287   -0.458001    0.000000
      3          1           0       -0.767287   -0.464774    0.000000
 ---------------------------------------------------------------------

 SCF Done:  E(RB2PLYPD3) =  -76.3350816817     A.U. after   10 cycles
 E2(B2PLYPD3) =    -0.8998944378D-01 E(B2PLYPD3) =    -0.76425071125512D+02

 The electronic state is 1-A'.
 Alpha  occ. eigenvalues --  -19.73087  -1.15517  -0.61496  -0.47166  -0.39919
 Alpha virt. eigenvalues --    0.04551   0.10172   0.27497   0.30420   0.31112
 Alpha virt. eigenvalues --    0.35606   0.43933   0.50535   0.56023   0.62619
 Alpha virt. eigenvalues --    0.65629   0.81028   0.93661   0.95992   1.04095

 Mulliken charges:
               1
     1  O   -0.447326
     2  H    0.222755
     3  H    0.224571
 Sum of Mulliken charges =   0.00000

 Dipole moment (field-independent basis, Debye):
    X=              0.0020    Y=             -1.9386    Z=              0.0000  Tot=              1.9386
 Quadrupole moment (field-independent basis, Debye-Ang):
   XX=             -4.2707   YY=             -6.3706   ZZ=             -7.5990
   XY=              0.0114   XZ=              0.0000   YZ=              0.0000

 1\1\GINC-NODE20\SP\RB2PLYPD3-FC\def2QZVP\H2O1\BOITTIER\26-Aug-2020\0\\
 #p B2PLYPD3/Def2QZVP\\h2o\\0,1\O,0,-5.326605,-0.763132,0.920694\H,0,-4
 .368927,-0.74875,0.910523\H,0,-5.609308,0.142908,0.76436\\Version=ES64
 L-G09RevD.01\State=1-A'\HF=-76.3350817\MP2=-76.4250711\RMSD=3.927e-09\
 PG=CS [SG(H2O1)]\\@

 HE THAT WALD REACHE THE SWEITE ROSE

 Normal termination of Gaussian 09 at Wed Aug 26 09:32:27 2020.
