 Gaussian 09, Revision D.01,
 Gaussian 09:  ES64L-G09RevD.01 24-Apr-2013

 --------------------
 #p B2PLYPD3/Def2QZVP
 --------------------

 ---
 h2o
 ---
 Symbolic Z-matrix:
 Charge =  0 Multiplicity = 1

                         Standard orientation:
 ---------------------------------------------------------------------
 Center     Atomic      Atomic             Coordinates (Angstroms)
 Number     Number       Type             X           Y           Z
 ---------------------------------------------------------------------
      1          8           0        0.000000    0.115217    0.000000
      2          1           0        0.762688   -0.465181    0.000000
      3          1           0       -0.762688   -0.456559    0.000000
 ---------------------------------------------------------------------

 SCF Done:  E(RB2PLYPD3) =  -76.3352148285     A.U. after   10 cycles
 E2(B2PLYPD3) =    -0.8986444130D-01 E(B2PLYPD3) =    -0.76425079269795D+02

 The electronic state is 1-A'.
 Alpha  occ. eigenvalues --  -19.73034  -1.15729  -0.61635  -0.47271  -0.39961
 Alpha virt. eigenvalues --    0.04592   0.10214   0.27476   0.30408   0.31164
 Alpha virt. eigenvalues --    0.35830   0.44050   0.50517   0.56113   0.62571
 Alpha virt. eigenvalues --    0.65533   0.81154   0.93804   0.95901   1.04335

 Mulliken charges:
               1
     1  O   -0.443460
     2  H    0.222916
     3  H    0.220544
 Sum of Mulliken charges =   0.00000

 Dipole moment (field-independent basis, Debye):
    X=             -0.0026    Y=             -1.9401    Z=              0.0000  Tot=              1.9401
 Quadrupole moment (field-independent basis, Debye-Ang):
   XX=             -4.2914   YY=             -6.3601   ZZ=             -7.5891
   XY=             -0.0144   XZ=              0.0000   YZ=              0.0000

 1\1\GINC-NODE06\SP\RB2PLYPD3-FC\def2QZVP\H2O1\BOITTIER\26-Aug-2020\0\\
 #p B2PLYPD3/Def2QZVP\\h2o\\0,1\O,0,-5.326605,-0.76358,0.916916\H,0,-4.
 368927,-0.736748,0.943146\H,0,-5.609308,0.138067,0.791484\\Version=ES6
 4L-G09RevD.01\State=1-A'\HF=-76.3352148\MP2=-76.4250793\RMSD=3.996e-09
 \PG=CS [SG(H2O1)]\\@

 WHEN ALL ELSE FAILS, LOOK AT THE SCHRODINGER EQUATION.

 Normal termination of Gaussian 09 at Wed Aug 26 08:51:22 2020.
