 Gaussian 09, Revision D.01,
 Gaussian 09:  ES64L-G09RevD.01 24-Apr-2013

 --------------------
 #p B2PLYPD3/Def2QZVP
 --------------------

 ---
 h2o
 ---
 Symbolic Z-matrix:
 Charge =  0 Multiplicity = 1

                         Standard orientation:
 ---------------------------------------------------------------------
 Center     Atomic      Atomic             Coordinates (Angstroms)
 Number     Number       Type             X           Y           Z
 ---------------------------------------------------------------------
      1          8           0        0.000000    0.113533    0.000000
      2          1           0        0.771240   -0.454434    0.000000
      3          1           0       -0.771240   -0.453832    0.000000
 ---------------------------------------------------------------------

 SCF Done:  E(RB2PLYPD3) =  -76.3350984825     A.U. after   10 cycles
 E2(B2PLYPD3) =    -0.8988620696D-01 E(B2PLYPD3) =    -0.76424984689480D+02

 The electronic state is 1-A'.
 Alpha  occ. eigenvalues --  -19.73003  -1.15541  -0.61807  -0.46979  -0.39910
 Alpha virt. eigenvalues --    0.04596   0.10172   0.27465   0.30418   0.31272
 Alpha virt. eigenvalues --    0.35503   0.43991   0.50791   0.55880   0.62987
 Alpha virt. eigenvalues --    0.65550   0.80996   0.93633   0.95984   1.04528

 Mulliken charges:
               1
     1  O   -0.448136
     2  H    0.224149
     3  H    0.223987
 Sum of Mulliken charges =   0.00000

 Dipole moment (field-independent basis, Debye):
    X=             -0.0002    Y=             -1.9188    Z=              0.0000  Tot=              1.9188
 Quadrupole moment (field-independent basis, Debye-Ang):
   XX=             -4.2266   YY=             -6.4029   ZZ=             -7.5961
   XY=             -0.0010   XZ=              0.0000   YZ=              0.0000

 1\1\GINC-NODE08\SP\RB2PLYPD3-FC\def2QZVP\H2O1\BOITTIER\26-Aug-2020\0\\
 #p B2PLYPD3/Def2QZVP\\h2o\\0,1\O,0,-5.326605,-0.761913,0.920431\H,0,-4
 .368927,-0.766404,0.905216\H,0,-5.609308,0.14106,0.774028\\Version=ES6
 4L-G09RevD.01\State=1-A'\HF=-76.3350985\MP2=-76.4249847\RMSD=3.850e-09
 \PG=CS [SG(H2O1)]\\@

 THE FIRST MORNING OF CREATION WROTE WHAT THE LAST DAWN OF

 Normal termination of Gaussian 09 at Wed Aug 26 08:30:02 2020.
