 Gaussian 09, Revision D.01,
 Gaussian 09:  ES64L-G09RevD.01 24-Apr-2013

 --------------------
 #p B2PLYPD3/Def2QZVP
 --------------------

 ---
 h2o
 ---
 Symbolic Z-matrix:
 Charge =  0 Multiplicity = 1

                         Standard orientation:
 ---------------------------------------------------------------------
 Center     Atomic      Atomic             Coordinates (Angstroms)
 Number     Number       Type             X           Y           Z
 ---------------------------------------------------------------------
      1          8           0        0.000000    0.118086    0.000000
      2          1           0        0.771017   -0.450989    0.000000
      3          1           0       -0.771017   -0.493698    0.000000
 ---------------------------------------------------------------------

 SCF Done:  E(RB2PLYPD3) =  -76.3341198006     A.U. after   10 cycles
 E2(B2PLYPD3) =    -0.9039327023D-01 E(B2PLYPD3) =    -0.76424513070854D+02

 The electronic state is 1-A'.
 Alpha  occ. eigenvalues --  -19.73305  -1.15073  -0.60796  -0.47201  -0.39849
 Alpha virt. eigenvalues --    0.04395   0.10080   0.27582   0.30444   0.30738
 Alpha virt. eigenvalues --    0.35300   0.43642   0.50235   0.56023   0.62228
 Alpha virt. eigenvalues --    0.65925   0.80795   0.93350   0.96201   1.02962

 Mulliken charges:
               1
     1  O   -0.453317
     2  H    0.221268
     3  H    0.232049
 Sum of Mulliken charges =   0.00000

 Dipole moment (field-independent basis, Debye):
    X=              0.0131    Y=             -1.9621    Z=              0.0000  Tot=              1.9622
 Quadrupole moment (field-independent basis, Debye-Ang):
   XX=             -4.2899   YY=             -6.3456   ZZ=             -7.6228
   XY=              0.0711   XZ=              0.0000   YZ=              0.0000

 1\1\GINC-NODE01\SP\RB2PLYPD3-FC\def2QZVP\H2O1\BOITTIER\26-Aug-2020\0\\
 #p B2PLYPD3/Def2QZVP\\h2o\\0,1\O,0,-5.326605,-0.765285,0.919059\H,0,-4
 .368927,-0.736074,0.93677\H,0,-5.609308,0.164678,0.764157\\Version=ES6
 4L-G09RevD.01\State=1-A'\HF=-76.3341198\MP2=-76.4245131\RMSD=4.271e-09
 \PG=CS [SG(H2O1)]\\@

 HAPPINESS IS NOT HAVING WHAT YOU WANT --

 Normal termination of Gaussian 09 at Wed Aug 26 09:31:32 2020.
