 Gaussian 09, Revision D.01,
 Gaussian 09:  ES64L-G09RevD.01 24-Apr-2013

 --------------------
 #p B2PLYPD3/Def2QZVP
 --------------------

 ---
 h2o
 ---
 Symbolic Z-matrix:
 Charge =  0 Multiplicity = 1

                         Standard orientation:
 ---------------------------------------------------------------------
 Center     Atomic      Atomic             Coordinates (Angstroms)
 Number     Number       Type             X           Y           Z
 ---------------------------------------------------------------------
      1          8           0        0.000000    0.127063    0.000000
      2          1           0        0.755871   -0.472000    0.000000
      3          1           0       -0.755871   -0.544506    0.000000
 ---------------------------------------------------------------------

 SCF Done:  E(RB2PLYPD3) =  -76.3313008081     A.U. after   10 cycles
 E2(B2PLYPD3) =    -0.9113394814D-01 E(B2PLYPD3) =    -0.76422434756234D+02

 The electronic state is 1-A'.
 Alpha  occ. eigenvalues --  -19.73770  -1.14717  -0.59137  -0.47955  -0.39851
 Alpha virt. eigenvalues --    0.04084   0.09997   0.27784   0.29794   0.30458
 Alpha virt. eigenvalues --    0.35377   0.43280   0.49209   0.56574   0.60622
 Alpha virt. eigenvalues --    0.66405   0.80671   0.93278   0.96481   1.00992

 Mulliken charges:
               1
     1  O   -0.452224
     2  H    0.217567
     3  H    0.234657
 Sum of Mulliken charges =   0.00000

 Dipole moment (field-independent basis, Debye):
    X=              0.0263    Y=             -2.0525    Z=              0.0000  Tot=              2.0527
 Quadrupole moment (field-independent basis, Debye-Ang):
   XX=             -4.4901   YY=             -6.1917   ZZ=             -7.6498
   XY=              0.1124   XZ=              0.0000   YZ=              0.0000

 1\1\GINC-NODE20\SP\RB2PLYPD3-FC\def2QZVP\H2O1\BOITTIER\26-Aug-2020\0\\
 #p B2PLYPD3/Def2QZVP\\h2o\\0,1\O,0,-5.326605,-0.768371,0.931467\H,0,-4
 .368927,-0.681651,0.856967\H,0,-5.609308,0.15963,0.646442\\Version=ES6
 4L-G09RevD.01\State=1-A'\HF=-76.3313008\MP2=-76.4224348\RMSD=4.891e-09
 \PG=CS [SG(H2O1)]\\@

 IT IS A SIMPLE TASK TO MAKE THINGS COMPLEX,

 Normal termination of Gaussian 09 at Wed Aug 26 09:13:54 2020.
