 Gaussian 09, Revision D.01,
 Gaussian 09:  ES64L-G09RevD.01 24-Apr-2013

 --------------------
 #p B2PLYPD3/Def2QZVP
 --------------------

 ---
 h2o
 ---
 Symbolic Z-matrix:
 Charge =  0 Multiplicity = 1

                         Standard orientation:
 ---------------------------------------------------------------------
 Center     Atomic      Atomic             Coordinates (Angstroms)
 Number     Number       Type             X           Y           Z
 ---------------------------------------------------------------------
      1          8           0        0.000000    0.113272    0.000000
      2          1           0        0.767755   -0.461180    0.000000
      3          1           0       -0.767755   -0.444998    0.000000
 ---------------------------------------------------------------------

 SCF Done:  E(RB2PLYPD3) =  -76.3351570830     A.U. after   10 cycles
 E2(B2PLYPD3) =    -0.8977385044D-01 E(B2PLYPD3) =    -0.76424930933415D+02

 The electronic state is 1-A'.
 Alpha  occ. eigenvalues --  -19.72952  -1.15720  -0.61953  -0.47048  -0.39944
 Alpha virt. eigenvalues --    0.04633   0.10207   0.27444   0.30408   0.31322
 Alpha virt. eigenvalues --    0.35681   0.44096   0.50796   0.55940   0.62980
 Alpha virt. eigenvalues --    0.65462   0.81103   0.93739   0.95907   1.04738

 Mulliken charges:
               1
     1  O   -0.444870
     2  H    0.224664
     3  H    0.220206
 Sum of Mulliken charges =   0.00000

 Dipole moment (field-independent basis, Debye):
    X=             -0.0046    Y=             -1.9183    Z=              0.0000  Tot=              1.9183
 Quadrupole moment (field-independent basis, Debye-Ang):
   XX=             -4.2402   YY=             -6.3966   ZZ=             -7.5877
   XY=             -0.0275   XZ=              0.0000   YZ=              0.0000

 1\1\GINC-NODE34\SP\RB2PLYPD3-FC\def2QZVP\H2O1\BOITTIER\26-Aug-2020\0\\
 #p B2PLYPD3/Def2QZVP\\h2o\\0,1\O,0,-5.326605,-0.762477,0.913799\H,0,-4
 .368927,-0.7555,0.961206\H,0,-5.609308,0.139169,0.823098\\Version=ES64
 L-G09RevD.01\State=1-A'\HF=-76.3351571\MP2=-76.4249309\RMSD=3.961e-09\
 PG=CS [SG(H2O1)]\\@

 THOSE WHO TRY TO PASS CHEMISTRY OFF AS A NEW SCIENCE

 Normal termination of Gaussian 09 at Wed Aug 26 08:32:30 2020.
