 Gaussian 09, Revision D.01,
 Gaussian 09:  ES64L-G09RevD.01 24-Apr-2013

 --------------------
 #p B2PLYPD3/Def2QZVP
 --------------------

 ---
 h2o
 ---
 Symbolic Z-matrix:
 Charge =  0 Multiplicity = 1

                         Standard orientation:
 ---------------------------------------------------------------------
 Center     Atomic      Atomic             Coordinates (Angstroms)
 Number     Number       Type             X           Y           Z
 ---------------------------------------------------------------------
      1          8           0        0.000000    0.116908    0.000000
      2          1           0        0.736621   -0.501117    0.000000
      3          1           0       -0.736621   -0.434147    0.000000
 ---------------------------------------------------------------------

 SCF Done:  E(RB2PLYPD3) =  -76.3339565453     A.U. after   10 cycles
 E2(B2PLYPD3) =    -0.8945358293D-01 E(B2PLYPD3) =    -0.76423410128187D+02

 The electronic state is 1-A'.
 Alpha  occ. eigenvalues --  -19.72887  -1.16700  -0.61834  -0.47976  -0.40160
 Alpha virt. eigenvalues --    0.04681   0.10404   0.27405   0.30361   0.31120
 Alpha virt. eigenvalues --    0.36956   0.44562   0.50166   0.56680   0.61914
 Alpha virt. eigenvalues --    0.65190   0.81635   0.94343   0.95574   1.04633

 Mulliken charges:
               1
     1  O   -0.423900
     2  H    0.222254
     3  H    0.201646
 Sum of Mulliken charges =   0.00000

 Dipole moment (field-independent basis, Debye):
    X=             -0.0219    Y=             -1.9708    Z=              0.0000  Tot=              1.9709
 Quadrupole moment (field-independent basis, Debye-Ang):
   XX=             -4.4390   YY=             -6.2680   ZZ=             -7.5491
   XY=             -0.1064   XZ=              0.0000   YZ=              0.0000

 1\1\GINC-NODE29\SP\RB2PLYPD3-FC\def2QZVP\H2O1\BOITTIER\26-Aug-2020\0\\
 #p B2PLYPD3/Def2QZVP\\h2o\\0,1\O,0,-5.326605,-0.763157,0.925372\H,0,-4
 .368927,-0.694807,0.872964\H,0,-5.609308,0.089368,0.726492\\Version=ES
 64L-G09RevD.01\State=1-A'\HF=-76.3339565\MP2=-76.4234101\RMSD=5.292e-0
 9\PG=CS [SG(H2O1)]\\@

 A COMPUTER IS LIKE A HORSE, IT WILL SENSE WEAKNESS.

 Normal termination of Gaussian 09 at Wed Aug 26 12:19:32 2020.
