 Gaussian 09, Revision D.01,
 Gaussian 09:  ES64L-G09RevD.01 24-Apr-2013

 --------------------
 #p B2PLYPD3/Def2QZVP
 --------------------

 ---
 h2o
 ---
 Symbolic Z-matrix:
 Charge =  0 Multiplicity = 1

                         Standard orientation:
 ---------------------------------------------------------------------
 Center     Atomic      Atomic             Coordinates (Angstroms)
 Number     Number       Type             X           Y           Z
 ---------------------------------------------------------------------
      1          8           0        0.000000    0.118162    0.000000
      2          1           0        0.779980   -0.437812    0.000000
      3          1           0       -0.779980   -0.507484    0.000000
 ---------------------------------------------------------------------

 SCF Done:  E(RB2PLYPD3) =  -76.3329276237     A.U. after   10 cycles
 E2(B2PLYPD3) =    -0.9062701285D-01 E(B2PLYPD3) =    -0.76423554636532D+02

 The electronic state is 1-A'.
 Alpha  occ. eigenvalues --  -19.73390  -1.14706  -0.60572  -0.46975  -0.39772
 Alpha virt. eigenvalues --    0.04302   0.09997   0.27610   0.30464   0.30562
 Alpha virt. eigenvalues --    0.34918   0.43463   0.50292   0.55820   0.62362
 Alpha virt. eigenvalues --    0.66083   0.80529   0.92951   0.96368   1.02444

 Mulliken charges:
               1
     1  O   -0.459620
     2  H    0.221421
     3  H    0.238199
 Sum of Mulliken charges =   0.00000

 Dipole moment (field-independent basis, Debye):
    X=              0.0208    Y=             -1.9571    Z=              0.0000  Tot=              1.9572
 Quadrupole moment (field-independent basis, Debye-Ang):
   XX=             -4.2464   YY=             -6.3657   ZZ=             -7.6410
   XY=              0.1176   XZ=              0.0000   YZ=              0.0000

 1\1\GINC-NODE36\SP\RB2PLYPD3-FC\def2QZVP\H2O1\BOITTIER\26-Aug-2020\0\\
 #p B2PLYPD3/Def2QZVP\\h2o\\0,1\O,0,-5.326605,-0.765258,0.91962\H,0,-4.
 368927,-0.752315,0.93233\H,0,-5.609308,0.18048,0.760055\\Version=ES64L
 -G09RevD.01\State=1-A'\HF=-76.3329276\MP2=-76.4235546\RMSD=4.685e-09\P
 G=CS [SG(H2O1)]\\@

 DIATOMIC MOLECULES ARE PECULIAR BECAUSE THEY ONLY HAVE TWO ENDS,

 Normal termination of Gaussian 09 at Wed Aug 26 12:13:23 2020.
