 Gaussian 09, Revision D.01,
 Gaussian 09:  ES64L-G09RevD.01 24-Apr-2013

 --------------------
 #p B2PLYPD3/Def2QZVP
 --------------------

 ---
 h2o
 ---
 Symbolic Z-matrix:
 Charge =  0 Multiplicity = 1

                         Standard orientation:
 ---------------------------------------------------------------------
 Center     Atomic      Atomic             Coordinates (Angstroms)
 Number     Number       Type             X           Y           Z
 ---------------------------------------------------------------------
      1          8           0        0.000000    0.114985    0.000000
      2          1           0        0.767325   -0.458235    0.000000
      3          1           0       -0.767325   -0.461643    0.000000
 ---------------------------------------------------------------------

 SCF Done:  E(RB2PLYPD3) =  -76.3351211190     A.U. after   10 cycles
 E2(B2PLYPD3) =    -0.8995010853D-01 E(B2PLYPD3) =    -0.76425071227549D+02

 The electronic state is 1-A'.
 Alpha  occ. eigenvalues --  -19.73063  -1.15554  -0.61577  -0.47147  -0.39924
 Alpha virt. eigenvalues --    0.04566   0.10179   0.27488   0.30418   0.31151
 Alpha virt. eigenvalues --    0.35621   0.43962   0.50579   0.56010   0.62680
 Alpha virt. eigenvalues --    0.65599   0.81043   0.93678   0.95975   1.04216

 Mulliken charges:
               1
     1  O   -0.446883
     2  H    0.222983
     3  H    0.223901
 Sum of Mulliken charges =   0.00000

 Dipole moment (field-independent basis, Debye):
    X=              0.0010    Y=             -1.9351    Z=              0.0000  Tot=              1.9351
 Quadrupole moment (field-independent basis, Debye-Ang):
   XX=             -4.2656   YY=             -6.3751   ZZ=             -7.5969
   XY=              0.0057   XZ=              0.0000   YZ=              0.0000

 1\1\GINC-NODE26\SP\RB2PLYPD3-FC\def2QZVP\H2O1\BOITTIER\26-Aug-2020\0\\
 #p B2PLYPD3/Def2QZVP\\h2o\\0,1\O,0,-5.326605,-0.762943,0.920338\H,0,-4
 .368927,-0.750511,0.912184\H,0,-5.609308,0.141637,0.768349\\Version=ES
 64L-G09RevD.01\State=1-A'\HF=-76.3351211\MP2=-76.4250712\RMSD=3.915e-0
 9\PG=CS [SG(H2O1)]\\@

 ... IT IS NO ONE DREAME THAT

 Normal termination of Gaussian 09 at Wed Aug 26 11:54:18 2020.
