 Gaussian 09, Revision D.01,
 Gaussian 09:  ES64L-G09RevD.01 24-Apr-2013

 --------------------
 #p B2PLYPD3/Def2QZVP
 --------------------

 ---
 h2o
 ---
 Symbolic Z-matrix:
 Charge =  0 Multiplicity = 1

                         Standard orientation:
 ---------------------------------------------------------------------
 Center     Atomic      Atomic             Coordinates (Angstroms)
 Number     Number       Type             X           Y           Z
 ---------------------------------------------------------------------
      1          8           0        0.000000    0.120023    0.000000
      2          1           0        0.756624   -0.470728    0.000000
      3          1           0       -0.756624   -0.489455    0.000000
 ---------------------------------------------------------------------

 SCF Done:  E(RB2PLYPD3) =  -76.3346521834     A.U. after   10 cycles
 E2(B2PLYPD3) =    -0.9027273556D-01 E(B2PLYPD3) =    -0.76424924918930D+02

 The electronic state is 1-A'.
 Alpha  occ. eigenvalues --  -19.73304  -1.15456  -0.60682  -0.47652  -0.39944
 Alpha virt. eigenvalues --    0.04428   0.10167   0.27586   0.30424   0.30698
 Alpha virt. eigenvalues --    0.35837   0.43788   0.49928   0.56396   0.61691
 Alpha virt. eigenvalues --    0.65839   0.81063   0.93780   0.96052   1.03039

 Mulliken charges:
               1
     1  O   -0.445208
     2  H    0.220133
     3  H    0.225075
 Sum of Mulliken charges =   0.00000

 Dipole moment (field-independent basis, Debye):
    X=              0.0061    Y=             -1.9889    Z=              0.0000  Tot=              1.9889
 Quadrupole moment (field-independent basis, Debye-Ang):
   XX=             -4.3872   YY=             -6.2855   ZZ=             -7.6067
   XY=              0.0302   XZ=              0.0000   YZ=              0.0000

 1\1\GINC-NODE04\SP\RB2PLYPD3-FC\def2QZVP\H2O1\BOITTIER\26-Aug-2020\0\\
 #p B2PLYPD3/Def2QZVP\\h2o\\0,1\O,0,-5.326605,-0.76548,0.924853\H,0,-4.
 368927,-0.708729,0.891717\H,0,-5.609308,0.140445,0.716715\\Version=ES6
 4L-G09RevD.01\State=1-A'\HF=-76.3346522\MP2=-76.4249249\RMSD=4.205e-09
 \PG=CS [SG(H2O1)]\\@

 THERE IS NO SCIENCE WITHOUT FANCY, NOR ART WITHOUT FACTS.

 Normal termination of Gaussian 09 at Wed Aug 26 11:23:48 2020.
