 Gaussian 09, Revision D.01,
 Gaussian 09:  ES64L-G09RevD.01 24-Apr-2013

 --------------------
 #p B2PLYPD3/Def2QZVP
 --------------------

 ---
 h2o
 ---
 Symbolic Z-matrix:
 Charge =  0 Multiplicity = 1

                         Standard orientation:
 ---------------------------------------------------------------------
 Center     Atomic      Atomic             Coordinates (Angstroms)
 Number     Number       Type             X           Y           Z
 ---------------------------------------------------------------------
      1          8           0        0.000000    0.118396    0.000000
      2          1           0        0.763816   -0.463869    0.000000
      3          1           0       -0.763816   -0.483299    0.000000
 ---------------------------------------------------------------------

 SCF Done:  E(RB2PLYPD3) =  -76.3346963675     A.U. after   10 cycles
 E2(B2PLYPD3) =    -0.9025279898D-01 E(B2PLYPD3) =    -0.76424949166459D+02

 The electronic state is 1-A'.
 Alpha  occ. eigenvalues --  -19.73261  -1.15335  -0.60890  -0.47398  -0.39906
 Alpha virt. eigenvalues --    0.04446   0.10139   0.27567   0.30430   0.30807
 Alpha virt. eigenvalues --    0.35605   0.43764   0.50151   0.56193   0.62062
 Alpha virt. eigenvalues --    0.65827   0.80973   0.93617   0.96085   1.03244

 Mulliken charges:
               1
     1  O   -0.448499
     2  H    0.221716
     3  H    0.226783
 Sum of Mulliken charges =   0.00000

 Dipole moment (field-independent basis, Debye):
    X=              0.0061    Y=             -1.9695    Z=              0.0000  Tot=              1.9695
 Quadrupole moment (field-independent basis, Debye-Ang):
   XX=             -4.3296   YY=             -6.3241   ZZ=             -7.6105
   XY=              0.0320   XZ=              0.0000   YZ=              0.0000

 1\1\GINC-NODE06\SP\RB2PLYPD3-FC\def2QZVP\H2O1\BOITTIER\26-Aug-2020\0\\
 #p B2PLYPD3/Def2QZVP\\h2o\\0,1\O,0,-5.326605,-0.765893,0.915344\H,0,-4
 .368927,-0.717605,0.969823\H,0,-5.609308,0.155929,0.789746\\Version=ES
 64L-G09RevD.01\State=1-A'\HF=-76.3346964\MP2=-76.4249492\RMSD=4.083e-0
 9\PG=CS [SG(H2O1)]\\@

 MATERIAL COPIED FROM ONE SCHOLARLY BOOK WITHOUT CREDIT COMPRISES PLAGIARISM.

 Normal termination of Gaussian 09 at Wed Aug 26 12:37:55 2020.
