 Gaussian 09, Revision D.01,
 Gaussian 09:  ES64L-G09RevD.01 24-Apr-2013

 --------------------
 #p B2PLYPD3/Def2QZVP
 --------------------

 ---
 h2o
 ---
 Symbolic Z-matrix:
 Charge =  0 Multiplicity = 1

                         Standard orientation:
 ---------------------------------------------------------------------
 Center     Atomic      Atomic             Coordinates (Angstroms)
 Number     Number       Type             X           Y           Z
 ---------------------------------------------------------------------
      1          8           0        0.000000    0.118327    0.000000
      2          1           0        0.747259   -0.486745    0.000000
      3          1           0       -0.747259   -0.459867    0.000000
 ---------------------------------------------------------------------

 SCF Done:  E(RB2PLYPD3) =  -76.3349991850     A.U. after   10 cycles
 E2(B2PLYPD3) =    -0.8985515574D-01 E(B2PLYPD3) =    -0.76424854340729D+02

 The electronic state is 1-A'.
 Alpha  occ. eigenvalues --  -19.73097  -1.16050  -0.61271  -0.47800  -0.40048
 Alpha virt. eigenvalues --    0.04567   0.10286   0.27499   0.30394   0.30956
 Alpha virt. eigenvalues --    0.36381   0.44147   0.50064   0.56535   0.61825
 Alpha virt. eigenvalues --    0.65519   0.81359   0.94126   0.95798   1.03956

 Mulliken charges:
               1
     1  O   -0.435603
     2  H    0.221625
     3  H    0.213978
 Sum of Mulliken charges =   0.00000

 Dipole moment (field-independent basis, Debye):
    X=             -0.0088    Y=             -1.9785    Z=              0.0000  Tot=              1.9785
 Quadrupole moment (field-independent basis, Debye-Ang):
   XX=             -4.4085   YY=             -6.2816   ZZ=             -7.5782
   XY=             -0.0431   XZ=              0.0000   YZ=              0.0000

 1\1\GINC-NODE25\SP\RB2PLYPD3-FC\def2QZVP\H2O1\BOITTIER\26-Aug-2020\0\\
 #p B2PLYPD3/Def2QZVP\\h2o\\0,1\O,0,-5.326605,-0.763623,0.92726\H,0,-4.
 368927,-0.709053,0.861055\H,0,-5.609308,0.111068,0.708859\\Version=ES6
 4L-G09RevD.01\State=1-A'\HF=-76.3349992\MP2=-76.4248543\RMSD=4.406e-09
 \PG=CS [SG(H2O1)]\\@

 IN THE WOODS WE RETURN TO REASON AND FAITH.

 Normal termination of Gaussian 09 at Wed Aug 26 11:23:36 2020.
