 Gaussian 09, Revision D.01,
 Gaussian 09:  ES64L-G09RevD.01 24-Apr-2013

 --------------------
 #p B2PLYPD3/Def2QZVP
 --------------------

 ---
 h2o
 ---
 Symbolic Z-matrix:
 Charge =  0 Multiplicity = 1

                         Standard orientation:
 ---------------------------------------------------------------------
 Center     Atomic      Atomic             Coordinates (Angstroms)
 Number     Number       Type             X           Y           Z
 ---------------------------------------------------------------------
      1          8           0        0.000000    0.114606    0.000000
      2          1           0        0.777573   -0.444805    0.000000
      3          1           0       -0.777573   -0.472040    0.000000
 ---------------------------------------------------------------------

 SCF Done:  E(RB2PLYPD3) =  -76.3345673850     A.U. after   10 cycles
 E2(B2PLYPD3) =    -0.9015977840D-01 E(B2PLYPD3) =    -0.76424727163415D+02

 The electronic state is 1-A'.
 Alpha  occ. eigenvalues --  -19.73135  -1.15162  -0.61410  -0.46878  -0.39840
 Alpha virt. eigenvalues --    0.04496   0.10096   0.27514   0.30439   0.31086
 Alpha virt. eigenvalues --    0.35162   0.43764   0.50708   0.55782   0.62901
 Alpha virt. eigenvalues --    0.65756   0.80767   0.93365   0.96153   1.03835

 Mulliken charges:
               1
     1  O   -0.454453
     2  H    0.223728
     3  H    0.230724
 Sum of Mulliken charges =   0.00000

 Dipole moment (field-independent basis, Debye):
    X=              0.0077    Y=             -1.9253    Z=              0.0000  Tot=              1.9253
 Quadrupole moment (field-independent basis, Debye-Ang):
   XX=             -4.2097   YY=             -6.4060   ZZ=             -7.6150
   XY=              0.0467   XZ=              0.0000   YZ=              0.0000

 1\1\GINC-NODE31\SP\RB2PLYPD3-FC\def2QZVP\H2O1\BOITTIER\26-Aug-2020\0\\
 #p B2PLYPD3/Def2QZVP\\h2o\\0,1\O,0,-5.326605,-0.763116,0.917325\H,0,-4
 .368927,-0.766563,0.937346\H,0,-5.609308,0.160459,0.791384\\Version=ES
 64L-G09RevD.01\State=1-A'\HF=-76.3345674\MP2=-76.4247272\RMSD=3.969e-0
 9\PG=CS [SG(H2O1)]\\@

 THE PROGRESS OF RIVERS TO THE SEA IS NOT AS RAPID

 Normal termination of Gaussian 09 at Wed Aug 26 11:58:13 2020.
