 Gaussian 09, Revision D.01,
 Gaussian 09:  ES64L-G09RevD.01 24-Apr-2013

 --------------------
 #p B2PLYPD3/Def2QZVP
 --------------------

 ---
 h2o
 ---
 Symbolic Z-matrix:
 Charge =  0 Multiplicity = 1

                         Standard orientation:
 ---------------------------------------------------------------------
 Center     Atomic      Atomic             Coordinates (Angstroms)
 Number     Number       Type             X           Y           Z
 ---------------------------------------------------------------------
      1          8           0        0.000000    0.119433    0.000000
      2          1           0        0.759487   -0.473281    0.000000
      3          1           0       -0.759487   -0.482183    0.000000
 ---------------------------------------------------------------------

 SCF Done:  E(RB2PLYPD3) =  -76.3347199720     A.U. after   10 cycles
 E2(B2PLYPD3) =    -0.9027017048D-01 E(B2PLYPD3) =    -0.76424990142502D+02

 The electronic state is 1-A'.
 Alpha  occ. eigenvalues --  -19.73291  -1.15401  -0.60753  -0.47555  -0.39928
 Alpha virt. eigenvalues --    0.04435   0.10155   0.27580   0.30427   0.30741
 Alpha virt. eigenvalues --    0.35741   0.43771   0.50008   0.56320   0.61827
 Alpha virt. eigenvalues --    0.65840   0.81028   0.93722   0.96064   1.03117

 Mulliken charges:
               1
     1  O   -0.446616
     2  H    0.222140
     3  H    0.224476
 Sum of Mulliken charges =   0.00000

 Dipole moment (field-independent basis, Debye):
    X=              0.0029    Y=             -1.9817    Z=              0.0000  Tot=              1.9817
 Quadrupole moment (field-independent basis, Debye-Ang):
   XX=             -4.3651   YY=             -6.3004   ZZ=             -7.6085
   XY=              0.0145   XZ=              0.0000   YZ=              0.0000

 1\1\GINC-NODE17\SP\RB2PLYPD3-FC\def2QZVP\H2O1\BOITTIER\26-Aug-2020\0\\
 #p B2PLYPD3/Def2QZVP\\h2o\\0,1\O,0,-5.326605,-0.766719,0.912754\H,0,-4
 .368927,-0.702193,0.995342\H,0,-5.609308,0.153745,0.805108\\Version=ES
 64L-G09RevD.01\State=1-A'\HF=-76.33472\MP2=-76.4249901\RMSD=4.101e-09\
 PG=CS [SG(H2O1)]\\@

    WHAT WE HAVE LEARNED

 Normal termination of Gaussian 09 at Wed Aug 26 09:27:53 2020.
