 Gaussian 09, Revision D.01,
 Gaussian 09:  ES64L-G09RevD.01 24-Apr-2013

 --------------------
 #p B2PLYPD3/Def2QZVP
 --------------------

 ---
 h2o
 ---
 Symbolic Z-matrix:
 Charge =  0 Multiplicity = 1

                         Standard orientation:
 ---------------------------------------------------------------------
 Center     Atomic      Atomic             Coordinates (Angstroms)
 Number     Number       Type             X           Y           Z
 ---------------------------------------------------------------------
      1          8           0        0.000000    0.113053    0.000000
      2          1           0        0.767604   -0.460992    0.000000
      3          1           0       -0.767604   -0.443433    0.000000
 ---------------------------------------------------------------------

 SCF Done:  E(RB2PLYPD3) =  -76.3351549542     A.U. after   10 cycles
 E2(B2PLYPD3) =    -0.8974665258D-01 E(B2PLYPD3) =    -0.76424901606744D+02

 The electronic state is 1-A'.
 Alpha  occ. eigenvalues --  -19.72935  -1.15750  -0.62007  -0.47040  -0.39949
 Alpha virt. eigenvalues --    0.04643   0.10213   0.27438   0.30406   0.31345
 Alpha virt. eigenvalues --    0.35698   0.44118   0.50823   0.55935   0.63016
 Alpha virt. eigenvalues --    0.65440   0.81116   0.93752   0.95895   1.04812

 Mulliken charges:
               1
     1  O   -0.444431
     2  H    0.224643
     3  H    0.219788
 Sum of Mulliken charges =   0.00000

 Dipole moment (field-independent basis, Debye):
    X=             -0.0050    Y=             -1.9163    Z=              0.0000  Tot=              1.9163
 Quadrupole moment (field-independent basis, Debye-Ang):
   XX=             -4.2380   YY=             -6.3988   ZZ=             -7.5861
   XY=             -0.0299   XZ=              0.0000   YZ=              0.0000

 1\1\GINC-NODE07\SP\RB2PLYPD3-FC\def2QZVP\H2O1\BOITTIER\26-Aug-2020\0\\
 #p B2PLYPD3/Def2QZVP\\h2o\\0,1\O,0,-5.326605,-0.762284,0.914541\H,0,-4
 .368927,-0.756974,0.954141\H,0,-5.609308,0.137565,0.818396\\Version=ES
 64L-G09RevD.01\State=1-A'\HF=-76.335155\MP2=-76.4249016\RMSD=3.975e-09
 \PG=CS [SG(H2O1)]\\@

 THERE ARE PEOPLE SO ADDICTED TO EXAGERATING THEY

 Normal termination of Gaussian 09 at Wed Aug 26 12:32:50 2020.
