 Gaussian 09, Revision D.01,
 Gaussian 09:  ES64L-G09RevD.01 24-Apr-2013

 --------------------
 #p B2PLYPD3/Def2QZVP
 --------------------

 ---
 h2o
 ---
 Symbolic Z-matrix:
 Charge =  0 Multiplicity = 1

                         Standard orientation:
 ---------------------------------------------------------------------
 Center     Atomic      Atomic             Coordinates (Angstroms)
 Number     Number       Type             X           Y           Z
 ---------------------------------------------------------------------
      1          8           0        0.000000    0.121465    0.000000
      2          1           0        0.735262   -0.502225    0.000000
      3          1           0       -0.735262   -0.469498    0.000000
 ---------------------------------------------------------------------

 SCF Done:  E(RB2PLYPD3) =  -76.3344882518     A.U. after   10 cycles
 E2(B2PLYPD3) =    -0.8995378067D-01 E(B2PLYPD3) =    -0.76424442032504D+02

 The electronic state is 1-A'.
 Alpha  occ. eigenvalues --  -19.73199  -1.16205  -0.60787  -0.48247  -0.40100
 Alpha virt. eigenvalues --    0.04507   0.10324   0.27541   0.30387   0.30728
 Alpha virt. eigenvalues --    0.36712   0.44148   0.49690   0.56889   0.61145
 Alpha virt. eigenvalues --    0.65572   0.81416   0.94393   0.95782   1.03490

 Mulliken charges:
               1
     1  O   -0.431147
     2  H    0.220290
     3  H    0.210858
 Sum of Mulliken charges =   0.00000

 Dipole moment (field-independent basis, Debye):
    X=             -0.0115    Y=             -2.0145    Z=              0.0000  Tot=              2.0146
 Quadrupole moment (field-independent basis, Debye-Ang):
   XX=             -4.5090   YY=             -6.2118   ZZ=             -7.5754
   XY=             -0.0506   XZ=              0.0000   YZ=              0.0000

 1\1\GINC-NODE05\SP\RB2PLYPD3-FC\def2QZVP\H2O1\BOITTIER\26-Aug-2020\0\\
 #p B2PLYPD3/Def2QZVP\\h2o\\0,1\O,0,-5.326605,-0.766974,0.922563\H,0,-4
 .368927,-0.655451,0.918597\H,0,-5.609308,0.111085,0.72523\\Version=ES6
 4L-G09RevD.01\State=1-A'\HF=-76.3344883\MP2=-76.424442\RMSD=4.741e-09\
 PG=CS [SG(H2O1)]\\@

 THE RARE EARTHS PERPLEX US IN OUR RESEARCHES,

 Normal termination of Gaussian 09 at Wed Aug 26 09:57:16 2020.
