 Gaussian 09, Revision D.01,
 Gaussian 09:  ES64L-G09RevD.01 24-Apr-2013

 --------------------
 #p B2PLYPD3/Def2QZVP
 --------------------

 ---
 h2o
 ---
 Symbolic Z-matrix:
 Charge =  0 Multiplicity = 1

                         Standard orientation:
 ---------------------------------------------------------------------
 Center     Atomic      Atomic             Coordinates (Angstroms)
 Number     Number       Type             X           Y           Z
 ---------------------------------------------------------------------
      1          8           0        0.000000    0.119621    0.000000
      2          1           0        0.787156   -0.427280    0.000000
      3          1           0       -0.787156   -0.529688    0.000000
 ---------------------------------------------------------------------

 SCF Done:  E(RB2PLYPD3) =  -76.3308413790     A.U. after   10 cycles
 E2(B2PLYPD3) =    -0.9098469257D-01 E(B2PLYPD3) =    -0.76421826071599D+02

 The electronic state is 1-A'.
 Alpha  occ. eigenvalues --  -19.73544  -1.14286  -0.60092  -0.46846  -0.39693
 Alpha virt. eigenvalues --    0.04144   0.09896   0.27662   0.30167   0.30487
 Alpha virt. eigenvalues --    0.34595   0.43241   0.50174   0.55678   0.62256
 Alpha virt. eigenvalues --    0.66312   0.80229   0.92423   0.96559   1.01633

 Mulliken charges:
               1
     1  O   -0.465440
     2  H    0.221097
     3  H    0.244343
 Sum of Mulliken charges =   0.00000

 Dipole moment (field-independent basis, Debye):
    X=              0.0308    Y=             -1.9657    Z=              0.0000  Tot=              1.9660
 Quadrupole moment (field-independent basis, Debye-Ang):
   XX=             -4.2306   YY=             -6.3619   ZZ=             -7.6639
   XY=              0.1735   XZ=              0.0000   YZ=              0.0000

 1\1\GINC-NODE03\SP\RB2PLYPD3-FC\def2QZVP\H2O1\BOITTIER\26-Aug-2020\0\\
 #p B2PLYPD3/Def2QZVP\\h2o\\0,1\O,0,-5.326605,-0.766507,0.917703\H,0,-4
 .368927,-0.754247,0.955355\H,0,-5.609308,0.202411,0.767723\\Version=ES
 64L-G09RevD.01\State=1-A'\HF=-76.3308414\MP2=-76.4218261\RMSD=5.354e-0
 9\PG=CS [SG(H2O1)]\\@

 KNOWLEDGE IS CHIMERA - FOR BEYOND IT LIES OTHER KNOWLEDGE,

 Normal termination of Gaussian 09 at Wed Aug 26 12:06:09 2020.
