 Gaussian 09, Revision D.01,
 Gaussian 09:  ES64L-G09RevD.01 24-Apr-2013

 --------------------
 #p B2PLYPD3/Def2QZVP
 --------------------

 ---
 h2o
 ---
 Symbolic Z-matrix:
 Charge =  0 Multiplicity = 1

                         Standard orientation:
 ---------------------------------------------------------------------
 Center     Atomic      Atomic             Coordinates (Angstroms)
 Number     Number       Type             X           Y           Z
 ---------------------------------------------------------------------
      1          8           0        0.000000    0.115996    0.000000
      2          1           0        0.749055   -0.482919    0.000000
      3          1           0       -0.749055   -0.445045    0.000000
 ---------------------------------------------------------------------

 SCF Done:  E(RB2PLYPD3) =  -76.3349613990     A.U. after   10 cycles
 E2(B2PLYPD3) =    -0.8963139928D-01 E(B2PLYPD3) =    -0.76424592798294D+02

 The electronic state is 1-A'.
 Alpha  occ. eigenvalues --  -19.72952  -1.16241  -0.61773  -0.47637  -0.40067
 Alpha virt. eigenvalues --    0.04651   0.10316   0.27439   0.30383   0.31168
 Alpha virt. eigenvalues --    0.36436   0.44315   0.50336   0.56413   0.62239
 Alpha virt. eigenvalues --    0.65347   0.81438   0.94128   0.95705   1.04573

 Mulliken charges:
               1
     1  O   -0.433275
     2  H    0.222169
     3  H    0.211107
 Sum of Mulliken charges =   0.00000

 Dipole moment (field-independent basis, Debye):
    X=             -0.0118    Y=             -1.9553    Z=              0.0000  Tot=              1.9554
 Quadrupole moment (field-independent basis, Debye-Ang):
   XX=             -4.3678   YY=             -6.3139   ZZ=             -7.5673
   XY=             -0.0617   XZ=              0.0000   YZ=              0.0000

 1\1\GINC-NODE12\SP\RB2PLYPD3-FC\def2QZVP\H2O1\BOITTIER\26-Aug-2020\0\\
 #p B2PLYPD3/Def2QZVP\\h2o\\0,1\O,0,-5.326605,-0.763482,0.921206\H,0,-4
 .368927,-0.713822,0.908253\H,0,-5.609308,0.113573,0.757795\\Version=ES
 64L-G09RevD.01\State=1-A'\HF=-76.3349614\MP2=-76.4245928\RMSD=4.513e-0
 9\PG=CS [SG(H2O1)]\\@

 WE ARE PERHAPS NOT FAR REMOVED FROM THE TIME WHEN WE SHALL BE ABLE TO SUBMIT

 Normal termination of Gaussian 09 at Wed Aug 26 10:19:06 2020.
