 Gaussian 09, Revision D.01,
 Gaussian 09:  ES64L-G09RevD.01 24-Apr-2013

 --------------------
 #p B2PLYPD3/Def2QZVP
 --------------------

 ---
 h2o
 ---
 Symbolic Z-matrix:
 Charge =  0 Multiplicity = 1

                         Standard orientation:
 ---------------------------------------------------------------------
 Center     Atomic      Atomic             Coordinates (Angstroms)
 Number     Number       Type             X           Y           Z
 ---------------------------------------------------------------------
      1          8           0        0.000000    0.121526    0.000000
      2          1           0        0.804239   -0.403967    0.000000
      3          1           0       -0.804239   -0.568243    0.000000
 ---------------------------------------------------------------------

 SCF Done:  E(RB2PLYPD3) =  -76.3253573844     A.U. after   10 cycles
 E2(B2PLYPD3) =    -0.9167222759D-01 E(B2PLYPD3) =    -0.76417029612024D+02

 The electronic state is 1-A'.
 Alpha  occ. eigenvalues --  -19.73797  -1.13488  -0.59306  -0.46455  -0.39530
 Alpha virt. eigenvalues --    0.03801   0.09685   0.27713   0.29307   0.30530
 Alpha virt. eigenvalues --    0.34040   0.42855   0.50085   0.55279   0.62270
 Alpha virt. eigenvalues --    0.66705   0.79540   0.91121   0.96847   1.00550

 Mulliken charges:
               1
     1  O   -0.476658
     2  H    0.221757
     3  H    0.254901
 Sum of Mulliken charges =   0.00000

 Dipole moment (field-independent basis, Debye):
    X=              0.0487    Y=             -1.9708    Z=              0.0000  Tot=              1.9714
 Quadrupole moment (field-independent basis, Debye-Ang):
   XX=             -4.1702   YY=             -6.3693   ZZ=             -7.7093
   XY=              0.2826   XZ=              0.0000   YZ=              0.0000

 1\1\GINC-NODE33\SP\RB2PLYPD3-FC\def2QZVP\H2O1\BOITTIER\26-Aug-2020\0\\
 #p B2PLYPD3/Def2QZVP\\h2o\\0,1\O,0,-5.326605,-0.768059,0.914509\H,0,-4
 .368927,-0.771671,0.990554\H,0,-5.609308,0.244656,0.783863\\Version=ES
 64L-G09RevD.01\State=1-A'\HF=-76.3253574\MP2=-76.4170296\RMSD=6.757e-0
 9\PG=CS [SG(H2O1)]\\@

 A DANDELION FROM A LOVER MEANS MORE THAN AN ORCHID FROM A FRIEND.

 Normal termination of Gaussian 09 at Wed Aug 26 09:23:50 2020.
