 Gaussian 09, Revision D.01,
 Gaussian 09:  ES64L-G09RevD.01 24-Apr-2013

 --------------------
 #p B2PLYPD3/Def2QZVP
 --------------------

 ---
 h2o
 ---
 Symbolic Z-matrix:
 Charge =  0 Multiplicity = 1

                         Standard orientation:
 ---------------------------------------------------------------------
 Center     Atomic      Atomic             Coordinates (Angstroms)
 Number     Number       Type             X           Y           Z
 ---------------------------------------------------------------------
      1          8           0        0.000000    0.117531    0.000000
      2          1           0        0.773274   -0.448394    0.000000
      3          1           0       -0.773274   -0.491852    0.000000
 ---------------------------------------------------------------------

 SCF Done:  E(RB2PLYPD3) =  -76.3340937417     A.U. after   10 cycles
 E2(B2PLYPD3) =    -0.9038453225D-01 E(B2PLYPD3) =    -0.76424478273962D+02

 The electronic state is 1-A'.
 Alpha  occ. eigenvalues --  -19.73289  -1.15038  -0.60867  -0.47120  -0.39838
 Alpha virt. eigenvalues --    0.04401   0.10072   0.27575   0.30446   0.30776
 Alpha virt. eigenvalues --    0.35227   0.43637   0.50317   0.55959   0.62353
 Alpha virt. eigenvalues --    0.65919   0.80759   0.93304   0.96213   1.03033

 Mulliken charges:
               1
     1  O   -0.454363
     2  H    0.221714
     3  H    0.232649
 Sum of Mulliken charges =   0.00000

 Dipole moment (field-independent basis, Debye):
    X=              0.0131    Y=             -1.9556    Z=              0.0000  Tot=              1.9556
 Quadrupole moment (field-independent basis, Debye-Ang):
   XX=             -4.2711   YY=             -6.3583   ZZ=             -7.6239
   XY=              0.0729   XZ=              0.0000   YZ=              0.0000

 1\1\GINC-NODE24\SP\RB2PLYPD3-FC\def2QZVP\H2O1\BOITTIER\26-Aug-2020\0\\
 #p B2PLYPD3/Def2QZVP\\h2o\\0,1\O,0,-5.326605,-0.76502,0.918208\H,0,-4.
 368927,-0.742367,0.941942\H,0,-5.609308,0.166737,0.772581\\Version=ES6
 4L-G09RevD.01\State=1-A'\HF=-76.3340937\MP2=-76.4244783\RMSD=4.259e-09
 \PG=CS [SG(H2O1)]\\@

 IMAGINATION WILL OFTEN CARRY US TO WORLDS THAT NEVER WERE.

 Normal termination of Gaussian 09 at Wed Aug 26 11:06:16 2020.
