 Gaussian 09, Revision D.01,
 Gaussian 09:  ES64L-G09RevD.01 24-Apr-2013

 --------------------
 #p B2PLYPD3/Def2QZVP
 --------------------

 ---
 h2o
 ---
 Symbolic Z-matrix:
 Charge =  0 Multiplicity = 1

                         Standard orientation:
 ---------------------------------------------------------------------
 Center     Atomic      Atomic             Coordinates (Angstroms)
 Number     Number       Type             X           Y           Z
 ---------------------------------------------------------------------
      1          8           0        0.000000    0.115862    0.000000
      2          1           0        0.772321   -0.450619    0.000000
      3          1           0       -0.772321   -0.476277    0.000000
 ---------------------------------------------------------------------

 SCF Done:  E(RB2PLYPD3) =  -76.3346855287     A.U. after   10 cycles
 E2(B2PLYPD3) =    -0.9017023090D-01 E(B2PLYPD3) =    -0.76424855759579D+02

 The electronic state is 1-A'.
 Alpha  occ. eigenvalues --  -19.73170  -1.15251  -0.61259  -0.47067  -0.39869
 Alpha virt. eigenvalues --    0.04486   0.10117   0.27529   0.30434   0.30998
 Alpha virt. eigenvalues --    0.35347   0.43782   0.50510   0.55932   0.62610
 Alpha virt. eigenvalues --    0.65764   0.80865   0.93462   0.96112   1.03665

 Mulliken charges:
               1
     1  O   -0.451849
     2  H    0.222599
     3  H    0.229249
 Sum of Mulliken charges =   0.00000

 Dipole moment (field-independent basis, Debye):
    X=              0.0075    Y=             -1.9405    Z=              0.0000  Tot=              1.9405
 Quadrupole moment (field-independent basis, Debye-Ang):
   XX=             -4.2529   YY=             -6.3771   ZZ=             -7.6120
   XY=              0.0433   XZ=              0.0000   YZ=              0.0000

 1\1\GINC-NODE17\SP\RB2PLYPD3-FC\def2QZVP\H2O1\BOITTIER\26-Aug-2020\0\\
 #p B2PLYPD3/Def2QZVP\\h2o\\0,1\O,0,-5.326605,-0.763772,0.918953\H,0,-4
 .368927,-0.751754,0.928361\H,0,-5.609308,0.156158,0.774331\\Version=ES
 64L-G09RevD.01\State=1-A'\HF=-76.3346855\MP2=-76.4248558\RMSD=4.012e-0
 9\PG=CS [SG(H2O1)]\\@

 WE MIGHT AS WELL ATTEMPT TO INTRODUCE A NEW PLANET

 Normal termination of Gaussian 09 at Wed Aug 26 10:42:05 2020.
