 Gaussian 09, Revision D.01,
 Gaussian 09:  ES64L-G09RevD.01 24-Apr-2013

 --------------------
 #p B2PLYPD3/Def2QZVP
 --------------------

 ---
 h2o
 ---
 Symbolic Z-matrix:
 Charge =  0 Multiplicity = 1

                         Standard orientation:
 ---------------------------------------------------------------------
 Center     Atomic      Atomic             Coordinates (Angstroms)
 Number     Number       Type             X           Y           Z
 ---------------------------------------------------------------------
      1          8           0        0.000000    0.122593    0.000000
      2          1           0        0.752647   -0.476768    0.000000
      3          1           0       -0.752647   -0.503974    0.000000
 ---------------------------------------------------------------------

 SCF Done:  E(RB2PLYPD3) =  -76.3340664096     A.U. after   10 cycles
 E2(B2PLYPD3) =    -0.9048991018D-01 E(B2PLYPD3) =    -0.76424556319730D+02

 The electronic state is 1-A'.
 Alpha  occ. eigenvalues --  -19.73442  -1.15334  -0.60185  -0.47866  -0.39940
 Alpha virt. eigenvalues --    0.04340   0.10143   0.27645   0.30430   0.30445
 Alpha virt. eigenvalues --    0.35840   0.43664   0.49639   0.56557   0.61227
 Alpha virt. eigenvalues --    0.65989   0.81011   0.93794   0.96139   1.02411

 Mulliken charges:
               1
     1  O   -0.445556
     2  H    0.219262
     3  H    0.226294
 Sum of Mulliken charges =   0.00000

 Dipole moment (field-independent basis, Debye):
    X=              0.0093    Y=             -2.0148    Z=              0.0000  Tot=              2.0148
 Quadrupole moment (field-independent basis, Debye-Ang):
   XX=             -4.4424   YY=             -6.2430   ZZ=             -7.6152
   XY=              0.0430   XZ=              0.0000   YZ=              0.0000

 1\1\GINC-NODE12\SP\RB2PLYPD3-FC\def2QZVP\H2O1\BOITTIER\26-Aug-2020\0\\
 #p B2PLYPD3/Def2QZVP\\h2o\\0,1\O,0,-5.326605,-0.766354,0.928132\H,0,-4
 .368927,-0.693565,0.870982\H,0,-5.609308,0.139266,0.685242\\Version=ES
 64L-G09RevD.01\State=1-A'\HF=-76.3340664\MP2=-76.4245563\RMSD=4.368e-0
 9\PG=CS [SG(H2O1)]\\@

 DO NOT LET SELFISH MEN OR GREEDY INTERESTS SKIN YOUR COUNTRY OF ITS

 Normal termination of Gaussian 09 at Wed Aug 26 08:04:01 2020.
