 Gaussian 09, Revision D.01,
 Gaussian 09:  ES64L-G09RevD.01 24-Apr-2013

 --------------------
 #p B2PLYPD3/Def2QZVP
 --------------------

 ---
 h2o
 ---
 Symbolic Z-matrix:
 Charge =  0 Multiplicity = 1

                         Standard orientation:
 ---------------------------------------------------------------------
 Center     Atomic      Atomic             Coordinates (Angstroms)
 Number     Number       Type             X           Y           Z
 ---------------------------------------------------------------------
      1          8           0        0.000000    0.118984    0.000000
      2          1           0        0.763289   -0.461138    0.000000
      3          1           0       -0.763289   -0.490735    0.000000
 ---------------------------------------------------------------------

 SCF Done:  E(RB2PLYPD3) =  -76.3345065975     A.U. after   10 cycles
 E2(B2PLYPD3) =    -0.9030966324D-01 E(B2PLYPD3) =    -0.76424816260750D+02

 The electronic state is 1-A'.
 Alpha  occ. eigenvalues --  -19.73295  -1.15294  -0.60770  -0.47437  -0.39902
 Alpha virt. eigenvalues --    0.04421   0.10130   0.27580   0.30432   0.30736
 Alpha virt. eigenvalues --    0.35597   0.43732   0.50081   0.56220   0.61961
 Alpha virt. eigenvalues --    0.65867   0.80955   0.93589   0.96111   1.03055

 Mulliken charges:
               1
     1  O   -0.448762
     2  H    0.220547
     3  H    0.228215
 Sum of Mulliken charges =   0.00000

 Dipole moment (field-independent basis, Debye):
    X=              0.0094    Y=             -1.9752    Z=              0.0000  Tot=              1.9752
 Quadrupole moment (field-independent basis, Debye-Ang):
   XX=             -4.3403   YY=             -6.3152   ZZ=             -7.6132
   XY=              0.0485   XZ=              0.0000   YZ=              0.0000

 1\1\GINC-NODE32\SP\RB2PLYPD3-FC\def2QZVP\H2O1\BOITTIER\26-Aug-2020\0\\
 #p B2PLYPD3/Def2QZVP\\h2o\\0,1\O,0,-5.326605,-0.765352,0.922244\H,0,-4
 .368927,-0.721821,0.911765\H,0,-5.609308,0.151502,0.738326\\Version=ES
 64L-G09RevD.01\State=1-A'\HF=-76.3345066\MP2=-76.4248163\RMSD=4.193e-0
 9\PG=CS [SG(H2O1)]\\@

 WISDOM IS KNOWING WHAT TO DO,

 Normal termination of Gaussian 09 at Wed Aug 26 11:56:53 2020.
