 Gaussian 09, Revision D.01,
 Gaussian 09:  ES64L-G09RevD.01 24-Apr-2013

 --------------------
 #p B2PLYPD3/Def2QZVP
 --------------------

 ---
 h2o
 ---
 Symbolic Z-matrix:
 Charge =  0 Multiplicity = 1

                         Standard orientation:
 ---------------------------------------------------------------------
 Center     Atomic      Atomic             Coordinates (Angstroms)
 Number     Number       Type             X           Y           Z
 ---------------------------------------------------------------------
      1          8           0        0.000000    0.118070    0.000000
      2          1           0        0.808981   -0.397919    0.000000
      3          1           0       -0.808981   -0.546639    0.000000
 ---------------------------------------------------------------------

 SCF Done:  E(RB2PLYPD3) =  -76.3269758278     A.U. after   10 cycles
 E2(B2PLYPD3) =    -0.9138418854D-01 E(B2PLYPD3) =    -0.76418360016374D+02

 The electronic state is 1-A'.
 Alpha  occ. eigenvalues --  -19.73622  -1.13616  -0.59890  -0.46212  -0.39527
 Alpha virt. eigenvalues --    0.03942   0.09727   0.27643   0.29767   0.30526
 Alpha virt. eigenvalues --    0.33956   0.42955   0.50566   0.55122   0.62866
 Alpha virt. eigenvalues --    0.66551   0.79528   0.91445   0.96819   1.01030

 Mulliken charges:
               1
     1  O   -0.478325
     2  H    0.223710
     3  H    0.254615
 Sum of Mulliken charges =   0.00000

 Dipole moment (field-independent basis, Debye):
    X=              0.0410    Y=             -1.9366    Z=              0.0000  Tot=              1.9370
 Quadrupole moment (field-independent basis, Debye-Ang):
   XX=             -4.0977   YY=             -6.4285   ZZ=             -7.6988
   XY=              0.2621   XZ=              0.0000   YZ=              0.0000

 1\1\GINC-NODE02\SP\RB2PLYPD3-FC\def2QZVP\H2O1\BOITTIER\26-Aug-2020\0\\
 #p B2PLYPD3/Def2QZVP\\h2o\\0,1\O,0,-5.326605,-0.765634,0.91593\H,0,-4.
 368927,-0.800134,0.964486\H,0,-5.609308,0.234314,0.787592\\Version=ES6
 4L-G09RevD.01\State=1-A'\HF=-76.3269758\MP2=-76.41836\RMSD=6.611e-09\P
 G=CS [SG(H2O1)]\\@

 BOOKS ARE LIGHTHOUSES ERECTED IN THE GREAT SEA OF TIME.

 Normal termination of Gaussian 09 at Wed Aug 26 09:01:23 2020.
