 Gaussian 09, Revision D.01,
 Gaussian 09:  ES64L-G09RevD.01 24-Apr-2013

 --------------------
 #p B2PLYPD3/Def2QZVP
 --------------------

 ---
 h2o
 ---
 Symbolic Z-matrix:
 Charge =  0 Multiplicity = 1

                         Standard orientation:
 ---------------------------------------------------------------------
 Center     Atomic      Atomic             Coordinates (Angstroms)
 Number     Number       Type             X           Y           Z
 ---------------------------------------------------------------------
      1          8           0        0.000000    0.118767    0.000000
      2          1           0        0.776865   -0.441871    0.000000
      3          1           0       -0.776865   -0.508262    0.000000
 ---------------------------------------------------------------------

 SCF Done:  E(RB2PLYPD3) =  -76.3330814304     A.U. after   10 cycles
 E2(B2PLYPD3) =    -0.9061941981D-01 E(B2PLYPD3) =    -0.76423700850245D+02

 The electronic state is 1-A'.
 Alpha  occ. eigenvalues --  -19.73402  -1.14769  -0.60512  -0.47080  -0.39791
 Alpha virt. eigenvalues --    0.04304   0.10012   0.27617   0.30460   0.30538
 Alpha virt. eigenvalues --    0.35021   0.43481   0.50197   0.55905   0.62216
 Alpha virt. eigenvalues --    0.66079   0.80592   0.93032   0.96343   1.02417

 Mulliken charges:
               1
     1  O   -0.458023
     2  H    0.220963
     3  H    0.237059
 Sum of Mulliken charges =   0.00000

 Dipole moment (field-independent basis, Debye):
    X=              0.0202    Y=             -1.9647    Z=              0.0000  Tot=              1.9648
 Quadrupole moment (field-independent basis, Debye-Ang):
   XX=             -4.2703   YY=             -6.3505   ZZ=             -7.6384
   XY=              0.1112   XZ=              0.0000   YZ=              0.0000

 1\1\GINC-NODE04\SP\RB2PLYPD3-FC\def2QZVP\H2O1\BOITTIER\26-Aug-2020\0\\
 #p B2PLYPD3/Def2QZVP\\h2o\\0,1\O,0,-5.326605,-0.765649,0.91976\H,0,-4.
 368927,-0.743381,0.933559\H,0,-5.609308,0.177803,0.756479\\Version=ES6
 4L-G09RevD.01\State=1-A'\HF=-76.3330814\MP2=-76.4237009\RMSD=4.636e-09
 \PG=CS [SG(H2O1)]\\@

 Luck is a matter of preparation meeting opportunity.

 Normal termination of Gaussian 09 at Wed Aug 26 11:16:42 2020.
