 Gaussian 09, Revision D.01,
 Gaussian 09:  ES64L-G09RevD.01 24-Apr-2013

 --------------------
 #p B2PLYPD3/Def2QZVP
 --------------------

 ---
 h2o
 ---
 Symbolic Z-matrix:
 Charge =  0 Multiplicity = 1

                         Standard orientation:
 ---------------------------------------------------------------------
 Center     Atomic      Atomic             Coordinates (Angstroms)
 Number     Number       Type             X           Y           Z
 ---------------------------------------------------------------------
      1          8           0        0.000000    0.116810    0.000000
      2          1           0        0.762133   -0.465925    0.000000
      3          1           0       -0.762133   -0.468553    0.000000
 ---------------------------------------------------------------------

 SCF Done:  E(RB2PLYPD3) =  -76.3350895078     A.U. after   10 cycles
 E2(B2PLYPD3) =    -0.9002989387D-01 E(B2PLYPD3) =    -0.76425119401690D+02

 The electronic state is 1-A'.
 Alpha  occ. eigenvalues --  -19.73137  -1.15578  -0.61286  -0.47364  -0.39943
 Alpha virt. eigenvalues --    0.04529   0.10187   0.27517   0.30417   0.31002
 Alpha virt. eigenvalues --    0.35772   0.43929   0.50323   0.56179   0.62296
 Alpha virt. eigenvalues --    0.65660   0.81094   0.93753   0.95971   1.03844

 Mulliken charges:
               1
     1  O   -0.445209
     2  H    0.222251
     3  H    0.222959
 Sum of Mulliken charges =   0.00000

 Dipole moment (field-independent basis, Debye):
    X=              0.0008    Y=             -1.9556    Z=              0.0000  Tot=              1.9556
 Quadrupole moment (field-independent basis, Debye-Ang):
   XX=             -4.3160   YY=             -6.3394   ZZ=             -7.5976
   XY=              0.0043   XZ=              0.0000   YZ=              0.0000

 1\1\GINC-NODE15\SP\RB2PLYPD3-FC\def2QZVP\H2O1\BOITTIER\26-Aug-2020\0\\
 #p B2PLYPD3/Def2QZVP\\h2o\\0,1\O,0,-5.326605,-0.763098,0.925392\H,0,-4
 .368927,-0.740118,0.872947\H,0,-5.609308,0.133728,0.727206\\Version=ES
 64L-G09RevD.01\State=1-A'\HF=-76.3350895\MP2=-76.4251194\RMSD=4.007e-0
 9\PG=CS [SG(H2O1)]\\@

 GARLIC THEN HAVE POWER TO SAVE FROM DEATH

 Normal termination of Gaussian 09 at Wed Aug 26 12:03:02 2020.
