 Gaussian 09, Revision D.01,
 Gaussian 09:  ES64L-G09RevD.01 24-Apr-2013

 --------------------
 #p B2PLYPD3/Def2QZVP
 --------------------

 ---
 h2o
 ---
 Symbolic Z-matrix:
 Charge =  0 Multiplicity = 1

                         Standard orientation:
 ---------------------------------------------------------------------
 Center     Atomic      Atomic             Coordinates (Angstroms)
 Number     Number       Type             X           Y           Z
 ---------------------------------------------------------------------
      1          8           0        0.000000    0.114568    0.000000
      2          1           0        0.780333   -0.441268    0.000000
      3          1           0       -0.780333   -0.475273    0.000000
 ---------------------------------------------------------------------

 SCF Done:  E(RB2PLYPD3) =  -76.3343299863     A.U. after   10 cycles
 E2(B2PLYPD3) =    -0.9022455942D-01 E(B2PLYPD3) =    -0.76424554545709D+02

 The electronic state is 1-A'.
 Alpha  occ. eigenvalues --  -19.73158  -1.15052  -0.61349  -0.46808  -0.39817
 Alpha virt. eigenvalues --    0.04473   0.10072   0.27522   0.30445   0.31055
 Alpha virt. eigenvalues --    0.35039   0.43707   0.50737   0.55722   0.62950
 Alpha virt. eigenvalues --    0.65803   0.80685   0.93271   0.96204   1.03695

 Mulliken charges:
               1
     1  O   -0.456523
     2  H    0.223953
     3  H    0.232570
 Sum of Mulliken charges =   0.00000

 Dipole moment (field-independent basis, Debye):
    X=              0.0096    Y=             -1.9232    Z=              0.0000  Tot=              1.9233
 Quadrupole moment (field-independent basis, Debye-Ang):
   XX=             -4.1955   YY=             -6.4134   ZZ=             -7.6203
   XY=              0.0585   XZ=              0.0000   YZ=              0.0000

 1\1\GINC-NODE04\SP\RB2PLYPD3-FC\def2QZVP\H2O1\BOITTIER\26-Aug-2020\0\\
 #p B2PLYPD3/Def2QZVP\\h2o\\0,1\O,0,-5.326605,-0.763157,0.916711\H,0,-4
 .368927,-0.770924,0.94252\H,0,-5.609308,0.165473,0.796056\\Version=ES6
 4L-G09RevD.01\State=1-A'\HF=-76.33433\MP2=-76.4245545\RMSD=4.039e-09\P
 G=CS [SG(H2O1)]\\@

 CONFIDENCE: THAT QUIET ASSURED FEELING YOU HAVE

 Normal termination of Gaussian 09 at Wed Aug 26 08:30:10 2020.
