 Gaussian 09, Revision D.01,
 Gaussian 09:  ES64L-G09RevD.01 24-Apr-2013

 --------------------
 #p B2PLYPD3/Def2QZVP
 --------------------

 ---
 h2o
 ---
 Symbolic Z-matrix:
 Charge =  0 Multiplicity = 1

                         Standard orientation:
 ---------------------------------------------------------------------
 Center     Atomic      Atomic             Coordinates (Angstroms)
 Number     Number       Type             X           Y           Z
 ---------------------------------------------------------------------
      1          8           0        0.000000    0.114196    0.000000
      2          1           0        0.761777   -0.466877    0.000000
      3          1           0       -0.761777   -0.446694    0.000000
 ---------------------------------------------------------------------

 SCF Done:  E(RB2PLYPD3) =  -76.3352066004     A.U. after   10 cycles
 E2(B2PLYPD3) =    -0.8973060587D-01 E(B2PLYPD3) =    -0.76424937206223D+02

 The electronic state is 1-A'.
 Alpha  occ. eigenvalues --  -19.72955  -1.15880  -0.61890  -0.47240  -0.39984
 Alpha virt. eigenvalues --    0.04640   0.10242   0.27444   0.30400   0.31271
 Alpha virt. eigenvalues --    0.35924   0.44160   0.50635   0.56094   0.62732
 Alpha virt. eigenvalues --    0.65428   0.81222   0.93865   0.95837   1.04681

 Mulliken charges:
               1
     1  O   -0.441205
     2  H    0.223433
     3  H    0.217772
 Sum of Mulliken charges =   0.00000

 Dipole moment (field-independent basis, Debye):
    X=             -0.0059    Y=             -1.9308    Z=              0.0000  Tot=              1.9308
 Quadrupole moment (field-independent basis, Debye-Ang):
   XX=             -4.2820   YY=             -6.3697   ZZ=             -7.5813
   XY=             -0.0338   XZ=              0.0000   YZ=              0.0000

 1\1\GINC-NODE40\SP\RB2PLYPD3-FC\def2QZVP\H2O1\BOITTIER\26-Aug-2020\0\\
 #p B2PLYPD3/Def2QZVP\\h2o\\0,1\O,0,-5.326605,-0.762842,0.917203\H,0,-4
 .368927,-0.741915,0.936337\H,0,-5.609308,0.131438,0.793733\\Version=ES
 64L-G09RevD.01\State=1-A'\HF=-76.3352066\MP2=-76.4249372\RMSD=4.084e-0
 9\PG=CS [SG(H2O1)]\\@

 You never know when you're making a memory.

 Normal termination of Gaussian 09 at Wed Aug 26 11:08:03 2020.
