 Gaussian 09, Revision D.01,
 Gaussian 09:  ES64L-G09RevD.01 24-Apr-2013

 --------------------
 #p B2PLYPD3/Def2QZVP
 --------------------

 ---
 h2o
 ---
 Symbolic Z-matrix:
 Charge =  0 Multiplicity = 1

                         Standard orientation:
 ---------------------------------------------------------------------
 Center     Atomic      Atomic             Coordinates (Angstroms)
 Number     Number       Type             X           Y           Z
 ---------------------------------------------------------------------
      1          8           0        0.000000    0.118563    0.000000
      2          1           0        0.773865   -0.446301    0.000000
      3          1           0       -0.773865   -0.502206    0.000000
 ---------------------------------------------------------------------

 SCF Done:  E(RB2PLYPD3) =  -76.3335838067     A.U. after   10 cycles
 E2(B2PLYPD3) =    -0.9052013557D-01 E(B2PLYPD3) =    -0.76424103942274D+02

 The electronic state is 1-A'.
 Alpha  occ. eigenvalues --  -19.73362  -1.14909  -0.60626  -0.47149  -0.39819
 Alpha virt. eigenvalues --    0.04345   0.10044   0.27603   0.30453   0.30624
 Alpha virt. eigenvalues --    0.35155   0.43552   0.50199   0.55970   0.62198
 Alpha virt. eigenvalues --    0.66013   0.80690   0.93187   0.96279   1.02645

 Mulliken charges:
               1
     1  O   -0.455782
     2  H    0.220988
     3  H    0.234795
 Sum of Mulliken charges =   0.00000

 Dipole moment (field-independent basis, Debye):
    X=              0.0171    Y=             -1.9648    Z=              0.0000  Tot=              1.9648
 Quadrupole moment (field-independent basis, Debye-Ang):
   XX=             -4.2824   YY=             -6.3462   ZZ=             -7.6313
   XY=              0.0933   XZ=              0.0000   YZ=              0.0000

 1\1\GINC-NODE18\SP\RB2PLYPD3-FC\def2QZVP\H2O1\BOITTIER\26-Aug-2020\0\\
 #p B2PLYPD3/Def2QZVP\\h2o\\0,1\O,0,-5.326605,-0.765477,0.919964\H,0,-4
 .368927,-0.73953,0.930827\H,0,-5.609308,0.171203,0.755858\\Version=ES6
 4L-G09RevD.01\State=1-A'\HF=-76.3335838\MP2=-76.4241039\RMSD=4.466e-09
 \PG=CS [SG(H2O1)]\\@

 This summer one third of the nation will be ill-housed

 Normal termination of Gaussian 09 at Wed Aug 26 09:33:55 2020.
