 Gaussian 09, Revision D.01,
 Gaussian 09:  ES64L-G09RevD.01 24-Apr-2013

 --------------------
 #p B2PLYPD3/Def2QZVP
 --------------------

 ---
 h2o
 ---
 Symbolic Z-matrix:
 Charge =  0 Multiplicity = 1

                         Standard orientation:
 ---------------------------------------------------------------------
 Center     Atomic      Atomic             Coordinates (Angstroms)
 Number     Number       Type             X           Y           Z
 ---------------------------------------------------------------------
      1          8           0        0.000000    0.118582    0.000000
      2          1           0        0.761616   -0.463796    0.000000
      3          1           0       -0.761616   -0.484862    0.000000
 ---------------------------------------------------------------------

 SCF Done:  E(RB2PLYPD3) =  -76.3347426334     A.U. after   10 cycles
 E2(B2PLYPD3) =    -0.9022208867D-01 E(B2PLYPD3) =    -0.76424964722084D+02

 The electronic state is 1-A'.
 Alpha  occ. eigenvalues --  -19.73252  -1.15407  -0.60898  -0.47460  -0.39922
 Alpha virt. eigenvalues --    0.04454   0.10154   0.27564   0.30426   0.30806
 Alpha virt. eigenvalues --    0.35697   0.43798   0.50116   0.56245   0.61999
 Alpha virt. eigenvalues --    0.65803   0.81018   0.93676   0.96058   1.03273

 Mulliken charges:
               1
     1  O   -0.447067
     2  H    0.220764
     3  H    0.226303
 Sum of Mulliken charges =   0.00000

 Dipole moment (field-independent basis, Debye):
    X=              0.0067    Y=             -1.9725    Z=              0.0000  Tot=              1.9725
 Quadrupole moment (field-independent basis, Debye-Ang):
   XX=             -4.3429   YY=             -6.3161   ZZ=             -7.6074
   XY=              0.0345   XZ=              0.0000   YZ=              0.0000

 1\1\GINC-NODE32\SP\RB2PLYPD3-FC\def2QZVP\H2O1\BOITTIER\26-Aug-2020\0\\
 #p B2PLYPD3/Def2QZVP\\h2o\\0,1\O,0,-5.326605,-0.765045,0.92239\H,0,-4.
 368927,-0.721595,0.908689\H,0,-5.609308,0.14636,0.739025\\Version=ES64
 L-G09RevD.01\State=1-A'\HF=-76.3347426\MP2=-76.4249647\RMSD=4.129e-09\
 PG=CS [SG(H2O1)]\\@

 THE WHOLE OF SCIENCE IS NOTHING MORE THAN A REFINEMENT OF EVERYDAY THINKING.

 Normal termination of Gaussian 09 at Wed Aug 26 10:36:46 2020.
