 Gaussian 09, Revision D.01,
 Gaussian 09:  ES64L-G09RevD.01 24-Apr-2013

 --------------------
 #p B2PLYPD3/Def2QZVP
 --------------------

 ---
 h2o
 ---
 Symbolic Z-matrix:
 Charge =  0 Multiplicity = 1

                         Standard orientation:
 ---------------------------------------------------------------------
 Center     Atomic      Atomic             Coordinates (Angstroms)
 Number     Number       Type             X           Y           Z
 ---------------------------------------------------------------------
      1          8           0        0.000000    0.121777    0.000000
      2          1           0        0.779589   -0.450820    0.000000
      3          1           0       -0.779589   -0.523396    0.000000
 ---------------------------------------------------------------------

 SCF Done:  E(RB2PLYPD3) =  -76.3316059297     A.U. after   10 cycles
 E2(B2PLYPD3) =    -0.9104183467D-01 E(B2PLYPD3) =    -0.76422647764398D+02

 The electronic state is 1-A'.
 Alpha  occ. eigenvalues --  -19.73626  -1.14348  -0.59802  -0.47150  -0.39731
 Alpha virt. eigenvalues --    0.04142   0.09912   0.27708   0.30139   0.30481
 Alpha virt. eigenvalues --    0.34737   0.43202   0.49860   0.55931   0.61772
 Alpha virt. eigenvalues --    0.66381   0.80374   0.92724   0.96506   1.01512

 Mulliken charges:
               1
     1  O   -0.462749
     2  H    0.223099
     3  H    0.239650
 Sum of Mulliken charges =   0.00000

 Dipole moment (field-independent basis, Debye):
    X=              0.0231    Y=             -1.9907    Z=              0.0000  Tot=              1.9909
 Quadrupole moment (field-independent basis, Debye-Ang):
   XX=             -4.2989   YY=             -6.3191   ZZ=             -7.6615
   XY=              0.1201   XZ=              0.0000   YZ=              0.0000

 1\1\GINC-NODE31\SP\RB2PLYPD3-FC\def2QZVP\H2O1\BOITTIER\26-Aug-2020\0\\
 #p B2PLYPD3/Def2QZVP\\h2o\\0,1\O,0,-5.326605,-0.768245,0.908699\H,0,-4
 .368927,-0.724105,1.037267\H,0,-5.609308,0.200063,0.828294\\Version=ES
 64L-G09RevD.01\State=1-A'\HF=-76.3316059\MP2=-76.4226478\RMSD=4.688e-0
 9\PG=CS [SG(H2O1)]\\@

 YOU CAN WIPE THE SLATE CLEAN, BUT YOU'LL STILL

 Normal termination of Gaussian 09 at Wed Aug 26 09:27:20 2020.
