 Gaussian 09, Revision D.01,
 Gaussian 09:  ES64L-G09RevD.01 24-Apr-2013

 --------------------
 #p B2PLYPD3/Def2QZVP
 --------------------

 ---
 h2o
 ---
 Symbolic Z-matrix:
 Charge =  0 Multiplicity = 1

                         Standard orientation:
 ---------------------------------------------------------------------
 Center     Atomic      Atomic             Coordinates (Angstroms)
 Number     Number       Type             X           Y           Z
 ---------------------------------------------------------------------
      1          8           0        0.000000    0.120270    0.000000
      2          1           0        0.805874   -0.402793    0.000000
      3          1           0       -0.805874   -0.559363    0.000000
 ---------------------------------------------------------------------

 SCF Done:  E(RB2PLYPD3) =  -76.3260912537     A.U. after   10 cycles
 E2(B2PLYPD3) =    -0.9156154239D-01 E(B2PLYPD3) =    -0.76417652796099D+02

 The electronic state is 1-A'.
 Alpha  occ. eigenvalues --  -19.73733  -1.13536  -0.59521  -0.46373  -0.39530
 Alpha virt. eigenvalues --    0.03858   0.09702   0.27689   0.29492   0.30529
 Alpha virt. eigenvalues --    0.34007   0.42889   0.50255   0.55229   0.62479
 Alpha virt. eigenvalues --    0.66649   0.79546   0.91265   0.96830   1.00728

 Mulliken charges:
               1
     1  O   -0.477262
     2  H    0.222652
     3  H    0.254610
 Sum of Mulliken charges =   0.00000

 Dipole moment (field-independent basis, Debye):
    X=              0.0452    Y=             -1.9586    Z=              0.0000  Tot=              1.9591
 Quadrupole moment (field-independent basis, Debye-Ang):
   XX=             -4.1443   YY=             -6.3912   ZZ=             -7.7051
   XY=              0.2717   XZ=              0.0000   YZ=              0.0000

 1\1\GINC-NODE13\SP\RB2PLYPD3-FC\def2QZVP\H2O1\BOITTIER\26-Aug-2020\0\\
 #p B2PLYPD3/Def2QZVP\\h2o\\0,1\O,0,-5.326605,-0.767241,0.914022\H,0,-4
 .368927,-0.781187,0.989425\H,0,-5.609308,0.241081,0.792787\\Version=ES
 64L-G09RevD.01\State=1-A'\HF=-76.3260913\MP2=-76.4176528\RMSD=6.656e-0
 9\PG=CS [SG(H2O1)]\\@

 YOU KNOW YOU'RE A TEACHER WHEN YOU SAY 2, WRITE 3, AND MEAN 4.

 Normal termination of Gaussian 09 at Wed Aug 26 08:33:34 2020.
