 Gaussian 09, Revision D.01,
 Gaussian 09:  ES64L-G09RevD.01 24-Apr-2013

 --------------------
 #p B2PLYPD3/Def2QZVP
 --------------------

 ---
 h2o
 ---
 Symbolic Z-matrix:
 Charge =  0 Multiplicity = 1

                         Standard orientation:
 ---------------------------------------------------------------------
 Center     Atomic      Atomic             Coordinates (Angstroms)
 Number     Number       Type             X           Y           Z
 ---------------------------------------------------------------------
      1          8           0        0.000000    0.114377    0.000000
      2          1           0        0.759389   -0.469727    0.000000
      3          1           0       -0.759389   -0.445290    0.000000
 ---------------------------------------------------------------------

 SCF Done:  E(RB2PLYPD3) =  -76.3351853640     A.U. after   10 cycles
 E2(B2PLYPD3) =    -0.8969372264D-01 E(B2PLYPD3) =    -0.76424879086664D+02

 The electronic state is 1-A'.
 Alpha  occ. eigenvalues --  -19.72944  -1.15965  -0.61906  -0.47306  -0.40002
 Alpha virt. eigenvalues --    0.04649   0.10259   0.27439   0.30396   0.31267
 Alpha virt. eigenvalues --    0.36030   0.44203   0.50595   0.56148   0.62666
 Alpha virt. eigenvalues --    0.65399   0.81274   0.93920   0.95803   1.04709

 Mulliken charges:
               1
     1  O   -0.439462
     2  H    0.223193
     3  H    0.216269
 Sum of Mulliken charges =   0.00000

 Dipole moment (field-independent basis, Debye):
    X=             -0.0072    Y=             -1.9339    Z=              0.0000  Tot=              1.9339
 Quadrupole moment (field-independent basis, Debye-Ang):
   XX=             -4.2960   YY=             -6.3611   ZZ=             -7.5777
   XY=             -0.0408   XZ=              0.0000   YZ=              0.0000

 1\1\GINC-NODE08\SP\RB2PLYPD3-FC\def2QZVP\H2O1\BOITTIER\26-Aug-2020\0\\
 #p B2PLYPD3/Def2QZVP\\h2o\\0,1\O,0,-5.326605,-0.762829,0.918317\H,0,-4
 .368927,-0.737912,0.927366\H,0,-5.609308,0.127219,0.784928\\Version=ES
 64L-G09RevD.01\State=1-A'\HF=-76.3351854\MP2=-76.4248791\RMSD=4.166e-0
 9\PG=CS [SG(H2O1)]\\@

 HEAVEN'S NET CASTS WIDE.

 Normal termination of Gaussian 09 at Wed Aug 26 10:11:06 2020.
