 Gaussian 09, Revision D.01,
 Gaussian 09:  ES64L-G09RevD.01 24-Apr-2013

 --------------------
 #p B2PLYPD3/Def2QZVP
 --------------------

 ---
 h2o
 ---
 Symbolic Z-matrix:
 Charge =  0 Multiplicity = 1

                         Standard orientation:
 ---------------------------------------------------------------------
 Center     Atomic      Atomic             Coordinates (Angstroms)
 Number     Number       Type             X           Y           Z
 ---------------------------------------------------------------------
      1          8           0        0.000000    0.111545    0.000000
      2          1           0        0.784157   -0.444561    0.000000
      3          1           0       -0.784157   -0.447800    0.000000
 ---------------------------------------------------------------------

 SCF Done:  E(RB2PLYPD3) =  -76.3346310269     A.U. after   10 cycles
 E2(B2PLYPD3) =    -0.8999269561D-01 E(B2PLYPD3) =    -0.76424623722502D+02

 The electronic state is 1-A'.
 Alpha  occ. eigenvalues --  -19.72995  -1.15196  -0.61917  -0.46568  -0.39823
 Alpha virt. eigenvalues --    0.04571   0.10097   0.27462   0.30436   0.31378
 Alpha virt. eigenvalues --    0.34972   0.43850   0.51164   0.55548   0.63524
 Alpha virt. eigenvalues --    0.65635   0.80679   0.93364   0.96159   1.04631

 Mulliken charges:
               1
     1  O   -0.456266
     2  H    0.227714
     3  H    0.228553
 Sum of Mulliken charges =   0.00000

 Dipole moment (field-independent basis, Debye):
    X=              0.0009    Y=             -1.8917    Z=              0.0000  Tot=              1.8917
 Quadrupole moment (field-independent basis, Debye-Ang):
   XX=             -4.1354   YY=             -6.4607   ZZ=             -7.6106
   XY=              0.0057   XZ=              0.0000   YZ=              0.0000

 1\1\GINC-NODE12\SP\RB2PLYPD3-FC\def2QZVP\H2O1\BOITTIER\26-Aug-2020\0\\
 #p B2PLYPD3/Def2QZVP\\h2o\\0,1\O,0,-5.326605,-0.761304,0.909681\H,0,-4
 .368927,-0.793406,0.986997\H,0,-5.609308,0.158313,0.863295\\Version=ES
 64L-G09RevD.01\State=1-A'\HF=-76.334631\MP2=-76.4246237\RMSD=3.708e-09
 \PG=CS [SG(H2O1)]\\@

 YE HAVE SOWN MUCH, AND BRING IN LITTLE.

 Normal termination of Gaussian 09 at Wed Aug 26 08:24:59 2020.
