 Gaussian 09, Revision D.01,
 Gaussian 09:  ES64L-G09RevD.01 24-Apr-2013

 --------------------
 #p B2PLYPD3/Def2QZVP
 --------------------

 ---
 h2o
 ---
 Symbolic Z-matrix:
 Charge =  0 Multiplicity = 1

                         Standard orientation:
 ---------------------------------------------------------------------
 Center     Atomic      Atomic             Coordinates (Angstroms)
 Number     Number       Type             X           Y           Z
 ---------------------------------------------------------------------
      1          8           0        0.000000    0.120792    0.000000
      2          1           0        0.783918   -0.442574    0.000000
      3          1           0       -0.783918   -0.523763    0.000000
 ---------------------------------------------------------------------

 SCF Done:  E(RB2PLYPD3) =  -76.3313446153     A.U. after   10 cycles
 E2(B2PLYPD3) =    -0.9103339129D-01 E(B2PLYPD3) =    -0.76422378006590D+02

 The electronic state is 1-A'.
 Alpha  occ. eigenvalues --  -19.73597  -1.14283  -0.59917  -0.46996  -0.39707
 Alpha virt. eigenvalues --    0.04142   0.09897   0.27691   0.30170   0.30486
 Alpha virt. eigenvalues --    0.34623   0.43195   0.50003   0.55804   0.61998
 Alpha virt. eigenvalues --    0.66370   0.80292   0.92588   0.96530   1.01579

 Mulliken charges:
               1
     1  O   -0.464669
     2  H    0.223136
     3  H    0.241533
 Sum of Mulliken charges =   0.00000

 Dipole moment (field-independent basis, Debye):
    X=              0.0251    Y=             -1.9789    Z=              0.0000  Tot=              1.9791
 Quadrupole moment (field-independent basis, Debye-Ang):
   XX=             -4.2634   YY=             -6.3417   ZZ=             -7.6641
   XY=              0.1360   XZ=              0.0000   YZ=              0.0000

 1\1\GINC-NODE17\SP\RB2PLYPD3-FC\def2QZVP\H2O1\BOITTIER\26-Aug-2020\0\\
 #p B2PLYPD3/Def2QZVP\\h2o\\0,1\O,0,-5.326605,-0.767617,0.909492\H,0,-4
 .368927,-0.737583,1.027217\H,0,-5.609308,0.203505,0.82595\\Version=ES6
 4L-G09RevD.01\State=1-A'\HF=-76.3313446\MP2=-76.422378\RMSD=4.853e-09\
 PG=CS [SG(H2O1)]\\@

 THE MEEK SHALL INHERIT THE EARTH.

 Normal termination of Gaussian 09 at Wed Aug 26 09:15:37 2020.
