 Gaussian 09, Revision D.01,
 Gaussian 09:  ES64L-G09RevD.01 24-Apr-2013

 --------------------
 #p B2PLYPD3/Def2QZVP
 --------------------

 ---
 h2o
 ---
 Symbolic Z-matrix:
 Charge =  0 Multiplicity = 1

                         Standard orientation:
 ---------------------------------------------------------------------
 Center     Atomic      Atomic             Coordinates (Angstroms)
 Number     Number       Type             X           Y           Z
 ---------------------------------------------------------------------
      1          8           0        0.000000    0.114810    0.000000
      2          1           0        0.770465   -0.454168    0.000000
      3          1           0       -0.770465   -0.464316    0.000000
 ---------------------------------------------------------------------

 SCF Done:  E(RB2PLYPD3) =  -76.3350068595     A.U. after   10 cycles
 E2(B2PLYPD3) =    -0.9000715610D-01 E(B2PLYPD3) =    -0.76425014015634D+02

 The electronic state is 1-A'.
 Alpha  occ. eigenvalues --  -19.73082  -1.15439  -0.61539  -0.47062  -0.39899
 Alpha virt. eigenvalues --    0.04548   0.10154   0.27495   0.30424   0.31141
 Alpha virt. eigenvalues --    0.35482   0.43905   0.50625   0.55939   0.62757
 Alpha virt. eigenvalues --    0.65642   0.80964   0.93589   0.96026   1.04129

 Mulliken charges:
               1
     1  O   -0.449155
     2  H    0.223229
     3  H    0.225926
 Sum of Mulliken charges =   0.00000

 Dipole moment (field-independent basis, Debye):
    X=              0.0029    Y=             -1.9316    Z=              0.0000  Tot=              1.9316
 Quadrupole moment (field-independent basis, Debye-Ang):
   XX=             -4.2478   YY=             -6.3854   ZZ=             -7.6021
   XY=              0.0172   XZ=              0.0000   YZ=              0.0000

 1\1\GINC-NODE05\SP\RB2PLYPD3-FC\def2QZVP\H2O1\BOITTIER\26-Aug-2020\0\\
 #p B2PLYPD3/Def2QZVP\\h2o\\0,1\O,0,-5.326605,-0.763134,0.918309\H,0,-4
 .368927,-0.754199,0.929514\H,0,-5.609308,0.148383,0.78333\\Version=ES6
 4L-G09RevD.01\State=1-A'\HF=-76.3350069\MP2=-76.425014\RMSD=3.896e-09\
 PG=CS [SG(H2O1)]\\@

 MICRO CREDO - NEVER TRUST A COMPUTER BIGGER

 Normal termination of Gaussian 09 at Wed Aug 26 10:39:35 2020.
