 Gaussian 09, Revision D.01,
 Gaussian 09:  ES64L-G09RevD.01 24-Apr-2013

 --------------------
 #p B2PLYPD3/Def2QZVP
 --------------------

 ---
 h2o
 ---
 Symbolic Z-matrix:
 Charge =  0 Multiplicity = 1

                         Standard orientation:
 ---------------------------------------------------------------------
 Center     Atomic      Atomic             Coordinates (Angstroms)
 Number     Number       Type             X           Y           Z
 ---------------------------------------------------------------------
      1          8           0        0.000000    0.116882    0.000000
      2          1           0        0.772478   -0.449463    0.000000
      3          1           0       -0.772478   -0.485594    0.000000
 ---------------------------------------------------------------------

 SCF Done:  E(RB2PLYPD3) =  -76.3343823640     A.U. after   10 cycles
 E2(B2PLYPD3) =    -0.9029021868D-01 E(B2PLYPD3) =    -0.76424672582662D+02

 The electronic state is 1-A'.
 Alpha  occ. eigenvalues --  -19.73239  -1.15138  -0.61029  -0.47110  -0.39853
 Alpha virt. eigenvalues --    0.04438   0.10094   0.27555   0.30440   0.30869
 Alpha virt. eigenvalues --    0.35293   0.43701   0.50388   0.55958   0.62446
 Alpha virt. eigenvalues --    0.65851   0.80813   0.93383   0.96166   1.03297

 Mulliken charges:
               1
     1  O   -0.453094
     2  H    0.221938
     3  H    0.231156
 Sum of Mulliken charges =   0.00000

 Dipole moment (field-independent basis, Debye):
    X=              0.0108    Y=             -1.9500    Z=              0.0000  Tot=              1.9500
 Quadrupole moment (field-independent basis, Debye-Ang):
   XX=             -4.2661   YY=             -6.3646   ZZ=             -7.6184
   XY=              0.0607   XZ=              0.0000   YZ=              0.0000

 1\1\GINC-NODE35\SP\RB2PLYPD3-FC\def2QZVP\H2O1\BOITTIER\26-Aug-2020\0\\
 #p B2PLYPD3/Def2QZVP\\h2o\\0,1\O,0,-5.326605,-0.764339,0.919855\H,0,-4
 .368927,-0.747061,0.924686\H,0,-5.609308,0.160535,0.76369\\Version=ES6
 4L-G09RevD.01\State=1-A'\HF=-76.3343824\MP2=-76.4246726\RMSD=4.153e-09
 \PG=CS [SG(H2O1)]\\@

 BE NOT THE FIRST BY WHOM THE NEW ARE TRIED,

 Normal termination of Gaussian 09 at Wed Aug 26 09:56:32 2020.
