 Gaussian 09, Revision D.01,
 Gaussian 09:  ES64L-G09RevD.01 24-Apr-2013

 --------------------
 #p B2PLYPD3/Def2QZVP
 --------------------

 ---
 h2o
 ---
 Symbolic Z-matrix:
 Charge =  0 Multiplicity = 1

                         Standard orientation:
 ---------------------------------------------------------------------
 Center     Atomic      Atomic             Coordinates (Angstroms)
 Number     Number       Type             X           Y           Z
 ---------------------------------------------------------------------
      1          8           0        0.000000    0.117761    0.000000
      2          1           0        0.758301   -0.469700    0.000000
      3          1           0       -0.758301   -0.472385    0.000000
 ---------------------------------------------------------------------

 SCF Done:  E(RB2PLYPD3) =  -76.3350710530     A.U. after   10 cycles
 E2(B2PLYPD3) =    -0.9004742607D-01 E(B2PLYPD3) =    -0.76425118479036D+02

 The electronic state is 1-A'.
 Alpha  occ. eigenvalues --  -19.73165  -1.15636  -0.61158  -0.47504  -0.39962
 Alpha virt. eigenvalues --    0.04516   0.10201   0.27528   0.30414   0.30934
 Alpha virt. eigenvalues --    0.35898   0.43937   0.50189   0.56291   0.62081
 Alpha virt. eigenvalues --    0.65673   0.81142   0.93832   0.95953   1.03701

 Mulliken charges:
               1
     1  O   -0.443517
     2  H    0.221395
     3  H    0.222122
 Sum of Mulliken charges =   0.00000

 Dipole moment (field-independent basis, Debye):
    X=              0.0008    Y=             -1.9668    Z=              0.0000  Tot=              1.9668
 Quadrupole moment (field-independent basis, Debye-Ang):
   XX=             -4.3477   YY=             -6.3178   ZZ=             -7.5960
   XY=              0.0044   XZ=              0.0000   YZ=              0.0000

 1\1\GINC-NODE06\SP\RB2PLYPD3-FC\def2QZVP\H2O1\BOITTIER\26-Aug-2020\0\\
 #p B2PLYPD3/Def2QZVP\\h2o\\0,1\O,0,-5.326605,-0.765132,0.918526\H,0,-4
 .368927,-0.714824,0.939803\H,0,-5.609308,0.140978,0.769072\\Version=ES
 64L-G09RevD.01\State=1-A'\HF=-76.3350711\MP2=-76.4251185\RMSD=4.079e-0
 9\PG=CS [SG(H2O1)]\\@

 GOD DOES NOT PLAY WITH DICE.

 Normal termination of Gaussian 09 at Wed Aug 26 09:41:41 2020.
