 Gaussian 09, Revision D.01,
 Gaussian 09:  ES64L-G09RevD.01 24-Apr-2013

 --------------------
 #p B2PLYPD3/Def2QZVP
 --------------------

 ---
 h2o
 ---
 Symbolic Z-matrix:
 Charge =  0 Multiplicity = 1

                         Standard orientation:
 ---------------------------------------------------------------------
 Center     Atomic      Atomic             Coordinates (Angstroms)
 Number     Number       Type             X           Y           Z
 ---------------------------------------------------------------------
      1          8           0        0.000000    0.115133    0.000000
      2          1           0        0.765060   -0.461806    0.000000
      3          1           0       -0.765060   -0.459259    0.000000
 ---------------------------------------------------------------------

 SCF Done:  E(RB2PLYPD3) =  -76.3351770820     A.U. after   10 cycles
 E2(B2PLYPD3) =    -0.8991190971D-01 E(B2PLYPD3) =    -0.76425088991720D+02

 The electronic state is 1-A'.
 Alpha  occ. eigenvalues --  -19.73052  -1.15635  -0.61597  -0.47209  -0.39942
 Alpha virt. eigenvalues --    0.04577   0.10195   0.27483   0.30413   0.31155
 Alpha virt. eigenvalues --    0.35721   0.44002   0.50544   0.56062   0.62621
 Alpha virt. eigenvalues --    0.65570   0.81097   0.93739   0.95940   1.04266

 Mulliken charges:
               1
     1  O   -0.445265
     2  H    0.222979
     3  H    0.222286
 Sum of Mulliken charges =   0.00000

 Dipole moment (field-independent basis, Debye):
    X=             -0.0008    Y=             -1.9379    Z=              0.0000  Tot=              1.9379
 Quadrupole moment (field-independent basis, Debye-Ang):
   XX=             -4.2787   YY=             -6.3674   ZZ=             -7.5933
   XY=             -0.0043   XZ=              0.0000   YZ=              0.0000

 1\1\GINC-NODE21\SP\RB2PLYPD3-FC\def2QZVP\H2O1\BOITTIER\26-Aug-2020\0\\
 #p B2PLYPD3/Def2QZVP\\h2o\\0,1\O,0,-5.326605,-0.763494,0.917173\H,0,-4
 .368927,-0.741624,0.940632\H,0,-5.609308,0.141577,0.790019\\Version=ES
 64L-G09RevD.01\State=1-A'\HF=-76.3351771\MP2=-76.425089\RMSD=3.946e-09
 \PG=CS [SG(H2O1)]\\@

            ARSENIC

 Normal termination of Gaussian 09 at Wed Aug 26 12:24:43 2020.
