 Gaussian 09, Revision D.01,
 Gaussian 09:  ES64L-G09RevD.01 24-Apr-2013

 --------------------
 #p B2PLYPD3/Def2QZVP
 --------------------

 ---
 h2o
 ---
 Symbolic Z-matrix:
 Charge =  0 Multiplicity = 1

                         Standard orientation:
 ---------------------------------------------------------------------
 Center     Atomic      Atomic             Coordinates (Angstroms)
 Number     Number       Type             X           Y           Z
 ---------------------------------------------------------------------
      1          8           0        0.000000    0.118718    0.000000
      2          1           0        0.759267   -0.469316    0.000000
      3          1           0       -0.759267   -0.480425    0.000000
 ---------------------------------------------------------------------

 SCF Done:  E(RB2PLYPD3) =  -76.3348644628     A.U. after   10 cycles
 E2(B2PLYPD3) =    -0.9018137271D-01 E(B2PLYPD3) =    -0.76425045835541D+02

 The electronic state is 1-A'.
 Alpha  occ. eigenvalues --  -19.73240  -1.15490  -0.60919  -0.47526  -0.39940
 Alpha virt. eigenvalues --    0.04467   0.10172   0.27559   0.30422   0.30820
 Alpha virt. eigenvalues --    0.35796   0.43836   0.50087   0.56301   0.61940
 Alpha virt. eigenvalues --    0.65774   0.81070   0.93757   0.96022   1.03348

 Mulliken charges:
               1
     1  O   -0.445518
     2  H    0.221283
     3  H    0.224234
 Sum of Mulliken charges =   0.00000

 Dipole moment (field-independent basis, Debye):
    X=              0.0035    Y=             -1.9752    Z=              0.0000  Tot=              1.9752
 Quadrupole moment (field-independent basis, Debye-Ang):
   XX=             -4.3562   YY=             -6.3085   ZZ=             -7.6037
   XY=              0.0181   XZ=              0.0000   YZ=              0.0000

 1\1\GINC-NODE29\SP\RB2PLYPD3-FC\def2QZVP\H2O1\BOITTIER\26-Aug-2020\0\\
 #p B2PLYPD3/Def2QZVP\\h2o\\0,1\O,0,-5.326605,-0.765993,0.916715\H,0,-4
 .368927,-0.708595,0.959471\H,0,-5.609308,0.148524,0.778163\\Version=ES
 64L-G09RevD.01\State=1-A'\HF=-76.3348645\MP2=-76.4250458\RMSD=4.102e-0
 9\PG=CS [SG(H2O1)]\\@

 IN-LAWS ARE LIKE SEEDS. YOU DON'T NEED THEM

 Normal termination of Gaussian 09 at Wed Aug 26 11:41:30 2020.
