 Gaussian 09, Revision D.01,
 Gaussian 09:  ES64L-G09RevD.01 24-Apr-2013

 --------------------
 #p B2PLYPD3/Def2QZVP
 --------------------

 ---
 h2o
 ---
 Symbolic Z-matrix:
 Charge =  0 Multiplicity = 1

                         Standard orientation:
 ---------------------------------------------------------------------
 Center     Atomic      Atomic             Coordinates (Angstroms)
 Number     Number       Type             X           Y           Z
 ---------------------------------------------------------------------
      1          8           0        0.000000    0.121479    0.000000
      2          1           0        0.806122   -0.404299    0.000000
      3          1           0       -0.806122   -0.567533    0.000000
 ---------------------------------------------------------------------

 SCF Done:  E(RB2PLYPD3) =  -76.3251504000     A.U. after   10 cycles
 E2(B2PLYPD3) =    -0.9171372886D-01 E(B2PLYPD3) =    -0.76416864128845D+02

 The electronic state is 1-A'.
 Alpha  occ. eigenvalues --  -19.73811  -1.13420  -0.59272  -0.46411  -0.39515
 Alpha virt. eigenvalues --    0.03787   0.09668   0.27714   0.29295   0.30534
 Alpha virt. eigenvalues --    0.33969   0.42817   0.50104   0.55242   0.62299
 Alpha virt. eigenvalues --    0.66738   0.79483   0.91069   0.96852   1.00528

 Mulliken charges:
               1
     1  O   -0.477904
     2  H    0.222631
     3  H    0.255273
 Sum of Mulliken charges =   0.00000

 Dipole moment (field-independent basis, Debye):
    X=              0.0481    Y=             -1.9692    Z=              0.0000  Tot=              1.9698
 Quadrupole moment (field-independent basis, Debye-Ang):
   XX=             -4.1599   YY=             -6.3749   ZZ=             -7.7125
   XY=              0.2816   XZ=              0.0000   YZ=              0.0000

 1\1\GINC-NODE29\SP\RB2PLYPD3-FC\def2QZVP\H2O1\BOITTIER\26-Aug-2020\0\\
 #p B2PLYPD3/Def2QZVP\\h2o\\0,1\O,0,-5.326605,-0.768102,0.912381\H,0,-4
 .368927,-0.774165,1.007728\H,0,-5.609308,0.247838,0.800509\\Version=ES
 64L-G09RevD.01\State=1-A'\HF=-76.3251504\MP2=-76.4168641\RMSD=6.750e-0
 9\PG=CS [SG(H2O1)]\\@

 HE THAT FOLLOWS NATURE IS NEVER LOST.

 Normal termination of Gaussian 09 at Wed Aug 26 08:57:42 2020.
