 Gaussian 09, Revision D.01,
 Gaussian 09:  ES64L-G09RevD.01 24-Apr-2013

 --------------------
 #p B2PLYPD3/Def2QZVP
 --------------------

 ---
 h2o
 ---
 Symbolic Z-matrix:
 Charge =  0 Multiplicity = 1

                         Standard orientation:
 ---------------------------------------------------------------------
 Center     Atomic      Atomic             Coordinates (Angstroms)
 Number     Number       Type             X           Y           Z
 ---------------------------------------------------------------------
      1          8           0        0.000000    0.119442    0.000000
      2          1           0        0.764802   -0.459654    0.000000
      3          1           0       -0.764802   -0.495885    0.000000
 ---------------------------------------------------------------------

 SCF Done:  E(RB2PLYPD3) =  -76.3342429564     A.U. after   10 cycles
 E2(B2PLYPD3) =    -0.9040027037D-01 E(B2PLYPD3) =    -0.76424643226785D+02

 The electronic state is 1-A'.
 Alpha  occ. eigenvalues --  -19.73340  -1.15182  -0.60635  -0.47419  -0.39883
 Alpha virt. eigenvalues --    0.04387   0.10106   0.27598   0.30438   0.30660
 Alpha virt. eigenvalues --    0.35503   0.43665   0.50038   0.56199   0.61912
 Alpha virt. eigenvalues --    0.65932   0.80893   0.93502   0.96163   1.02833

 Mulliken charges:
               1
     1  O   -0.450375
     2  H    0.220563
     3  H    0.229812
 Sum of Mulliken charges =   0.00000

 Dipole moment (field-independent basis, Debye):
    X=              0.0115    Y=             -1.9785    Z=              0.0000  Tot=              1.9786
 Quadrupole moment (field-independent basis, Debye-Ang):
   XX=             -4.3393   YY=             -6.3131   ZZ=             -7.6189
   XY=              0.0594   XZ=              0.0000   YZ=              0.0000

 1\1\GINC-NODE05\SP\RB2PLYPD3-FC\def2QZVP\H2O1\BOITTIER\26-Aug-2020\0\\
 #p B2PLYPD3/Def2QZVP\\h2o\\0,1\O,0,-5.326605,-0.766238,0.918843\H,0,-4
 .368927,-0.716393,0.944197\H,0,-5.609308,0.160239,0.759882\\Version=ES
 64L-G09RevD.01\State=1-A'\HF=-76.334243\MP2=-76.4246432\RMSD=4.257e-09
 \PG=CS [SG(H2O1)]\\@

 IT MATTERS NOT HOW DEEP YOU PLOW,

 Normal termination of Gaussian 09 at Wed Aug 26 09:30:11 2020.
