 Gaussian 09, Revision D.01,
 Gaussian 09:  ES64L-G09RevD.01 24-Apr-2013

 --------------------
 #p B2PLYPD3/Def2QZVP
 --------------------

 ---
 h2o
 ---
 Symbolic Z-matrix:
 Charge =  0 Multiplicity = 1

                         Standard orientation:
 ---------------------------------------------------------------------
 Center     Atomic      Atomic             Coordinates (Angstroms)
 Number     Number       Type             X           Y           Z
 ---------------------------------------------------------------------
      1          8           0        0.000000    0.115412    0.000000
      2          1           0        0.774520   -0.447868    0.000000
      3          1           0       -0.774520   -0.475428    0.000000
 ---------------------------------------------------------------------

 SCF Done:  E(RB2PLYPD3) =  -76.3346192310     A.U. after   10 cycles
 E2(B2PLYPD3) =    -0.9017396636D-01 E(B2PLYPD3) =    -0.76424793197330D+02

 The electronic state is 1-A'.
 Alpha  occ. eigenvalues --  -19.73160  -1.15206  -0.61306  -0.46991  -0.39856
 Alpha virt. eigenvalues --    0.04487   0.10106   0.27524   0.30437   0.31025
 Alpha virt. eigenvalues --    0.35267   0.43769   0.50583   0.55871   0.62719
 Alpha virt. eigenvalues --    0.65766   0.80822   0.93415   0.96132   1.03707

 Mulliken charges:
               1
     1  O   -0.453008
     2  H    0.222949
     3  H    0.230059
 Sum of Mulliken charges =   0.00000

 Dipole moment (field-independent basis, Debye):
    X=              0.0080    Y=             -1.9348    Z=              0.0000  Tot=              1.9349
 Quadrupole moment (field-independent basis, Debye-Ang):
   XX=             -4.2359   YY=             -6.3882   ZZ=             -7.6137
   XY=              0.0468   XZ=              0.0000   YZ=              0.0000

 1\1\GINC-NODE16\SP\RB2PLYPD3-FC\def2QZVP\H2O1\BOITTIER\26-Aug-2020\0\\
 #p B2PLYPD3/Def2QZVP\\h2o\\0,1\O,0,-5.326605,-0.76336,0.919624\H,0,-4.
 368927,-0.759228,0.920551\H,0,-5.609308,0.15704,0.771583\\Version=ES64
 L-G09RevD.01\State=1-A'\HF=-76.3346192\MP2=-76.4247932\RMSD=4.008e-09\
 PG=CS [SG(H2O1)]\\@

 REPARTEE - WHAT YOU THINK OF AFTER YOU BECOME A DEPARTEE.

 Normal termination of Gaussian 09 at Wed Aug 26 08:44:08 2020.
