 Gaussian 09, Revision D.01,
 Gaussian 09:  ES64L-G09RevD.01 24-Apr-2013

 --------------------
 #p B2PLYPD3/Def2QZVP
 --------------------

 ---
 h2o
 ---
 Symbolic Z-matrix:
 Charge =  0 Multiplicity = 1

                         Standard orientation:
 ---------------------------------------------------------------------
 Center     Atomic      Atomic             Coordinates (Angstroms)
 Number     Number       Type             X           Y           Z
 ---------------------------------------------------------------------
      1          8           0        0.000000    0.120795    0.000000
      2          1           0        0.714603   -0.532500    0.000000
      3          1           0       -0.714603   -0.433861    0.000000
 ---------------------------------------------------------------------

 SCF Done:  E(RB2PLYPD3) =  -76.3315120418     A.U. after   10 cycles
 E2(B2PLYPD3) =    -0.8942867230D-01 E(B2PLYPD3) =    -0.76420940714125D+02

 The electronic state is 1-A'.
 Alpha  occ. eigenvalues --  -19.72934  -1.17246  -0.61345  -0.48692  -0.40282
 Alpha virt. eigenvalues --    0.04617   0.10513   0.27411   0.30340   0.30825
 Alpha virt. eigenvalues --    0.37640   0.44805   0.49698   0.57223   0.60996
 Alpha virt. eigenvalues --    0.65098   0.81751   0.94651   0.95510   1.04244

 Mulliken charges:
               1
     1  O   -0.411727
     2  H    0.221916
     3  H    0.189811
 Sum of Mulliken charges =   0.00000

 Dipole moment (field-independent basis, Debye):
    X=             -0.0357    Y=             -2.0190    Z=              0.0000  Tot=              2.0193
 Quadrupole moment (field-independent basis, Debye-Ang):
   XX=             -4.5941   YY=             -6.1601   ZZ=             -7.5330
   XY=             -0.1478   XZ=              0.0000   YZ=              0.0000

 1\1\GINC-NODE21\SP\RB2PLYPD3-FC\def2QZVP\H2O1\BOITTIER\26-Aug-2020\0\\
 #p B2PLYPD3/Def2QZVP\\h2o\\0,1\O,0,-5.326605,-0.765829,0.925484\H,0,-4
 .368927,-0.628359,0.887982\H,0,-5.609308,0.065663,0.708689\\Version=ES
 64L-G09RevD.01\State=1-A'\HF=-76.331512\MP2=-76.4209407\RMSD=6.219e-09
 \PG=CS [SG(H2O1)]\\@

 IF YOU'RE NOT PART OF THE SOLUTION,

 Normal termination of Gaussian 09 at Wed Aug 26 08:33:26 2020.
