 Gaussian 09, Revision D.01,
 Gaussian 09:  ES64L-G09RevD.01 24-Apr-2013

 --------------------
 #p B2PLYPD3/Def2QZVP
 --------------------

 ---
 h2o
 ---
 Symbolic Z-matrix:
 Charge =  0 Multiplicity = 1

                         Standard orientation:
 ---------------------------------------------------------------------
 Center     Atomic      Atomic             Coordinates (Angstroms)
 Number     Number       Type             X           Y           Z
 ---------------------------------------------------------------------
      1          8           0        0.000000    0.114129    0.000000
      2          1           0        0.774638   -0.449060    0.000000
      3          1           0       -0.774638   -0.463968    0.000000
 ---------------------------------------------------------------------

 SCF Done:  E(RB2PLYPD3) =  -76.3348728882     A.U. after   10 cycles
 E2(B2PLYPD3) =    -0.9003440416D-01 E(B2PLYPD3) =    -0.76424907292390D+02

 The electronic state is 1-A'.
 Alpha  occ. eigenvalues --  -19.73076  -1.15335  -0.61589  -0.46927  -0.39872
 Alpha virt. eigenvalues --    0.04543   0.10131   0.27492   0.30429   0.31175
 Alpha virt. eigenvalues --    0.35317   0.43865   0.50744   0.55829   0.62937
 Alpha virt. eigenvalues --    0.65662   0.80874   0.93495   0.96075   1.04162

 Mulliken charges:
               1
     1  O   -0.451616
     2  H    0.223851
     3  H    0.227765
 Sum of Mulliken charges =   0.00000

 Dipole moment (field-independent basis, Debye):
    X=              0.0042    Y=             -1.9225    Z=              0.0000  Tot=              1.9225
 Quadrupole moment (field-independent basis, Debye-Ang):
   XX=             -4.2179   YY=             -6.4045   ZZ=             -7.6064
   XY=              0.0255   XZ=              0.0000   YZ=              0.0000

 1\1\GINC-NODE10\SP\RB2PLYPD3-FC\def2QZVP\H2O1\BOITTIER\26-Aug-2020\0\\
 #p B2PLYPD3/Def2QZVP\\h2o\\0,1\O,0,-5.326605,-0.762677,0.918194\H,0,-4
 .368927,-0.76541,0.927707\H,0,-5.609308,0.152288,0.787134\\Version=ES6
 4L-G09RevD.01\State=1-A'\HF=-76.3348729\MP2=-76.4249073\RMSD=3.871e-09
 \PG=CS [SG(H2O1)]\\@

 THERE'S A SUCKER BORN EVERY MINUTE

 Normal termination of Gaussian 09 at Wed Aug 26 08:30:30 2020.
