 Gaussian 09, Revision D.01,
 Gaussian 09:  ES64L-G09RevD.01 24-Apr-2013

 --------------------
 #p B2PLYPD3/Def2QZVP
 --------------------

 ---
 h2o
 ---
 Symbolic Z-matrix:
 Charge =  0 Multiplicity = 1

                         Standard orientation:
 ---------------------------------------------------------------------
 Center     Atomic      Atomic             Coordinates (Angstroms)
 Number     Number       Type             X           Y           Z
 ---------------------------------------------------------------------
      1          8           0        0.000000    0.118195    0.000000
      2          1           0        0.750684   -0.479778    0.000000
      3          1           0       -0.750684   -0.465782    0.000000
 ---------------------------------------------------------------------

 SCF Done:  E(RB2PLYPD3) =  -76.3351072632     A.U. after   10 cycles
 E2(B2PLYPD3) =    -0.8991865023D-01 E(B2PLYPD3) =    -0.76425025913405D+02

 The electronic state is 1-A'.
 Alpha  occ. eigenvalues --  -19.73121  -1.15915  -0.61227  -0.47712  -0.40021
 Alpha virt. eigenvalues --    0.04551   0.10259   0.27510   0.30400   0.30951
 Alpha virt. eigenvalues --    0.36229   0.44075   0.50097   0.56463   0.61896
 Alpha virt. eigenvalues --    0.65572   0.81294   0.94045   0.95845   1.03881

 Mulliken charges:
               1
     1  O   -0.438182
     2  H    0.221051
     3  H    0.217132
 Sum of Mulliken charges =   0.00000

 Dipole moment (field-independent basis, Debye):
    X=             -0.0045    Y=             -1.9753    Z=              0.0000  Tot=              1.9753
 Quadrupole moment (field-independent basis, Debye-Ang):
   XX=             -4.3904   YY=             -6.2925   ZZ=             -7.5839
   XY=             -0.0226   XZ=              0.0000   YZ=              0.0000

 1\1\GINC-NODE19\SP\RB2PLYPD3-FC\def2QZVP\H2O1\BOITTIER\26-Aug-2020\0\\
 #p B2PLYPD3/Def2QZVP\\h2o\\0,1\O,0,-5.326605,-0.764635,0.923036\H,0,-4
 .368927,-0.705822,0.900831\H,0,-5.609308,0.124031,0.7362\\Version=ES64
 L-G09RevD.01\State=1-A'\HF=-76.3351073\MP2=-76.4250259\RMSD=4.247e-09\
 PG=CS [SG(H2O1)]\\@

 REALITY IS FOR PEOPLE WHO CAN'T FACE SCIENCE FICTION.

 Normal termination of Gaussian 09 at Wed Aug 26 10:32:13 2020.
