 Gaussian 09, Revision D.01,
 Gaussian 09:  ES64L-G09RevD.01 24-Apr-2013

 --------------------
 #p B2PLYPD3/Def2QZVP
 --------------------

 ---
 h2o
 ---
 Symbolic Z-matrix:
 Charge =  0 Multiplicity = 1

                         Standard orientation:
 ---------------------------------------------------------------------
 Center     Atomic      Atomic             Coordinates (Angstroms)
 Number     Number       Type             X           Y           Z
 ---------------------------------------------------------------------
      1          8           0        0.000000    0.119417    0.000000
      2          1           0        0.765077   -0.460619    0.000000
      3          1           0       -0.765077   -0.494717    0.000000
 ---------------------------------------------------------------------

 SCF Done:  E(RB2PLYPD3) =  -76.3342606401     A.U. after   10 cycles
 E2(B2PLYPD3) =    -0.9040354951D-01 E(B2PLYPD3) =    -0.76424664189652D+02

 The electronic state is 1-A'.
 Alpha  occ. eigenvalues --  -19.73341  -1.15173  -0.60634  -0.47412  -0.39881
 Alpha virt. eigenvalues --    0.04387   0.10104   0.27599   0.30439   0.30664
 Alpha virt. eigenvalues --    0.35491   0.43660   0.50043   0.56194   0.61919
 Alpha virt. eigenvalues --    0.65935   0.80888   0.93500   0.96164   1.02837

 Mulliken charges:
               1
     1  O   -0.450569
     2  H    0.220937
     3  H    0.229632
 Sum of Mulliken charges =   0.00000

 Dipole moment (field-independent basis, Debye):
    X=              0.0108    Y=             -1.9782    Z=              0.0000  Tot=              1.9782
 Quadrupole moment (field-independent basis, Debye-Ang):
   XX=             -4.3376   YY=             -6.3143   ZZ=             -7.6193
   XY=              0.0559   XZ=              0.0000   YZ=              0.0000

 1\1\GINC-NODE35\SP\RB2PLYPD3-FC\def2QZVP\H2O1\BOITTIER\26-Aug-2020\0\\
 #p B2PLYPD3/Def2QZVP\\h2o\\0,1\O,0,-5.326605,-0.766454,0.91686\H,0,-4.
 368927,-0.714821,0.961263\H,0,-5.609308,0.162124,0.774292\\Version=ES6
 4L-G09RevD.01\State=1-A'\HF=-76.3342606\MP2=-76.4246642\RMSD=4.226e-09
 \PG=CS [SG(H2O1)]\\@

 FORGIVE MY NONSENSE AS I ALSO FORGIVE THOSE WHO THINK THEY TALK SENSE

 Normal termination of Gaussian 09 at Wed Aug 26 11:23:36 2020.
