 Gaussian 09, Revision D.01,
 Gaussian 09:  ES64L-G09RevD.01 24-Apr-2013

 --------------------
 #p B2PLYPD3/Def2QZVP
 --------------------

 ---
 h2o
 ---
 Symbolic Z-matrix:
 Charge =  0 Multiplicity = 1

                         Standard orientation:
 ---------------------------------------------------------------------
 Center     Atomic      Atomic             Coordinates (Angstroms)
 Number     Number       Type             X           Y           Z
 ---------------------------------------------------------------------
      1          8           0        0.000000    0.118903    0.000000
      2          1           0        0.763472   -0.463437    0.000000
      3          1           0       -0.763472   -0.487791    0.000000
 ---------------------------------------------------------------------

 SCF Done:  E(RB2PLYPD3) =  -76.3345662356     A.U. after   10 cycles
 E2(B2PLYPD3) =    -0.9030401031D-01 E(B2PLYPD3) =    -0.76424870245930D+02

 The electronic state is 1-A'.
 Alpha  occ. eigenvalues --  -19.73291  -1.15294  -0.60784  -0.47430  -0.39902
 Alpha virt. eigenvalues --    0.04425   0.10130   0.27579   0.30432   0.30750
 Alpha virt. eigenvalues --    0.35592   0.43732   0.50091   0.56215   0.61975
 Alpha virt. eigenvalues --    0.65864   0.80956   0.93597   0.96107   1.03088

 Mulliken charges:
               1
     1  O   -0.448841
     2  H    0.221264
     3  H    0.227576
 Sum of Mulliken charges =   0.00000

 Dipole moment (field-independent basis, Debye):
    X=              0.0077    Y=             -1.9744    Z=              0.0000  Tot=              1.9744
 Quadrupole moment (field-independent basis, Debye-Ang):
   XX=             -4.3383   YY=             -6.3169   ZZ=             -7.6130
   XY=              0.0399   XZ=              0.0000   YZ=              0.0000

 1\1\GINC-NODE02\SP\RB2PLYPD3-FC\def2QZVP\H2O1\BOITTIER\26-Aug-2020\0\\
 #p B2PLYPD3/Def2QZVP\\h2o\\0,1\O,0,-5.326605,-0.766153,0.916358\H,0,-4
 .368927,-0.714645,0.963368\H,0,-5.609308,0.157144,0.780087\\Version=ES
 64L-G09RevD.01\State=1-A'\HF=-76.3345662\MP2=-76.4248702\RMSD=4.136e-0
 9\PG=CS [SG(H2O1)]\\@

 SILVERMAN'S PARADOX - IF MURPHY'S LAW CAN GO WRONG, IT WILL.

 Normal termination of Gaussian 09 at Wed Aug 26 12:08:52 2020.
