 Gaussian 09, Revision D.01,
 Gaussian 09:  ES64L-G09RevD.01 24-Apr-2013

 --------------------
 #p B2PLYPD3/Def2QZVP
 --------------------

 ---
 h2o
 ---
 Symbolic Z-matrix:
 Charge =  0 Multiplicity = 1

                         Standard orientation:
 ---------------------------------------------------------------------
 Center     Atomic      Atomic             Coordinates (Angstroms)
 Number     Number       Type             X           Y           Z
 ---------------------------------------------------------------------
      1          8           0        0.000000    0.112704    0.000000
      2          1           0        0.760966   -0.469376    0.000000
      3          1           0       -0.760966   -0.432253    0.000000
 ---------------------------------------------------------------------

 SCF Done:  E(RB2PLYPD3) =  -76.3349940988     A.U. after   10 cycles
 E2(B2PLYPD3) =    -0.8955133375D-01 E(B2PLYPD3) =    -0.76424545432527D+02

 The electronic state is 1-A'.
 Alpha  occ. eigenvalues --  -19.72845  -1.16081  -0.62252  -0.47177  -0.40012
 Alpha virt. eigenvalues --    0.04703   0.10275   0.27400   0.30388   0.31409
 Alpha virt. eigenvalues --    0.36033   0.44313   0.50815   0.56051   0.62980
 Alpha virt. eigenvalues --    0.65285   0.81304   0.93923   0.95760   1.05102

 Mulliken charges:
               1
     1  O   -0.438131
     2  H    0.224407
     3  H    0.213724
 Sum of Mulliken charges =   0.00000

 Dipole moment (field-independent basis, Debye):
    X=             -0.0107    Y=             -1.9167    Z=              0.0000  Tot=              1.9167
 Quadrupole moment (field-independent basis, Debye-Ang):
   XX=             -4.2657   YY=             -6.3846   ZZ=             -7.5709
   XY=             -0.0626   XZ=              0.0000   YZ=              0.0000

 1\1\GINC-NODE10\SP\RB2PLYPD3-FC\def2QZVP\H2O1\BOITTIER\26-Aug-2020\0\\
 #p B2PLYPD3/Def2QZVP\\h2o\\0,1\O,0,-5.326605,-0.761925,0.916036\H,0,-4
 .368927,-0.749002,0.939956\H,0,-5.609308,0.123845,0.808625\\Version=ES
 64L-G09RevD.01\State=1-A'\HF=-76.3349941\MP2=-76.4245454\RMSD=4.338e-0
 9\PG=CS [SG(H2O1)]\\@

 IF YOU DON'T HAVE THE LAW - ARGUE THE FACTS.

 Normal termination of Gaussian 09 at Wed Aug 26 12:28:36 2020.
