 Gaussian 09, Revision D.01,
 Gaussian 09:  ES64L-G09RevD.01 24-Apr-2013

 --------------------
 #p B2PLYPD3/Def2QZVP
 --------------------

 ---
 h2o
 ---
 Symbolic Z-matrix:
 Charge =  0 Multiplicity = 1

                         Standard orientation:
 ---------------------------------------------------------------------
 Center     Atomic      Atomic             Coordinates (Angstroms)
 Number     Number       Type             X           Y           Z
 ---------------------------------------------------------------------
      1          8           0        0.000000    0.118063    0.000000
      2          1           0        0.762693   -0.463595    0.000000
      3          1           0       -0.762693   -0.480907    0.000000
 ---------------------------------------------------------------------

 SCF Done:  E(RB2PLYPD3) =  -76.3348229954     A.U. after   10 cycles
 E2(B2PLYPD3) =    -0.9018732754D-01 E(B2PLYPD3) =    -0.76425010322944D+02

 The electronic state is 1-A'.
 Alpha  occ. eigenvalues --  -19.73227  -1.15418  -0.60991  -0.47410  -0.39921
 Alpha virt. eigenvalues --    0.04469   0.10156   0.27553   0.30426   0.30855
 Alpha virt. eigenvalues --    0.35676   0.43815   0.50182   0.56207   0.62099
 Alpha virt. eigenvalues --    0.65778   0.81018   0.93670   0.96048   1.03399

 Mulliken charges:
               1
     1  O   -0.447240
     2  H    0.221338
     3  H    0.225902
 Sum of Mulliken charges =   0.00000

 Dipole moment (field-independent basis, Debye):
    X=              0.0054    Y=             -1.9670    Z=              0.0000  Tot=              1.9670
 Quadrupole moment (field-independent basis, Debye-Ang):
   XX=             -4.3305   YY=             -6.3254   ZZ=             -7.6063
   XY=              0.0285   XZ=              0.0000   YZ=              0.0000

 1\1\GINC-NODE40\SP\RB2PLYPD3-FC\def2QZVP\H2O1\BOITTIER\26-Aug-2020\0\\
 #p B2PLYPD3/Def2QZVP\\h2o\\0,1\O,0,-5.326605,-0.765417,0.917912\H,0,-4
 .368927,-0.720012,0.946514\H,0,-5.609308,0.150735,0.772274\\Version=ES
 64L-G09RevD.01\State=1-A'\HF=-76.334823\MP2=-76.4250103\RMSD=4.079e-09
 \PG=CS [SG(H2O1)]\\@

 If fifty million people say a stupid thing,

 Normal termination of Gaussian 09 at Wed Aug 26 10:36:34 2020.
