 Gaussian 09, Revision D.01,
 Gaussian 09:  ES64L-G09RevD.01 24-Apr-2013

 --------------------
 #p B2PLYPD3/Def2QZVP
 --------------------

 ---
 h2o
 ---
 Symbolic Z-matrix:
 Charge =  0 Multiplicity = 1

                         Standard orientation:
 ---------------------------------------------------------------------
 Center     Atomic      Atomic             Coordinates (Angstroms)
 Number     Number       Type             X           Y           Z
 ---------------------------------------------------------------------
      1          8           0        0.000000    0.119112    0.000000
      2          1           0        0.743646   -0.489642    0.000000
      3          1           0       -0.743646   -0.463251    0.000000
 ---------------------------------------------------------------------

 SCF Done:  E(RB2PLYPD3) =  -76.3349173225     A.U. after   10 cycles
 E2(B2PLYPD3) =    -0.8986326354D-01 E(B2PLYPD3) =    -0.76424780586014D+02

 The electronic state is 1-A'.
 Alpha  occ. eigenvalues --  -19.73116  -1.16117  -0.61166  -0.47928  -0.40066
 Alpha virt. eigenvalues --    0.04557   0.10301   0.27507   0.30391   0.30907
 Alpha virt. eigenvalues --    0.36498   0.44161   0.49962   0.56638   0.61643
 Alpha virt. eigenvalues --    0.65522   0.81391   0.94213   0.95780   1.03869

 Mulliken charges:
               1
     1  O   -0.433984
     2  H    0.220772
     3  H    0.213213
 Sum of Mulliken charges =   0.00000

 Dipole moment (field-independent basis, Debye):
    X=             -0.0088    Y=             -1.9879    Z=              0.0000  Tot=              1.9879
 Quadrupole moment (field-independent basis, Debye-Ang):
   XX=             -4.4366   YY=             -6.2626   ZZ=             -7.5762
   XY=             -0.0419   XZ=              0.0000   YZ=              0.0000

 1\1\GINC-NODE29\SP\RB2PLYPD3-FC\def2QZVP\H2O1\BOITTIER\26-Aug-2020\0\\
 #p B2PLYPD3/Def2QZVP\\h2o\\0,1\O,0,-5.326605,-0.765204,0.923319\H,0,-4
 .368927,-0.687829,0.90193\H,0,-5.609308,0.115129,0.730319\\Version=ES6
 4L-G09RevD.01\State=1-A'\HF=-76.3349173\MP2=-76.4247806\RMSD=4.480e-09
 \PG=CS [SG(H2O1)]\\@

 KNOWLEDGE IS EXPERIMENT'S DAUGHTER.

 Normal termination of Gaussian 09 at Wed Aug 26 10:02:10 2020.
