 Gaussian 09, Revision D.01,
 Gaussian 09:  ES64L-G09RevD.01 24-Apr-2013

 --------------------
 #p B2PLYPD3/Def2QZVP
 --------------------

 ---
 h2o
 ---
 Symbolic Z-matrix:
 Charge =  0 Multiplicity = 1

                         Standard orientation:
 ---------------------------------------------------------------------
 Center     Atomic      Atomic             Coordinates (Angstroms)
 Number     Number       Type             X           Y           Z
 ---------------------------------------------------------------------
      1          8           0        0.000000    0.110889    0.000000
      2          1           0        0.794821   -0.427185    0.000000
      3          1           0       -0.794821   -0.459924    0.000000
 ---------------------------------------------------------------------

 SCF Done:  E(RB2PLYPD3) =  -76.3337657915     A.U. after   10 cycles
 E2(B2PLYPD3) =    -0.9019510065D-01 E(B2PLYPD3) =    -0.76423960892138D+02

 The electronic state is 1-A'.
 Alpha  occ. eigenvalues --  -19.73052  -1.14815  -0.61773  -0.46278  -0.39736
 Alpha virt. eigenvalues --    0.04499   0.10015   0.27478   0.30457   0.31330
 Alpha virt. eigenvalues --    0.34510   0.43659   0.51361   0.55304   0.63797
 Alpha virt. eigenvalues --    0.65795   0.80339   0.93067   0.96358   1.04216

 Mulliken charges:
               1
     1  O   -0.464148
     2  H    0.228025
     3  H    0.236122
 Sum of Mulliken charges =   0.00000

 Dipole moment (field-independent basis, Debye):
    X=              0.0082    Y=             -1.8787    Z=              0.0000  Tot=              1.8787
 Quadrupole moment (field-independent basis, Debye-Ang):
   XX=             -4.0726   YY=             -6.4957   ZZ=             -7.6287
   XY=              0.0586   XZ=              0.0000   YZ=              0.0000

 1\1\GINC-NODE30\SP\RB2PLYPD3-FC\def2QZVP\H2O1\BOITTIER\26-Aug-2020\0\\
 #p B2PLYPD3/Def2QZVP\\h2o\\0,1\O,0,-5.326605,-0.760795,0.914255\H,0,-4
 .368927,-0.815507,0.947782\H,0,-5.609308,0.172267,0.830336\\Version=ES
 64L-G09RevD.01\State=1-A'\HF=-76.3337658\MP2=-76.4239609\RMSD=3.913e-0
 9\PG=CS [SG(H2O1)]\\@

 Happiness is a conscious choice, not an automatic response.

 Normal termination of Gaussian 09 at Wed Aug 26 08:48:36 2020.
