 Gaussian 09, Revision D.01,
 Gaussian 09:  ES64L-G09RevD.01 24-Apr-2013

 --------------------
 #p B2PLYPD3/Def2QZVP
 --------------------

 ---
 h2o
 ---
 Symbolic Z-matrix:
 Charge =  0 Multiplicity = 1

                         Standard orientation:
 ---------------------------------------------------------------------
 Center     Atomic      Atomic             Coordinates (Angstroms)
 Number     Number       Type             X           Y           Z
 ---------------------------------------------------------------------
      1          8           0        0.000000    0.117009    0.000000
      2          1           0        0.748874   -0.485205    0.000000
      3          1           0       -0.748874   -0.450870    0.000000
 ---------------------------------------------------------------------

 SCF Done:  E(RB2PLYPD3) =  -76.3349961776     A.U. after   10 cycles
 E2(B2PLYPD3) =    -0.8974181221D-01 E(B2PLYPD3) =    -0.76424737989791D+02

 The electronic state is 1-A'.
 Alpha  occ. eigenvalues --  -19.73021  -1.16132  -0.61541  -0.47693  -0.40054
 Alpha virt. eigenvalues --    0.04610   0.10299   0.27467   0.30389   0.31070
 Alpha virt. eigenvalues --    0.36386   0.44229   0.50220   0.56454   0.62068
 Alpha virt. eigenvalues --    0.65432   0.81391   0.94106   0.95756   1.04275

 Mulliken charges:
               1
     1  O   -0.434778
     2  H    0.222331
     3  H    0.212446
 Sum of Mulliken charges =   0.00000

 Dipole moment (field-independent basis, Debye):
    X=             -0.0109    Y=             -1.9651    Z=              0.0000  Tot=              1.9651
 Quadrupole moment (field-independent basis, Debye-Ang):
   XX=             -4.3826   YY=             -6.3014   ZZ=             -7.5732
   XY=             -0.0556   XZ=              0.0000   YZ=              0.0000

 1\1\GINC-NODE36\SP\RB2PLYPD3-FC\def2QZVP\H2O1\BOITTIER\26-Aug-2020\0\\
 #p B2PLYPD3/Def2QZVP\\h2o\\0,1\O,0,-5.326605,-0.762841,0.926763\H,0,-4
 .368927,-0.719242,0.860234\H,0,-5.609308,0.108738,0.717651\\Version=ES
 64L-G09RevD.01\State=1-A'\HF=-76.3349962\MP2=-76.424738\RMSD=4.462e-09
 \PG=CS [SG(H2O1)]\\@

 There was a great rattling of the words for the fewness of ideas.

 Normal termination of Gaussian 09 at Wed Aug 26 12:29:11 2020.
