 Gaussian 09, Revision D.01,
 Gaussian 09:  ES64L-G09RevD.01 24-Apr-2013

 --------------------
 #p B2PLYPD3/Def2QZVP
 --------------------

 ---
 h2o
 ---
 Symbolic Z-matrix:
 Charge =  0 Multiplicity = 1

                         Standard orientation:
 ---------------------------------------------------------------------
 Center     Atomic      Atomic             Coordinates (Angstroms)
 Number     Number       Type             X           Y           Z
 ---------------------------------------------------------------------
      1          8           0        0.000000    0.120380    0.000000
      2          1           0        0.748698   -0.481980    0.000000
      3          1           0       -0.748698   -0.481061    0.000000
 ---------------------------------------------------------------------

 SCF Done:  E(RB2PLYPD3) =  -76.3348576580     A.U. after   10 cycles
 E2(B2PLYPD3) =    -0.9012916375D-01 E(B2PLYPD3) =    -0.76424986821770D+02

 The electronic state is 1-A'.
 Alpha  occ. eigenvalues --  -19.73253  -1.15750  -0.60767  -0.47866  -0.40005
 Alpha virt. eigenvalues --    0.04471   0.10230   0.27566   0.30409   0.30741
 Alpha virt. eigenvalues --    0.36177   0.43929   0.49851   0.56578   0.61513
 Alpha virt. eigenvalues --    0.65728   0.81220   0.94037   0.95936   1.03283

 Mulliken charges:
               1
     1  O   -0.439846
     2  H    0.220049
     3  H    0.219797
 Sum of Mulliken charges =   0.00000

 Dipole moment (field-independent basis, Debye):
    X=             -0.0003    Y=             -1.9969    Z=              0.0000  Tot=              1.9969
 Quadrupole moment (field-independent basis, Debye-Ang):
   XX=             -4.4303   YY=             -6.2608   ZZ=             -7.5938
   XY=             -0.0015   XZ=              0.0000   YZ=              0.0000

 1\1\GINC-NODE22\SP\RB2PLYPD3-FC\def2QZVP\H2O1\BOITTIER\26-Aug-2020\0\\
 #p B2PLYPD3/Def2QZVP\\h2o\\0,1\O,0,-5.326605,-0.766093,0.923256\H,0,-4
 .368927,-0.6886,0.90798\H,0,-5.609308,0.130136,0.725438\\Version=ES64L
 -G09RevD.01\State=1-A'\HF=-76.3348577\MP2=-76.4249868\RMSD=4.281e-09\P
 G=CS [SG(H2O1)]\\@

 DESK:  A WASTEBASKET WITH DRAWERS.

 Normal termination of Gaussian 09 at Wed Aug 26 12:39:02 2020.
