 Gaussian 09, Revision D.01,
 Gaussian 09:  ES64L-G09RevD.01 24-Apr-2013

 --------------------
 #p B2PLYPD3/Def2QZVP
 --------------------

 ---
 h2o
 ---
 Symbolic Z-matrix:
 Charge =  0 Multiplicity = 1

                         Standard orientation:
 ---------------------------------------------------------------------
 Center     Atomic      Atomic             Coordinates (Angstroms)
 Number     Number       Type             X           Y           Z
 ---------------------------------------------------------------------
      1          8           0        0.000000    0.119061    0.000000
      2          1           0        0.746267   -0.485839    0.000000
      3          1           0       -0.746267   -0.466647    0.000000
 ---------------------------------------------------------------------

 SCF Done:  E(RB2PLYPD3) =  -76.3349976331     A.U. after   10 cycles
 E2(B2PLYPD3) =    -0.8991724131D-01 E(B2PLYPD3) =    -0.76424914874359D+02

 The electronic state is 1-A'.
 Alpha  occ. eigenvalues --  -19.73138  -1.16008  -0.61122  -0.47862  -0.40045
 Alpha virt. eigenvalues --    0.04544   0.10280   0.27517   0.30396   0.30895
 Alpha virt. eigenvalues --    0.36379   0.44102   0.49980   0.56583   0.61689
 Alpha virt. eigenvalues --    0.65567   0.81341   0.94145   0.95819   1.03788

 Mulliken charges:
               1
     1  O   -0.436004
     2  H    0.220715
     3  H    0.215289
 Sum of Mulliken charges =   0.00000

 Dipole moment (field-independent basis, Debye):
    X=             -0.0063    Y=             -1.9860    Z=              0.0000  Tot=              1.9860
 Quadrupole moment (field-independent basis, Debye-Ang):
   XX=             -4.4235   YY=             -6.2703   ZZ=             -7.5809
   XY=             -0.0306   XZ=              0.0000   YZ=              0.0000

 1\1\GINC-NODE24\SP\RB2PLYPD3-FC\def2QZVP\H2O1\BOITTIER\26-Aug-2020\0\\
 #p B2PLYPD3/Def2QZVP\\h2o\\0,1\O,0,-5.326605,-0.765216,0.923108\H,0,-4
 .368927,-0.692444,0.903731\H,0,-5.609308,0.119946,0.731965\\Version=ES
 64L-G09RevD.01\State=1-A'\HF=-76.3349976\MP2=-76.4249149\RMSD=4.363e-0
 9\PG=CS [SG(H2O1)]\\@

 THOSE WHO ARE UNABLE TO LEARN FROM PAST MEETINGS

 Normal termination of Gaussian 09 at Wed Aug 26 10:08:51 2020.
