 Gaussian 09, Revision D.01,
 Gaussian 09:  ES64L-G09RevD.01 24-Apr-2013

 --------------------
 #p B2PLYPD3/Def2QZVP
 --------------------

 ---
 h2o
 ---
 Symbolic Z-matrix:
 Charge =  0 Multiplicity = 1

                         Standard orientation:
 ---------------------------------------------------------------------
 Center     Atomic      Atomic             Coordinates (Angstroms)
 Number     Number       Type             X           Y           Z
 ---------------------------------------------------------------------
      1          8           0        0.000000    0.122448    0.000000
      2          1           0        0.709081   -0.541780    0.000000
      3          1           0       -0.709081   -0.437805    0.000000
 ---------------------------------------------------------------------

 SCF Done:  E(RB2PLYPD3) =  -76.3308527331     A.U. after   10 cycles
 E2(B2PLYPD3) =    -0.8951288180D-01 E(B2PLYPD3) =    -0.76420365614857D+02

 The electronic state is 1-A'.
 Alpha  occ. eigenvalues --  -19.72996  -1.17293  -0.61045  -0.48904  -0.40300
 Alpha virt. eigenvalues --    0.04568   0.10527   0.27434   0.30339   0.30688
 Alpha virt. eigenvalues --    0.37728   0.44801   0.49545   0.57377   0.60675
 Alpha virt. eigenvalues --    0.65127   0.81721   0.94734   0.95526   1.04013

 Mulliken charges:
               1
     1  O   -0.410213
     2  H    0.222064
     3  H    0.188149
 Sum of Mulliken charges =   0.00000

 Dipole moment (field-independent basis, Debye):
    X=             -0.0389    Y=             -2.0372    Z=              0.0000  Tot=              2.0376
 Quadrupole moment (field-independent basis, Debye-Ang):
   XX=             -4.6423   YY=             -6.1251   ZZ=             -7.5339
   XY=             -0.1529   XZ=              0.0000   YZ=              0.0000

 1\1\GINC-NODE34\SP\RB2PLYPD3-FC\def2QZVP\H2O1\BOITTIER\26-Aug-2020\0\\
 #p B2PLYPD3/Def2QZVP\\h2o\\0,1\O,0,-5.326605,-0.766178,0.928273\H,0,-4
 .368927,-0.613868,0.86787\H,0,-5.609308,0.056761,0.684286\\Version=ES6
 4L-G09RevD.01\State=1-A'\HF=-76.3308527\MP2=-76.4203656\RMSD=6.357e-09
 \PG=CS [SG(H2O1)]\\@

 EVANS BOLDLY PUT 50 ATM. OF ETHYLENE IN A CELL WITH 25 ATM. OF OXYGEN.

 Normal termination of Gaussian 09 at Wed Aug 26 09:10:25 2020.
