 Gaussian 09, Revision D.01,
 Gaussian 09:  ES64L-G09RevD.01 24-Apr-2013

 --------------------
 #p B2PLYPD3/Def2QZVP
 --------------------

 ---
 h2o
 ---
 Symbolic Z-matrix:
 Charge =  0 Multiplicity = 1

                         Standard orientation:
 ---------------------------------------------------------------------
 Center     Atomic      Atomic             Coordinates (Angstroms)
 Number     Number       Type             X           Y           Z
 ---------------------------------------------------------------------
      1          8           0        0.000000    0.120414    0.000000
      2          1           0        0.746170   -0.485993    0.000000
      3          1           0       -0.746170   -0.477321    0.000000
 ---------------------------------------------------------------------

 SCF Done:  E(RB2PLYPD3) =  -76.3348711184     A.U. after   10 cycles
 E2(B2PLYPD3) =    -0.9007481367D-01 E(B2PLYPD3) =    -0.76424945932043D+02

 The electronic state is 1-A'.
 Alpha  occ. eigenvalues --  -19.73232  -1.15854  -0.60811  -0.47930  -0.40025
 Alpha virt. eigenvalues --    0.04486   0.10251   0.27556   0.30404   0.30759
 Alpha virt. eigenvalues --    0.36291   0.43984   0.49837   0.56632   0.61470
 Alpha virt. eigenvalues --    0.65685   0.81270   0.94115   0.95896   1.03379

 Mulliken charges:
               1
     1  O   -0.437983
     2  H    0.220192
     3  H    0.217791
 Sum of Mulliken charges =   0.00000

 Dipole moment (field-independent basis, Debye):
    X=             -0.0029    Y=             -1.9986    Z=              0.0000  Tot=              1.9986
 Quadrupole moment (field-independent basis, Debye-Ang):
   XX=             -4.4428   YY=             -6.2537   ZZ=             -7.5892
   XY=             -0.0137   XZ=              0.0000   YZ=              0.0000

 1\1\GINC-NODE11\SP\RB2PLYPD3-FC\def2QZVP\H2O1\BOITTIER\26-Aug-2020\0\\
 #p B2PLYPD3/Def2QZVP\\h2o\\0,1\O,0,-5.326605,-0.766441,0.921642\H,0,-4
 .368927,-0.680708,0.922866\H,0,-5.609308,0.127813,0.736047\\Version=ES
 64L-G09RevD.01\State=1-A'\HF=-76.3348711\MP2=-76.4249459\RMSD=4.336e-0
 9\PG=CS [SG(H2O1)]\\@

 In the beginning the Universe was created.

 Normal termination of Gaussian 09 at Wed Aug 26 08:29:07 2020.
