 Gaussian 09, Revision D.01,
 Gaussian 09:  ES64L-G09RevD.01 24-Apr-2013

 --------------------
 #p B2PLYPD3/Def2QZVP
 --------------------

 ---
 h2o
 ---
 Symbolic Z-matrix:
 Charge =  0 Multiplicity = 1

                         Standard orientation:
 ---------------------------------------------------------------------
 Center     Atomic      Atomic             Coordinates (Angstroms)
 Number     Number       Type             X           Y           Z
 ---------------------------------------------------------------------
      1          8           0        0.000000    0.116904    0.000000
      2          1           0        0.732043   -0.506865    0.000000
      3          1           0       -0.732043   -0.428366    0.000000
 ---------------------------------------------------------------------

 SCF Done:  E(RB2PLYPD3) =  -76.3333256367     A.U. after   10 cycles
 E2(B2PLYPD3) =    -0.8935208830D-01 E(B2PLYPD3) =    -0.76422677725019D+02

 The electronic state is 1-A'.
 Alpha  occ. eigenvalues --  -19.72838  -1.16913  -0.61933  -0.48082  -0.40199
 Alpha virt. eigenvalues --    0.04702   0.10442   0.27381   0.30351   0.31128
 Alpha virt. eigenvalues --    0.37160   0.44691   0.50145   0.56762   0.61852
 Alpha virt. eigenvalues --    0.65101   0.81713   0.94405   0.95519   1.04736

 Mulliken charges:
               1
     1  O   -0.419672
     2  H    0.222215
     3  H    0.197457
 Sum of Mulliken charges =   0.00000

 Dipole moment (field-independent basis, Debye):
    X=             -0.0259    Y=             -1.9732    Z=              0.0000  Tot=              1.9734
 Quadrupole moment (field-independent basis, Debye-Ang):
   XX=             -4.4603   YY=             -6.2548   ZZ=             -7.5404
   XY=             -0.1237   XZ=              0.0000   YZ=              0.0000

 1\1\GINC-NODE37\SP\RB2PLYPD3-FC\def2QZVP\H2O1\BOITTIER\26-Aug-2020\0\\
 #p B2PLYPD3/Def2QZVP\\h2o\\0,1\O,0,-5.326605,-0.76352,0.923933\H,0,-4.
 368927,-0.683346,0.886515\H,0,-5.609308,0.083716,0.735582\\Version=ES6
 4L-G09RevD.01\State=1-A'\HF=-76.3333256\MP2=-76.4226777\RMSD=5.621e-09
 \PG=CS [SG(H2O1)]\\@

 A COMPLEXITY IS MERELY A DISARRANGEMENT OF SIMPLICITIES.

 Normal termination of Gaussian 09 at Wed Aug 26 11:47:36 2020.
