 Gaussian 09, Revision D.01,
 Gaussian 09:  ES64L-G09RevD.01 24-Apr-2013

 --------------------
 #p B2PLYPD3/Def2QZVP
 --------------------

 ---
 h2o
 ---
 Symbolic Z-matrix:
 Charge =  0 Multiplicity = 1

                         Standard orientation:
 ---------------------------------------------------------------------
 Center     Atomic      Atomic             Coordinates (Angstroms)
 Number     Number       Type             X           Y           Z
 ---------------------------------------------------------------------
      1          8           0        0.000000    0.114870    0.000000
      2          1           0        0.777349   -0.444514    0.000000
      3          1           0       -0.777349   -0.474443    0.000000
 ---------------------------------------------------------------------

 SCF Done:  E(RB2PLYPD3) =  -76.3345153931     A.U. after   10 cycles
 E2(B2PLYPD3) =    -0.9018362445D-01 E(B2PLYPD3) =    -0.76424699017561D+02

 The electronic state is 1-A'.
 Alpha  occ. eigenvalues --  -19.73150  -1.15145  -0.61357  -0.46896  -0.39839
 Alpha virt. eigenvalues --    0.04486   0.10092   0.27520   0.30440   0.31055
 Alpha virt. eigenvalues --    0.35162   0.43749   0.50673   0.55794   0.62854
 Alpha virt. eigenvalues --    0.65773   0.80762   0.93353   0.96161   1.03748

 Mulliken charges:
               1
     1  O   -0.454564
     2  H    0.223448
     3  H    0.231116
 Sum of Mulliken charges =   0.00000

 Dipole moment (field-independent basis, Debye):
    X=              0.0085    Y=             -1.9279    Z=              0.0000  Tot=              1.9280
 Quadrupole moment (field-independent basis, Debye-Ang):
   XX=             -4.2144   YY=             -6.4021   ZZ=             -7.6161
   XY=              0.0512   XZ=              0.0000   YZ=              0.0000

 1\1\GINC-NODE08\SP\RB2PLYPD3-FC\def2QZVP\H2O1\BOITTIER\26-Aug-2020\0\\
 #p B2PLYPD3/Def2QZVP\\h2o\\0,1\O,0,-5.326605,-0.762952,0.919827\H,0,-4
 .368927,-0.767695,0.91649\H,0,-5.609308,0.158973,0.772539\\Version=ES6
 4L-G09RevD.01\State=1-A'\HF=-76.3345154\MP2=-76.424699\RMSD=4.008e-09\
 PG=CS [SG(H2O1)]\\@

 WHEN YOU REACH FOR THE STARS, YOU MAY NOT QUITE GET ONE,

 Normal termination of Gaussian 09 at Wed Aug 26 08:31:40 2020.
