 Gaussian 09, Revision D.01,
 Gaussian 09:  ES64L-G09RevD.01 24-Apr-2013

 --------------------
 #p B2PLYPD3/Def2QZVP
 --------------------

 ---
 h2o
 ---
 Symbolic Z-matrix:
 Charge =  0 Multiplicity = 1

                         Standard orientation:
 ---------------------------------------------------------------------
 Center     Atomic      Atomic             Coordinates (Angstroms)
 Number     Number       Type             X           Y           Z
 ---------------------------------------------------------------------
      1          8           0        0.000000    0.121207    0.000000
      2          1           0        0.739599   -0.495423    0.000000
      3          1           0       -0.739599   -0.474232    0.000000
 ---------------------------------------------------------------------

 SCF Done:  E(RB2PLYPD3) =  -76.3346913748     A.U. after   10 cycles
 E2(B2PLYPD3) =    -0.9001987495D-01 E(B2PLYPD3) =    -0.76424711249766D+02

 The electronic state is 1-A'.
 Alpha  occ. eigenvalues --  -19.73223  -1.16046  -0.60761  -0.48129  -0.40068
 Alpha virt. eigenvalues --    0.04493   0.10292   0.27552   0.30395   0.30728
 Alpha virt. eigenvalues --    0.36535   0.44066   0.49730   0.56794   0.61247
 Alpha virt. eigenvalues --    0.65632   0.81354   0.94287   0.95835   1.03403

 Mulliken charges:
               1
     1  O   -0.434143
     2  H    0.220069
     3  H    0.214074
 Sum of Mulliken charges =   0.00000

 Dipole moment (field-independent basis, Debye):
    X=             -0.0073    Y=             -2.0097    Z=              0.0000  Tot=              2.0097
 Quadrupole moment (field-independent basis, Debye-Ang):
   XX=             -4.4851   YY=             -6.2266   ZZ=             -7.5818
   XY=             -0.0330   XZ=              0.0000   YZ=              0.0000

 1\1\GINC-NODE36\SP\RB2PLYPD3-FC\def2QZVP\H2O1\BOITTIER\26-Aug-2020\0\\
 #p B2PLYPD3/Def2QZVP\\h2o\\0,1\O,0,-5.326605,-0.766264,0.924949\H,0,-4
 .368927,-0.670246,0.895407\H,0,-5.609308,0.114509,0.710771\\Version=ES
 64L-G09RevD.01\State=1-A'\HF=-76.3346914\MP2=-76.4247112\RMSD=4.543e-0
 9\PG=CS [SG(H2O1)]\\@

 IT IS THE BEHAVIOR AND DISTRIBUTION OF THE ELECTRONS

 Normal termination of Gaussian 09 at Wed Aug 26 11:54:35 2020.
