 Gaussian 09, Revision D.01,
 Gaussian 09:  ES64L-G09RevD.01 24-Apr-2013

 --------------------
 #p B2PLYPD3/Def2QZVP
 --------------------

 ---
 h2o
 ---
 Symbolic Z-matrix:
 Charge =  0 Multiplicity = 1

                         Standard orientation:
 ---------------------------------------------------------------------
 Center     Atomic      Atomic             Coordinates (Angstroms)
 Number     Number       Type             X           Y           Z
 ---------------------------------------------------------------------
      1          8           0        0.000000    0.114653    0.000000
      2          1           0        0.768931   -0.456370    0.000000
      3          1           0       -0.768931   -0.460851    0.000000
 ---------------------------------------------------------------------

 SCF Done:  E(RB2PLYPD3) =  -76.3350943403     A.U. after   10 cycles
 E2(B2PLYPD3) =    -0.8995235278D-01 E(B2PLYPD3) =    -0.76425046693116D+02

 The electronic state is 1-A'.
 Alpha  occ. eigenvalues --  -19.73056  -1.15521  -0.61612  -0.47091  -0.39915
 Alpha virt. eigenvalues --    0.04568   0.10171   0.27485   0.30419   0.31173
 Alpha virt. eigenvalues --    0.35561   0.43952   0.50632   0.55965   0.62761
 Alpha virt. eigenvalues --    0.65601   0.81014   0.93645   0.95990   1.04255

 Mulliken charges:
               1
     1  O   -0.447733
     2  H    0.223265
     3  H    0.224468
 Sum of Mulliken charges =   0.00000

 Dipole moment (field-independent basis, Debye):
    X=              0.0013    Y=             -1.9310    Z=              0.0000  Tot=              1.9310
 Quadrupole moment (field-independent basis, Debye-Ang):
   XX=             -4.2532   YY=             -6.3833   ZZ=             -7.5981
   XY=              0.0076   XZ=              0.0000   YZ=              0.0000

 1\1\GINC-NODE13\SP\RB2PLYPD3-FC\def2QZVP\H2O1\BOITTIER\26-Aug-2020\0\\
 #p B2PLYPD3/Def2QZVP\\h2o\\0,1\O,0,-5.326605,-0.762995,0.918523\H,0,-4
 .368927,-0.752801,0.926936\H,0,-5.609308,0.144763,0.782459\\Version=ES
 64L-G09RevD.01\State=1-A'\HF=-76.3350943\MP2=-76.4250467\RMSD=3.893e-0
 9\PG=CS [SG(H2O1)]\\@

 NECESSARY EVIL: ONE WE LIKE TOO MUCH TO RELINQUISH.

 Normal termination of Gaussian 09 at Wed Aug 26 08:53:17 2020.
