 Gaussian 09, Revision D.01,
 Gaussian 09:  ES64L-G09RevD.01 24-Apr-2013

 --------------------
 #p B2PLYPD3/Def2QZVP
 --------------------

 ---
 h2o
 ---
 Symbolic Z-matrix:
 Charge =  0 Multiplicity = 1

                         Standard orientation:
 ---------------------------------------------------------------------
 Center     Atomic      Atomic             Coordinates (Angstroms)
 Number     Number       Type             X           Y           Z
 ---------------------------------------------------------------------
      1          8           0        0.000000    0.121741    0.000000
      2          1           0        0.721793   -0.522276    0.000000
      3          1           0       -0.721793   -0.451651    0.000000
 ---------------------------------------------------------------------

 SCF Done:  E(RB2PLYPD3) =  -76.3331485584     A.U. after   10 cycles
 E2(B2PLYPD3) =    -0.8969316997D-01 E(B2PLYPD3) =    -0.76422841728393D+02

 The electronic state is 1-A'.
 Alpha  occ. eigenvalues --  -19.73081  -1.16782  -0.60981  -0.48579  -0.40207
 Alpha virt. eigenvalues --    0.04557   0.10434   0.27483   0.30361   0.30747
 Alpha virt. eigenvalues --    0.37278   0.44483   0.49629   0.57147   0.60927
 Alpha virt. eigenvalues --    0.65330   0.81607   0.94636   0.95615   1.03852

 Mulliken charges:
               1
     1  O   -0.420398
     2  H    0.221082
     3  H    0.199316
 Sum of Mulliken charges =   0.00000

 Dipole moment (field-independent basis, Debye):
    X=             -0.0256    Y=             -2.0243    Z=              0.0000  Tot=              2.0244
 Quadrupole moment (field-independent basis, Debye-Ang):
   XX=             -4.5751   YY=             -6.1707   ZZ=             -7.5523
   XY=             -0.1065   XZ=              0.0000   YZ=              0.0000

 1\1\GINC-NODE31\SP\RB2PLYPD3-FC\def2QZVP\H2O1\BOITTIER\26-Aug-2020\0\\
 #p B2PLYPD3/Def2QZVP\\h2o\\0,1\O,0,-5.326605,-0.76608,0.926981\H,0,-4.
 368927,-0.638893,0.877794\H,0,-5.609308,0.080217,0.695414\\Version=ES6
 4L-G09RevD.01\State=1-A'\HF=-76.3331486\MP2=-76.4228417\RMSD=5.590e-09
 \PG=CS [SG(H2O1)]\\@

 The hours that make us happy make us wise.

 Normal termination of Gaussian 09 at Wed Aug 26 08:40:05 2020.
