 Gaussian 09, Revision D.01,
 Gaussian 09:  ES64L-G09RevD.01 24-Apr-2013

 --------------------
 #p B2PLYPD3/Def2QZVP
 --------------------

 ---
 h2o
 ---
 Symbolic Z-matrix:
 Charge =  0 Multiplicity = 1

                         Standard orientation:
 ---------------------------------------------------------------------
 Center     Atomic      Atomic             Coordinates (Angstroms)
 Number     Number       Type             X           Y           Z
 ---------------------------------------------------------------------
      1          8           0        0.000000    0.114084    0.000000
      2          1           0        0.782907   -0.437917    0.000000
      3          1           0       -0.782907   -0.474758    0.000000
 ---------------------------------------------------------------------

 SCF Done:  E(RB2PLYPD3) =  -76.3341975887     A.U. after   10 cycles
 E2(B2PLYPD3) =    -0.9023600586D-01 E(B2PLYPD3) =    -0.76424433594551D+02

 The electronic state is 1-A'.
 Alpha  occ. eigenvalues --  -19.73150  -1.14994  -0.61391  -0.46722  -0.39801
 Alpha virt. eigenvalues --    0.04470   0.10059   0.27518   0.30448   0.31079
 Alpha virt. eigenvalues --    0.34942   0.43688   0.50821   0.55652   0.63071
 Alpha virt. eigenvalues --    0.65812   0.80624   0.93214   0.96234   1.03718

 Mulliken charges:
               1
     1  O   -0.457978
     2  H    0.224351
     3  H    0.233627
 Sum of Mulliken charges =   0.00000

 Dipole moment (field-independent basis, Debye):
    X=              0.0102    Y=             -1.9170    Z=              0.0000  Tot=              1.9170
 Quadrupole moment (field-independent basis, Debye-Ang):
   XX=             -4.1760   YY=             -6.4258   ZZ=             -7.6227
   XY=              0.0638   XZ=              0.0000   YZ=              0.0000

 1\1\GINC-NODE02\SP\RB2PLYPD3-FC\def2QZVP\H2O1\BOITTIER\26-Aug-2020\0\\
 #p B2PLYPD3/Def2QZVP\\h2o\\0,1\O,0,-5.326605,-0.762724,0.917599\H,0,-4
 .368927,-0.77912,0.932874\H,0,-5.609308,0.166746,0.791727\\Version=ES6
 4L-G09RevD.01\State=1-A'\HF=-76.3341976\MP2=-76.4244336\RMSD=4.062e-09
 \PG=CS [SG(H2O1)]\\@

 THE 2ND LAW OF THERMODYNAMICS HAS THE SAME

 Normal termination of Gaussian 09 at Wed Aug 26 08:30:35 2020.
