 Gaussian 09, Revision D.01,
 Gaussian 09:  ES64L-G09RevD.01 24-Apr-2013

 --------------------
 #p B2PLYPD3/Def2QZVP
 --------------------

 ---
 h2o
 ---
 Symbolic Z-matrix:
 Charge =  0 Multiplicity = 1

                         Standard orientation:
 ---------------------------------------------------------------------
 Center     Atomic      Atomic             Coordinates (Angstroms)
 Number     Number       Type             X           Y           Z
 ---------------------------------------------------------------------
      1          8           0        0.000000    0.113542    0.000000
      2          1           0        0.747434   -0.486419    0.000000
      3          1           0       -0.747434   -0.421919    0.000000
 ---------------------------------------------------------------------

 SCF Done:  E(RB2PLYPD3) =  -76.3341926488     A.U. after   10 cycles
 E2(B2PLYPD3) =    -0.8932718258D-01 E(B2PLYPD3) =    -0.76423519831380D+02

 The electronic state is 1-A'.
 Alpha  occ. eigenvalues --  -19.72763  -1.16601  -0.62384  -0.47538  -0.40118
 Alpha virt. eigenvalues --    0.04752   0.10373   0.27360   0.30363   0.31376
 Alpha virt. eigenvalues --    0.36635   0.44592   0.50617   0.56339   0.62640
 Alpha virt. eigenvalues --    0.65100   0.81584   0.94170   0.95577   1.05186

 Mulliken charges:
               1
     1  O   -0.427282
     2  H    0.223495
     3  H    0.203788
 Sum of Mulliken charges =   0.00000

 Dipole moment (field-independent basis, Debye):
    X=             -0.0195    Y=             -1.9324    Z=              0.0000  Tot=              1.9325
 Quadrupole moment (field-independent basis, Debye-Ang):
   XX=             -4.3421   YY=             -6.3368   ZZ=             -7.5493
   XY=             -0.1061   XZ=              0.0000   YZ=              0.0000

 1\1\GINC-NODE23\SP\RB2PLYPD3-FC\def2QZVP\H2O1\BOITTIER\26-Aug-2020\0\\
 #p B2PLYPD3/Def2QZVP\\h2o\\0,1\O,0,-5.326605,-0.762131,0.919102\H,0,-4
 .368927,-0.723945,0.916635\H,0,-5.609308,0.102085,0.782772\\Version=ES
 64L-G09RevD.01\State=1-A'\HF=-76.3341926\MP2=-76.4235198\RMSD=5.115e-0
 9\PG=CS [SG(H2O1)]\\@

 AN AIRPLANE IS A COLLECTION OF SPARE PARTS

 Normal termination of Gaussian 09 at Wed Aug 26 08:32:39 2020.
