 Gaussian 09, Revision D.01,
 Gaussian 09:  ES64L-G09RevD.01 24-Apr-2013

 --------------------
 #p B2PLYPD3/Def2QZVP
 --------------------

 ---
 h2o
 ---
 Symbolic Z-matrix:
 Charge =  0 Multiplicity = 1

                         Standard orientation:
 ---------------------------------------------------------------------
 Center     Atomic      Atomic             Coordinates (Angstroms)
 Number     Number       Type             X           Y           Z
 ---------------------------------------------------------------------
      1          8           0        0.000000    0.114740    0.000000
      2          1           0        0.762960   -0.466273    0.000000
      3          1           0       -0.762960   -0.451646    0.000000
 ---------------------------------------------------------------------

 SCF Done:  E(RB2PLYPD3) =  -76.3352101515     A.U. after   10 cycles
 E2(B2PLYPD3) =    -0.8981838179D-01 E(B2PLYPD3) =    -0.76425028533246D+02

 The electronic state is 1-A'.
 Alpha  occ. eigenvalues --  -19.73004  -1.15769  -0.61737  -0.47239  -0.39965
 Alpha virt. eigenvalues --    0.04609   0.10221   0.27464   0.30406   0.31209
 Alpha virt. eigenvalues --    0.35841   0.44085   0.50577   0.56090   0.62657
 Alpha virt. eigenvalues --    0.65497   0.81168   0.93812   0.95884   1.04468

 Mulliken charges:
               1
     1  O   -0.442988
     2  H    0.223517
     3  H    0.219471
 Sum of Mulliken charges =   0.00000

 Dipole moment (field-independent basis, Debye):
    X=             -0.0043    Y=             -1.9353    Z=              0.0000  Tot=              1.9353
 Quadrupole moment (field-independent basis, Debye-Ang):
   XX=             -4.2836   YY=             -6.3664   ZZ=             -7.5868
   XY=             -0.0245   XZ=              0.0000   YZ=              0.0000

 1\1\GINC-NODE18\SP\RB2PLYPD3-FC\def2QZVP\H2O1\BOITTIER\26-Aug-2020\0\\
 #p B2PLYPD3/Def2QZVP\\h2o\\0,1\O,0,-5.326605,-0.761934,0.924253\H,0,-4
 .368927,-0.752062,0.874858\H,0,-5.609308,0.127043,0.74342\\Version=ES6
 4L-G09RevD.01\State=1-A'\HF=-76.3352102\MP2=-76.4250285\RMSD=4.022e-09
 \PG=CS [SG(H2O1)]\\@

 THE MOST SERIOUS THREAT TO THE SURVIVAL OF MANKIND IS NOT NOW

 Normal termination of Gaussian 09 at Wed Aug 26 12:31:13 2020.
