 Gaussian 09, Revision D.01,
 Gaussian 09:  ES64L-G09RevD.01 24-Apr-2013

 --------------------
 #p B2PLYPD3/Def2QZVP
 --------------------

 ---
 h2o
 ---
 Symbolic Z-matrix:
 Charge =  0 Multiplicity = 1

                         Standard orientation:
 ---------------------------------------------------------------------
 Center     Atomic      Atomic             Coordinates (Angstroms)
 Number     Number       Type             X           Y           Z
 ---------------------------------------------------------------------
      1          8           0        0.000000    0.125632    0.000000
      2          1           0        0.724351   -0.520254    0.000000
      3          1           0       -0.724351   -0.484800    0.000000
 ---------------------------------------------------------------------

 SCF Done:  E(RB2PLYPD3) =  -76.3335187680     A.U. after   10 cycles
 E2(B2PLYPD3) =    -0.9023009588D-01 E(B2PLYPD3) =    -0.76423748863892D+02

 The electronic state is 1-A'.
 Alpha  occ. eigenvalues --  -19.73388  -1.16170  -0.60014  -0.48708  -0.40123
 Alpha virt. eigenvalues --    0.04385   0.10324   0.27626   0.30387   0.30390
 Alpha virt. eigenvalues --    0.36829   0.44018   0.49297   0.57249   0.60348
 Alpha virt. eigenvalues --    0.65726   0.81348   0.94646   0.95862   1.02731

 Mulliken charges:
               1
     1  O   -0.429607
     2  H    0.219848
     3  H    0.209759
 Sum of Mulliken charges =   0.00000

 Dipole moment (field-independent basis, Debye):
    X=             -0.0135    Y=             -2.0586    Z=              0.0000  Tot=              2.0587
 Quadrupole moment (field-independent basis, Debye-Ang):
   XX=             -4.6189   YY=             -6.1320   ZZ=             -7.5826
   XY=             -0.0525   XZ=              0.0000   YZ=              0.0000

 1\1\GINC-NODE33\SP\RB2PLYPD3-FC\def2QZVP\H2O1\BOITTIER\26-Aug-2020\0\\
 #p B2PLYPD3/Def2QZVP\\h2o\\0,1\O,0,-5.326605,-0.767692,0.930473\H,0,-4
 .368927,-0.627191,0.860011\H,0,-5.609308,0.094312,0.657822\\Version=ES
 64L-G09RevD.01\State=1-A'\HF=-76.3335188\MP2=-76.4237489\RMSD=5.042e-0
 9\PG=CS [SG(H2O1)]\\@

 IF I AM NOT FOR MYSELF, WHO WILL BE?

 Normal termination of Gaussian 09 at Wed Aug 26 09:14:37 2020.
