 Gaussian 09, Revision D.01,
 Gaussian 09:  ES64L-G09RevD.01 24-Apr-2013

 --------------------
 #p B2PLYPD3/Def2QZVP
 --------------------

 ---
 h2o
 ---
 Symbolic Z-matrix:
 Charge =  0 Multiplicity = 1

                         Standard orientation:
 ---------------------------------------------------------------------
 Center     Atomic      Atomic             Coordinates (Angstroms)
 Number     Number       Type             X           Y           Z
 ---------------------------------------------------------------------
      1          8           0        0.000000    0.116765    0.000000
      2          1           0        0.758552   -0.469543    0.000000
      3          1           0       -0.758552   -0.464575    0.000000
 ---------------------------------------------------------------------

 SCF Done:  E(RB2PLYPD3) =  -76.3351806567     A.U. after   10 cycles
 E2(B2PLYPD3) =    -0.8993952636D-01 E(B2PLYPD3) =    -0.76425120183068D+02

 The electronic state is 1-A'.
 Alpha  occ. eigenvalues --  -19.73100  -1.15736  -0.61379  -0.47449  -0.39974
 Alpha virt. eigenvalues --    0.04557   0.10220   0.27502   0.30409   0.31037
 Alpha virt. eigenvalues --    0.35943   0.44015   0.50305   0.56252   0.62250
 Alpha virt. eigenvalues --    0.65591   0.81185   0.93864   0.95905   1.04012

 Mulliken charges:
               1
     1  O   -0.442332
     2  H    0.221849
     3  H    0.220484
 Sum of Mulliken charges =   0.00000

 Dipole moment (field-independent basis, Debye):
    X=             -0.0015    Y=             -1.9572    Z=              0.0000  Tot=              1.9572
 Quadrupole moment (field-independent basis, Debye-Ang):
   XX=             -4.3327   YY=             -6.3306   ZZ=             -7.5904
   XY=             -0.0082   XZ=              0.0000   YZ=              0.0000

 1\1\GINC-NODE33\SP\RB2PLYPD3-FC\def2QZVP\H2O1\BOITTIER\26-Aug-2020\0\\
 #p B2PLYPD3/Def2QZVP\\h2o\\0,1\O,0,-5.326605,-0.76441,0.918811\H,0,-4.
 368927,-0.721905,0.933129\H,0,-5.609308,0.136515,0.771263\\Version=ES6
 4L-G09RevD.01\State=1-A'\HF=-76.3351807\MP2=-76.4251202\RMSD=4.065e-09
 \PG=CS [SG(H2O1)]\\@

 IF AT FIRST YOU DON'T SUCCEED, TRY, TRY AGAIN.

 Normal termination of Gaussian 09 at Wed Aug 26 10:40:17 2020.
