 Gaussian 09, Revision D.01,
 Gaussian 09:  ES64L-G09RevD.01 24-Apr-2013

 --------------------
 #p B2PLYPD3/Def2QZVP
 --------------------

 ---
 h2o
 ---
 Symbolic Z-matrix:
 Charge =  0 Multiplicity = 1

                         Standard orientation:
 ---------------------------------------------------------------------
 Center     Atomic      Atomic             Coordinates (Angstroms)
 Number     Number       Type             X           Y           Z
 ---------------------------------------------------------------------
      1          8           0        0.000000    0.112216    0.000000
      2          1           0        0.725270   -0.516852    0.000000
      3          1           0       -0.725270   -0.380874    0.000000
 ---------------------------------------------------------------------

 SCF Done:  E(RB2PLYPD3) =  -76.3285938172     A.U. after   10 cycles
 E2(B2PLYPD3) =    -0.8870443953D-01 E(B2PLYPD3) =    -0.76417298256688D+02

 The electronic state is 1-A'.
 Alpha  occ. eigenvalues --  -19.72421  -1.17832  -0.63216  -0.47945  -0.40332
 Alpha virt. eigenvalues --    0.04888   0.10568   0.27193   0.30304   0.31442
 Alpha virt. eigenvalues --    0.37632   0.45390   0.50654   0.56639   0.62582
 Alpha virt. eigenvalues --    0.64573   0.82039   0.94235   0.95369   1.05540

 Mulliken charges:
               1
     1  O   -0.400987
     2  H    0.224376
     3  H    0.176611
 Sum of Mulliken charges =   0.00000

 Dipole moment (field-independent basis, Debye):
    X=             -0.0424    Y=             -1.9308    Z=              0.0000  Tot=              1.9313
 Quadrupole moment (field-independent basis, Debye-Ang):
   XX=             -4.4272   YY=             -6.2827   ZZ=             -7.4988
   XY=             -0.2176   XZ=              0.0000   YZ=              0.0000

 1\1\GINC-NODE11\SP\RB2PLYPD3-FC\def2QZVP\H2O1\BOITTIER\26-Aug-2020\0\\
 #p B2PLYPD3/Def2QZVP\\h2o\\0,1\O,0,-5.326605,-0.760887,0.920857\H,0,-4
 .368927,-0.698355,0.894672\H,0,-5.609308,0.056594,0.77609\\Version=ES6
 4L-G09RevD.01\State=1-A'\HF=-76.3285938\MP2=-76.4172983\RMSD=6.725e-09
 \PG=CS [SG(H2O1)]\\@

 DON'T WORRY CHARLIE BROWN...WE LEARN MORE FROM LOSING  THAN WE DO FROM WINNING.

 Normal termination of Gaussian 09 at Wed Aug 26 08:41:37 2020.
