 Gaussian 09, Revision D.01,
 Gaussian 09:  ES64L-G09RevD.01 24-Apr-2013

 --------------------
 #p B2PLYPD3/Def2QZVP
 --------------------

 ---
 h2o
 ---
 Symbolic Z-matrix:
 Charge =  0 Multiplicity = 1

                         Standard orientation:
 ---------------------------------------------------------------------
 Center     Atomic      Atomic             Coordinates (Angstroms)
 Number     Number       Type             X           Y           Z
 ---------------------------------------------------------------------
      1          8           0        0.000000    0.115655    0.000000
      2          1           0        0.738318   -0.498181    0.000000
      3          1           0       -0.738318   -0.427057    0.000000
 ---------------------------------------------------------------------

 SCF Done:  E(RB2PLYPD3) =  -76.3338083396     A.U. after   10 cycles
 E2(B2PLYPD3) =    -0.8935138830D-01 E(B2PLYPD3) =    -0.76423159727912D+02

 The electronic state is 1-A'.
 Alpha  occ. eigenvalues --  -19.72816  -1.16772  -0.62094  -0.47868  -0.40165
 Alpha virt. eigenvalues --    0.04720   0.10412   0.27376   0.30357   0.31221
 Alpha virt. eigenvalues --    0.36949   0.44638   0.50315   0.56597   0.62148
 Alpha virt. eigenvalues --    0.65112   0.81667   0.94312   0.95540   1.04895

 Mulliken charges:
               1
     1  O   -0.422966
     2  H    0.222538
     3  H    0.200428
 Sum of Mulliken charges =   0.00000

 Dipole moment (field-independent basis, Debye):
    X=             -0.0227    Y=             -1.9579    Z=              0.0000  Tot=              1.9580
 Quadrupole moment (field-independent basis, Debye-Ang):
   XX=             -4.4139   YY=             -6.2870   ZZ=             -7.5446
   XY=             -0.1140   XZ=              0.0000   YZ=              0.0000

 1\1\GINC-NODE10\SP\RB2PLYPD3-FC\def2QZVP\H2O1\BOITTIER\26-Aug-2020\0\\
 #p B2PLYPD3/Def2QZVP\\h2o\\0,1\O,0,-5.326605,-0.762979,0.922491\H,0,-4
 .368927,-0.699793,0.89477\H,0,-5.609308,0.091505,0.750486\\Version=ES6
 4L-G09RevD.01\State=1-A'\HF=-76.3338083\MP2=-76.4231597\RMSD=5.378e-09
 \PG=CS [SG(H2O1)]\\@

    UPON JULIA'S CLOTHES

 Normal termination of Gaussian 09 at Wed Aug 26 12:50:09 2020.
