 Gaussian 09, Revision D.01,
 Gaussian 09:  ES64L-G09RevD.01 24-Apr-2013

 --------------------
 #p B2PLYPD3/Def2QZVP
 --------------------

 ---
 h2o
 ---
 Symbolic Z-matrix:
 Charge =  0 Multiplicity = 1

                         Standard orientation:
 ---------------------------------------------------------------------
 Center     Atomic      Atomic             Coordinates (Angstroms)
 Number     Number       Type             X           Y           Z
 ---------------------------------------------------------------------
      1          8           0        0.000000    0.110821    0.000000
      2          1           0        0.767679   -0.462463    0.000000
      3          1           0       -0.767679   -0.424106    0.000000
 ---------------------------------------------------------------------

 SCF Done:  E(RB2PLYPD3) =  -76.3348592430     A.U. after   10 cycles
 E2(B2PLYPD3) =    -0.8951455171D-01 E(B2PLYPD3) =    -0.76424373794673D+02

 The electronic state is 1-A'.
 Alpha  occ. eigenvalues --  -19.72784  -1.15988  -0.62512  -0.46915  -0.39979
 Alpha virt. eigenvalues --    0.04728   0.10251   0.27380   0.30392   0.31547
 Alpha virt. eigenvalues --    0.35789   0.44310   0.51113   0.55845   0.63412
 Alpha virt. eigenvalues --    0.65255   0.81194   0.93824   0.95812   1.05386

 Mulliken charges:
               1
     1  O   -0.441086
     2  H    0.226011
     3  H    0.215075
 Sum of Mulliken charges =   0.00000

 Dipole moment (field-independent basis, Debye):
    X=             -0.0105    Y=             -1.8943    Z=              0.0000  Tot=              1.8943
 Quadrupole moment (field-independent basis, Debye-Ang):
   XX=             -4.2077   YY=             -6.4246   ZZ=             -7.5734
   XY=             -0.0660   XZ=              0.0000   YZ=              0.0000

 1\1\GINC-NODE12\SP\RB2PLYPD3-FC\def2QZVP\H2O1\BOITTIER\26-Aug-2020\0\\
 #p B2PLYPD3/Def2QZVP\\h2o\\0,1\O,0,-5.326605,-0.76006,0.92007\H,0,-4.3
 68927,-0.777082,0.896644\H,0,-5.609308,0.122082,0.788227\\Version=ES64
 L-G09RevD.01\State=1-A'\HF=-76.3348592\MP2=-76.4243738\RMSD=4.292e-09\
 PG=CS [SG(H2O1)]\\@

 ACCORDING TO HEN3RY, LIFE IS MUCH LIKE A SEWER........

 Normal termination of Gaussian 09 at Wed Aug 26 08:18:55 2020.
