 Gaussian 09, Revision D.01,
 Gaussian 09:  ES64L-G09RevD.01 24-Apr-2013

 --------------------
 #p B2PLYPD3/Def2QZVP
 --------------------

 ---
 h2o
 ---
 Symbolic Z-matrix:
 Charge =  0 Multiplicity = 1

                         Standard orientation:
 ---------------------------------------------------------------------
 Center     Atomic      Atomic             Coordinates (Angstroms)
 Number     Number       Type             X           Y           Z
 ---------------------------------------------------------------------
      1          8           0        0.000000    0.123827    0.000000
      2          1           0        0.763576   -0.458749    0.000000
      3          1           0       -0.763576   -0.531868    0.000000
 ---------------------------------------------------------------------

 SCF Done:  E(RB2PLYPD3) =  -76.3321704702     A.U. after   10 cycles
 E2(B2PLYPD3) =    -0.9090709668D-01 E(B2PLYPD3) =    -0.76423077566854D+02

 The electronic state is 1-A'.
 Alpha  occ. eigenvalues --  -19.73619  -1.14768  -0.59695  -0.47628  -0.39833
 Alpha virt. eigenvalues --    0.04177   0.10011   0.27714   0.30080   0.30458
 Alpha virt. eigenvalues --    0.35298   0.43378   0.49557   0.56323   0.61224
 Alpha virt. eigenvalues --    0.66268   0.80677   0.93165   0.96405   1.01533

 Mulliken charges:
               1
     1  O   -0.453872
     2  H    0.218183
     3  H    0.235689
 Sum of Mulliken charges =   0.00000

 Dipole moment (field-independent basis, Debye):
    X=              0.0249    Y=             -2.0190    Z=              0.0000  Tot=              2.0192
 Quadrupole moment (field-independent basis, Debye-Ang):
   XX=             -4.4066   YY=             -6.2524   ZZ=             -7.6438
   XY=              0.1168   XZ=              0.0000   YZ=              0.0000

 1\1\GINC-NODE16\SP\RB2PLYPD3-FC\def2QZVP\H2O1\BOITTIER\26-Aug-2020\0\\
 #p B2PLYPD3/Def2QZVP\\h2o\\0,1\O,0,-5.326605,-0.767871,0.925768\H,0,-4
 .368927,-0.700101,0.899269\H,0,-5.609308,0.170082,0.694884\\Version=ES
 64L-G09RevD.01\State=1-A'\HF=-76.3321705\MP2=-76.4230776\RMSD=4.832e-0
 9\PG=CS [SG(H2O1)]\\@

 NOTHING WILL BE ATTEMPTED IF ALL POSSIBLE OBJECTIONS

 Normal termination of Gaussian 09 at Wed Aug 26 08:47:16 2020.
