 Gaussian 09, Revision D.01,
 Gaussian 09:  ES64L-G09RevD.01 24-Apr-2013

 --------------------
 #p B2PLYPD3/Def2QZVP
 --------------------

 ---
 h2o
 ---
 Symbolic Z-matrix:
 Charge =  0 Multiplicity = 1

                         Standard orientation:
 ---------------------------------------------------------------------
 Center     Atomic      Atomic             Coordinates (Angstroms)
 Number     Number       Type             X           Y           Z
 ---------------------------------------------------------------------
      1          8           0        0.000000    0.114441    0.000000
      2          1           0        0.755546   -0.474857    0.000000
      3          1           0       -0.755546   -0.440667    0.000000
 ---------------------------------------------------------------------

 SCF Done:  E(RB2PLYPD3) =  -76.3350679825     A.U. after   10 cycles
 E2(B2PLYPD3) =    -0.8961048615D-01 E(B2PLYPD3) =    -0.76424678468677D+02

 The electronic state is 1-A'.
 Alpha  occ. eigenvalues --  -19.72910  -1.16129  -0.61983  -0.47400  -0.40034
 Alpha virt. eigenvalues --    0.04672   0.10290   0.27424   0.30387   0.31279
 Alpha virt. eigenvalues --    0.36210   0.44293   0.50561   0.56226   0.62599
 Alpha virt. eigenvalues --    0.65332   0.81364   0.94009   0.95739   1.04806

 Mulliken charges:
               1
     1  O   -0.436259
     2  H    0.223067
     3  H    0.213192
 Sum of Mulliken charges =   0.00000

 Dipole moment (field-independent basis, Debye):
    X=             -0.0103    Y=             -1.9367    Z=              0.0000  Tot=              1.9367
 Quadrupole moment (field-independent basis, Debye-Ang):
   XX=             -4.3155   YY=             -6.3498   ZZ=             -7.5705
   XY=             -0.0567   XZ=              0.0000   YZ=              0.0000

 1\1\GINC-NODE29\SP\RB2PLYPD3-FC\def2QZVP\H2O1\BOITTIER\26-Aug-2020\0\\
 #p B2PLYPD3/Def2QZVP\\h2o\\0,1\O,0,-5.326605,-0.762784,0.918942\H,0,-4
 .368927,-0.731706,0.922057\H,0,-5.609308,0.120289,0.780175\\Version=ES
 64L-G09RevD.01\State=1-A'\HF=-76.335068\MP2=-76.4246785\RMSD=4.358e-09
 \PG=CS [SG(H2O1)]\\@

 ... A MOLECULAR SYSTEM ... (PASSES) ... FROM ONE STATE OF EQUILIBRIUM

 Normal termination of Gaussian 09 at Wed Aug 26 08:30:07 2020.
