 Gaussian 09, Revision D.01,
 Gaussian 09:  ES64L-G09RevD.01 24-Apr-2013

 --------------------
 #p B2PLYPD3/Def2QZVP
 --------------------

 ---
 h2o
 ---
 Symbolic Z-matrix:
 Charge =  0 Multiplicity = 1

                         Standard orientation:
 ---------------------------------------------------------------------
 Center     Atomic      Atomic             Coordinates (Angstroms)
 Number     Number       Type             X           Y           Z
 ---------------------------------------------------------------------
      1          8           0        0.000000    0.117490    0.000000
      2          1           0        0.754817   -0.474955    0.000000
      3          1           0       -0.754817   -0.464964    0.000000
 ---------------------------------------------------------------------

 SCF Done:  E(RB2PLYPD3) =  -76.3351556829     A.U. after   10 cycles
 E2(B2PLYPD3) =    -0.8993409843D-01 E(B2PLYPD3) =    -0.76425089781352D+02

 The electronic state is 1-A'.
 Alpha  occ. eigenvalues --  -19.73113  -1.15816  -0.61298  -0.47576  -0.39996
 Alpha virt. eigenvalues --    0.04553   0.10238   0.27507   0.30405   0.30991
 Alpha virt. eigenvalues --    0.36078   0.44040   0.50199   0.56354   0.62074
 Alpha virt. eigenvalues --    0.65586   0.81237   0.93947   0.95878   1.03934

 Mulliken charges:
               1
     1  O   -0.440409
     2  H    0.221588
     3  H    0.218821
 Sum of Mulliken charges =   0.00000

 Dipole moment (field-independent basis, Debye):
    X=             -0.0032    Y=             -1.9663    Z=              0.0000  Tot=              1.9663
 Quadrupole moment (field-independent basis, Debye-Ang):
   XX=             -4.3608   YY=             -6.3119   ZZ=             -7.5876
   XY=             -0.0163   XZ=              0.0000   YZ=              0.0000

 1\1\GINC-NODE06\SP\RB2PLYPD3-FC\def2QZVP\H2O1\BOITTIER\26-Aug-2020\0\\
 #p B2PLYPD3/Def2QZVP\\h2o\\0,1\O,0,-5.326605,-0.763756,0.924689\H,0,-4
 .368927,-0.721275,0.882417\H,0,-5.609308,0.125415,0.72859\\Version=ES6
 4L-G09RevD.01\State=1-A'\HF=-76.3351557\MP2=-76.4250898\RMSD=4.150e-09
 \PG=CS [SG(H2O1)]\\@

 THE BEST WAY TO CONVINCE A FOOL THAT HE IS WRONG

 Normal termination of Gaussian 09 at Wed Aug 26 10:48:33 2020.
