 Gaussian 09, Revision D.01,
 Gaussian 09:  ES64L-G09RevD.01 24-Apr-2013

 --------------------
 #p B2PLYPD3/Def2QZVP
 --------------------

 ---
 h2o
 ---
 Symbolic Z-matrix:
 Charge =  0 Multiplicity = 1

                         Standard orientation:
 ---------------------------------------------------------------------
 Center     Atomic      Atomic             Coordinates (Angstroms)
 Number     Number       Type             X           Y           Z
 ---------------------------------------------------------------------
      1          8           0        0.000000    0.116963    0.000000
      2          1           0        0.789633   -0.425946    0.000000
      3          1           0       -0.789633   -0.509760    0.000000
 ---------------------------------------------------------------------

 SCF Done:  E(RB2PLYPD3) =  -76.3320337810     A.U. after   10 cycles
 E2(B2PLYPD3) =    -0.9073468318D-01 E(B2PLYPD3) =    -0.76422768464190D+02

 The electronic state is 1-A'.
 Alpha  occ. eigenvalues --  -19.73396  -1.14444  -0.60599  -0.46678  -0.39705
 Alpha virt. eigenvalues --    0.04259   0.09935   0.27604   0.30479   0.30537
 Alpha virt. eigenvalues --    0.34577   0.43358   0.50519   0.55571   0.62710
 Alpha virt. eigenvalues --    0.66154   0.80279   0.92644   0.96483   1.02304

 Mulliken charges:
               1
     1  O   -0.465282
     2  H    0.222862
     3  H    0.242419
 Sum of Mulliken charges =   0.00000

 Dipole moment (field-independent basis, Debye):
    X=              0.0239    Y=             -1.9398    Z=              0.0000  Tot=              1.9399
 Quadrupole moment (field-independent basis, Debye-Ang):
   XX=             -4.1814   YY=             -6.4038   ZZ=             -7.6531
   XY=              0.1444   XZ=              0.0000   YZ=              0.0000

 1\1\GINC-NODE03\SP\RB2PLYPD3-FC\def2QZVP\H2O1\BOITTIER\26-Aug-2020\0\\
 #p B2PLYPD3/Def2QZVP\\h2o\\0,1\O,0,-5.326605,-0.764766,0.917098\H,0,-4
 .368927,-0.773312,0.94951\H,0,-5.609308,0.193604,0.78328\\Version=ES64
 L-G09RevD.01\State=1-A'\HF=-76.3320338\MP2=-76.4227685\RMSD=4.988e-09\
 PG=CS [SG(H2O1)]\\@

 THE WORLD OF CHEMICAL REACTIONS IS LIKE A STAGE,

 Normal termination of Gaussian 09 at Wed Aug 26 12:17:21 2020.
