 Gaussian 09, Revision D.01,
 Gaussian 09:  ES64L-G09RevD.01 24-Apr-2013

 --------------------
 #p B2PLYPD3/Def2QZVP
 --------------------

 ---
 h2o
 ---
 Symbolic Z-matrix:
 Charge =  0 Multiplicity = 1

                         Standard orientation:
 ---------------------------------------------------------------------
 Center     Atomic      Atomic             Coordinates (Angstroms)
 Number     Number       Type             X           Y           Z
 ---------------------------------------------------------------------
      1          8           0        0.000000    0.111462    0.000000
      2          1           0        0.802499   -0.415808    0.000000
      3          1           0       -0.802499   -0.475885    0.000000
 ---------------------------------------------------------------------

 SCF Done:  E(RB2PLYPD3) =  -76.3325575754     A.U. after   10 cycles
 E2(B2PLYPD3) =    -0.9045663114D-01 E(B2PLYPD3) =    -0.76423014206538D+02

 The electronic state is 1-A'.
 Alpha  occ. eigenvalues --  -19.73158  -1.14449  -0.61438  -0.46119  -0.39661
 Alpha virt. eigenvalues --    0.04391   0.09935   0.27508   0.30479   0.31120
 Alpha virt. eigenvalues --    0.34185   0.43455   0.51367   0.55156   0.63814
 Alpha virt. eigenvalues --    0.65988   0.80043   0.92734   0.96531   1.03424

 Mulliken charges:
               1
     1  O   -0.470556
     2  H    0.228190
     3  H    0.242366
 Sum of Mulliken charges =   0.00000

 Dipole moment (field-independent basis, Debye):
    X=              0.0149    Y=             -1.8794    Z=              0.0000  Tot=              1.8794
 Quadrupole moment (field-independent basis, Debye-Ang):
   XX=             -4.0409   YY=             -6.5070   ZZ=             -7.6477
   XY=              0.1084   XZ=              0.0000   YZ=              0.0000

 1\1\GINC-NODE14\SP\RB2PLYPD3-FC\def2QZVP\H2O1\BOITTIER\26-Aug-2020\0\\
 #p B2PLYPD3/Def2QZVP\\h2o\\0,1\O,0,-5.326605,-0.761133,0.915222\H,0,-4
 .368927,-0.825443,0.942333\H,0,-5.609308,0.187619,0.820728\\Version=ES
 64L-G09RevD.01\State=1-A'\HF=-76.3325576\MP2=-76.4230142\RMSD=4.478e-0
 9\PG=CS [SG(H2O1)]\\@

 Everything starts as somebody's daydream.

 Normal termination of Gaussian 09 at Wed Aug 26 09:28:05 2020.
