 Gaussian 09, Revision D.01,
 Gaussian 09:  ES64L-G09RevD.01 24-Apr-2013

 --------------------
 #p B2PLYPD3/Def2QZVP
 --------------------

 ---
 h2o
 ---
 Symbolic Z-matrix:
 Charge =  0 Multiplicity = 1

                         Standard orientation:
 ---------------------------------------------------------------------
 Center     Atomic      Atomic             Coordinates (Angstroms)
 Number     Number       Type             X           Y           Z
 ---------------------------------------------------------------------
      1          8           0        0.000000    0.121394    0.000000
      2          1           0        0.744368   -0.488711    0.000000
      3          1           0       -0.744368   -0.482439    0.000000
 ---------------------------------------------------------------------

 SCF Done:  E(RB2PLYPD3) =  -76.3347209359     A.U. after   10 cycles
 E2(B2PLYPD3) =    -0.9015099760D-01 E(B2PLYPD3) =    -0.76424871933549D+02

 The electronic state is 1-A'.
 Alpha  occ. eigenvalues --  -19.73282  -1.15818  -0.60623  -0.48021  -0.40026
 Alpha virt. eigenvalues --    0.04456   0.10246   0.27578   0.30406   0.30672
 Alpha virt. eigenvalues --    0.36303   0.43938   0.49729   0.56702   0.61287
 Alpha virt. eigenvalues --    0.65738   0.81252   0.94143   0.95924   1.03153

 Mulliken charges:
               1
     1  O   -0.438056
     2  H    0.219891
     3  H    0.218165
 Sum of Mulliken charges =   0.00000

 Dipole moment (field-independent basis, Debye):
    X=             -0.0022    Y=             -2.0087    Z=              0.0000  Tot=              2.0087
 Quadrupole moment (field-independent basis, Debye-Ang):
   XX=             -4.4651   YY=             -6.2370   ZZ=             -7.5920
   XY=             -0.0098   XZ=              0.0000   YZ=              0.0000

 1\1\GINC-NODE40\SP\RB2PLYPD3-FC\def2QZVP\H2O1\BOITTIER\26-Aug-2020\0\\
 #p B2PLYPD3/Def2QZVP\\h2o\\0,1\O,0,-5.326605,-0.765976,0.926546\H,0,-4
 .368927,-0.681735,0.881077\H,0,-5.609308,0.121402,0.699969\\Version=ES
 64L-G09RevD.01\State=1-A'\HF=-76.3347209\MP2=-76.4248719\RMSD=4.379e-0
 9\PG=CS [SG(H2O1)]\\@

 NO MATTER HOW THIN YOU SLICE IT, IT'S STILL BALONEY

 Normal termination of Gaussian 09 at Wed Aug 26 12:37:01 2020.
