 Gaussian 09, Revision D.01,
 Gaussian 09:  ES64L-G09RevD.01 24-Apr-2013

 --------------------
 #p B2PLYPD3/Def2QZVP
 --------------------

 ---
 h2o
 ---
 Symbolic Z-matrix:
 Charge =  0 Multiplicity = 1

                         Standard orientation:
 ---------------------------------------------------------------------
 Center     Atomic      Atomic             Coordinates (Angstroms)
 Number     Number       Type             X           Y           Z
 ---------------------------------------------------------------------
      1          8           0        0.000000    0.119993    0.000000
      2          1           0        0.756518   -0.471000    0.000000
      3          1           0       -0.756518   -0.488947    0.000000
 ---------------------------------------------------------------------

 SCF Done:  E(RB2PLYPD3) =  -76.3346677676     A.U. after   10 cycles
 E2(B2PLYPD3) =    -0.9026670167D-01 E(B2PLYPD3) =    -0.76424934469290D+02

 The electronic state is 1-A'.
 Alpha  occ. eigenvalues --  -19.73301  -1.15464  -0.60690  -0.47653  -0.39945
 Alpha virt. eigenvalues --    0.04430   0.10169   0.27584   0.30423   0.30703
 Alpha virt. eigenvalues --    0.35843   0.43792   0.49931   0.56398   0.61694
 Alpha virt. eigenvalues --    0.65834   0.81067   0.93786   0.96049   1.03054

 Mulliken charges:
               1
     1  O   -0.445096
     2  H    0.220178
     3  H    0.224918
 Sum of Mulliken charges =   0.00000

 Dipole moment (field-independent basis, Debye):
    X=              0.0059    Y=             -1.9887    Z=              0.0000  Tot=              1.9887
 Quadrupole moment (field-independent basis, Debye-Ang):
   XX=             -4.3873   YY=             -6.2856   ZZ=             -7.6063
   XY=              0.0289   XZ=              0.0000   YZ=              0.0000

 1\1\GINC-NODE08\SP\RB2PLYPD3-FC\def2QZVP\H2O1\BOITTIER\26-Aug-2020\0\\
 #p B2PLYPD3/Def2QZVP\\h2o\\0,1\O,0,-5.326605,-0.76539,0.925128\H,0,-4.
 368927,-0.709363,0.888979\H,0,-5.609308,0.139644,0.715079\\Version=ES6
 4L-G09RevD.01\State=1-A'\HF=-76.3346678\MP2=-76.4249345\RMSD=4.201e-09
 \PG=CS [SG(H2O1)]\\@

 THE ONLY EXISTING THINGS ARE ATOMS AND EMPTY SPACE;

 Normal termination of Gaussian 09 at Wed Aug 26 10:12:14 2020.
