 Gaussian 09, Revision D.01,
 Gaussian 09:  ES64L-G09RevD.01 24-Apr-2013

 --------------------
 #p B2PLYPD3/Def2QZVP
 --------------------

 ---
 h2o
 ---
 Symbolic Z-matrix:
 Charge =  0 Multiplicity = 1

                         Standard orientation:
 ---------------------------------------------------------------------
 Center     Atomic      Atomic             Coordinates (Angstroms)
 Number     Number       Type             X           Y           Z
 ---------------------------------------------------------------------
      1          8           0        0.000000    0.113820    0.000000
      2          1           0        0.772172   -0.461206    0.000000
      3          1           0       -0.772172   -0.449357    0.000000
 ---------------------------------------------------------------------

 SCF Done:  E(RB2PLYPD3) =  -76.3350211142     A.U. after   10 cycles
 E2(B2PLYPD3) =    -0.8994042482D-01 E(B2PLYPD3) =    -0.76424961539012D+02

 The electronic state is 1-A'.
 Alpha  occ. eigenvalues --  -19.73032  -1.15472  -0.61719  -0.46970  -0.39898
 Alpha virt. eigenvalues --    0.04576   0.10159   0.27475   0.30422   0.31231
 Alpha virt. eigenvalues --    0.35447   0.43947   0.50762   0.55870   0.62952
 Alpha virt. eigenvalues --    0.65591   0.80957   0.93587   0.96015   1.04377

 Mulliken charges:
               1
     1  O   -0.449251
     2  H    0.226208
     3  H    0.223043
 Sum of Mulliken charges =   0.00000

 Dipole moment (field-independent basis, Debye):
    X=             -0.0034    Y=             -1.9210    Z=              0.0000  Tot=              1.9210
 Quadrupole moment (field-independent basis, Debye-Ang):
   XX=             -4.2259   YY=             -6.4018   ZZ=             -7.5997
   XY=             -0.0202   XZ=              0.0000   YZ=              0.0000

 1\1\GINC-NODE16\SP\RB2PLYPD3-FC\def2QZVP\H2O1\BOITTIER\26-Aug-2020\0\\
 #p B2PLYPD3/Def2QZVP\\h2o\\0,1\O,0,-5.326605,-0.76282,0.908298\H,0,-4.
 368927,-0.759931,1.007037\H,0,-5.609308,0.1491,0.864705\\Version=ES64L
 -G09RevD.01\State=1-A'\HF=-76.3350211\MP2=-76.4249615\RMSD=3.877e-09\P
 G=CS [SG(H2O1)]\\@

 ABALONE: AN EXPRESSION OF DISBELIEF.

 Normal termination of Gaussian 09 at Wed Aug 26 08:55:58 2020.
