 Gaussian 09, Revision D.01,
 Gaussian 09:  ES64L-G09RevD.01 24-Apr-2013

 --------------------
 #p B2PLYPD3/Def2QZVP
 --------------------

 ---
 h2o
 ---
 Symbolic Z-matrix:
 Charge =  0 Multiplicity = 1

                         Standard orientation:
 ---------------------------------------------------------------------
 Center     Atomic      Atomic             Coordinates (Angstroms)
 Number     Number       Type             X           Y           Z
 ---------------------------------------------------------------------
      1          8           0        0.000000    0.112530    0.000000
      2          1           0        0.719361   -0.525792    0.000000
      3          1           0       -0.719361   -0.374450    0.000000
 ---------------------------------------------------------------------

 SCF Done:  E(RB2PLYPD3) =  -76.3267419745     A.U. after   10 cycles
 E2(B2PLYPD3) =    -0.8861506835D-01 E(B2PLYPD3) =    -0.76415357042880D+02

 The electronic state is 1-A'.
 Alpha  occ. eigenvalues --  -19.72374  -1.18094  -0.63272  -0.48087  -0.40378
 Alpha virt. eigenvalues --    0.04891   0.10607   0.27162   0.30293   0.31393
 Alpha virt. eigenvalues --    0.37840   0.45555   0.50590   0.56737   0.62456
 Alpha virt. eigenvalues --    0.64492   0.82106   0.94198   0.95368   1.05477

 Mulliken charges:
               1
     1  O   -0.394811
     2  H    0.224732
     3  H    0.170080
 Sum of Mulliken charges =   0.00000

 Dipole moment (field-independent basis, Debye):
    X=             -0.0480    Y=             -1.9367    Z=              0.0000  Tot=              1.9373
 Quadrupole moment (field-independent basis, Debye-Ang):
   XX=             -4.4581   YY=             -6.2601   ZZ=             -7.4896
   XY=             -0.2396   XZ=              0.0000   YZ=              0.0000

 1\1\GINC-NODE06\SP\RB2PLYPD3-FC\def2QZVP\H2O1\BOITTIER\26-Aug-2020\0\\
 #p B2PLYPD3/Def2QZVP\\h2o\\0,1\O,0,-5.326605,-0.760423,0.923909\H,0,-4
 .368927,-0.692544,0.867503\H,0,-5.609308,0.043351,0.754627\\Version=ES
 64L-G09RevD.01\State=1-A'\HF=-76.326742\MP2=-76.415357\RMSD=6.787e-09\
 PG=CS [SG(H2O1)]\\@

 SUCCESS-- IF YOU HAVE TRIED TO DO SOMETHING AND FAILED

 Normal termination of Gaussian 09 at Wed Aug 26 08:56:34 2020.
