 Gaussian 09, Revision D.01,
 Gaussian 09:  ES64L-G09RevD.01 24-Apr-2013

 --------------------
 #p B2PLYPD3/Def2QZVP
 --------------------

 ---
 h2o
 ---
 Symbolic Z-matrix:
 Charge =  0 Multiplicity = 1

                         Standard orientation:
 ---------------------------------------------------------------------
 Center     Atomic      Atomic             Coordinates (Angstroms)
 Number     Number       Type             X           Y           Z
 ---------------------------------------------------------------------
      1          8           0        0.000000    0.122762    0.000000
      2          1           0        0.738597   -0.497226    0.000000
      3          1           0       -0.738597   -0.484872    0.000000
 ---------------------------------------------------------------------

 SCF Done:  E(RB2PLYPD3) =  -76.3344670480     A.U. after   10 cycles
 E2(B2PLYPD3) =    -0.9018640822D-01 E(B2PLYPD3) =    -0.76424653456233D+02

 The electronic state is 1-A'.
 Alpha  occ. eigenvalues --  -19.73323  -1.15903  -0.60421  -0.48227  -0.40052
 Alpha virt. eigenvalues --    0.04432   0.10266   0.27596   0.30402   0.30578
 Alpha virt. eigenvalues --    0.36458   0.43948   0.49576   0.56867   0.60987
 Alpha virt. eigenvalues --    0.65751   0.81284   0.94287   0.95913   1.02980

 Mulliken charges:
               1
     1  O   -0.435775
     2  H    0.219600
     3  H    0.216175
 Sum of Mulliken charges =   0.00000

 Dipole moment (field-independent basis, Debye):
    X=             -0.0044    Y=             -2.0246    Z=              0.0000  Tot=              2.0246
 Quadrupole moment (field-independent basis, Debye-Ang):
   XX=             -4.5117   YY=             -6.2051   ZZ=             -7.5900
   XY=             -0.0191   XZ=              0.0000   YZ=              0.0000

 1\1\GINC-NODE29\SP\RB2PLYPD3-FC\def2QZVP\H2O1\BOITTIER\26-Aug-2020\0\\
 #p B2PLYPD3/Def2QZVP\\h2o\\0,1\O,0,-5.326605,-0.767656,0.923533\H,0,-4
 .368927,-0.654995,0.915151\H,0,-5.609308,0.12154,0.713405\\Version=ES6
 4L-G09RevD.01\State=1-A'\HF=-76.334467\MP2=-76.4246535\RMSD=4.538e-09\
 PG=CS [SG(H2O1)]\\@

 MEMORIES ARE LIKE AN ENGLISH GRAMMER LESSON -

 Normal termination of Gaussian 09 at Wed Aug 26 09:23:42 2020.
