 Gaussian 09, Revision D.01,
 Gaussian 09:  ES64L-G09RevD.01 24-Apr-2013

 --------------------
 #p B2PLYPD3/Def2QZVP
 --------------------

 ---
 h2o
 ---
 Symbolic Z-matrix:
 Charge =  0 Multiplicity = 1

                         Standard orientation:
 ---------------------------------------------------------------------
 Center     Atomic      Atomic             Coordinates (Angstroms)
 Number     Number       Type             X           Y           Z
 ---------------------------------------------------------------------
      1          8           0        0.000000    0.113509    0.000000
      2          1           0        0.710813   -0.538827    0.000000
      3          1           0       -0.710813   -0.369245    0.000000
 ---------------------------------------------------------------------

 SCF Done:  E(RB2PLYPD3) =  -76.3241910432     A.U. after   10 cycles
 E2(B2PLYPD3) =    -0.8854443477D-01 E(B2PLYPD3) =    -0.76412735477986D+02

 The electronic state is 1-A'.
 Alpha  occ. eigenvalues --  -19.72344  -1.18412  -0.63216  -0.48323  -0.40435
 Alpha virt. eigenvalues --    0.04874   0.10658   0.27132   0.30282   0.31286
 Alpha virt. eigenvalues --    0.38104   0.45750   0.50439   0.56900   0.62188
 Alpha virt. eigenvalues --    0.64417   0.82163   0.94156   0.95374   1.05331

 Mulliken charges:
               1
     1  O   -0.387139
     2  H    0.225187
     3  H    0.161952
 Sum of Mulliken charges =   0.00000

 Dipole moment (field-independent basis, Debye):
    X=             -0.0557    Y=             -1.9504    Z=              0.0000  Tot=              1.9512
 Quadrupole moment (field-independent basis, Debye-Ang):
   XX=             -4.5094   YY=             -6.2219   ZZ=             -7.4797
   XY=             -0.2633   XZ=              0.0000   YZ=              0.0000

 1\1\GINC-NODE06\SP\RB2PLYPD3-FC\def2QZVP\H2O1\BOITTIER\26-Aug-2020\0\\
 #p B2PLYPD3/Def2QZVP\\h2o\\0,1\O,0,-5.326605,-0.760273,0.926865\H,0,-4
 .368927,-0.678959,0.842968\H,0,-5.609308,0.027373,0.73193\\Version=ES6
 4L-G09RevD.01\State=1-A'\HF=-76.324191\MP2=-76.4127355\RMSD=6.711e-09\
 PG=CS [SG(H2O1)]\\@

 KINETICS       FACT

 Normal termination of Gaussian 09 at Wed Aug 26 09:17:01 2020.
