 Gaussian 09, Revision D.01,
 Gaussian 09:  ES64L-G09RevD.01 24-Apr-2013

 --------------------
 #p B2PLYPD3/Def2QZVP
 --------------------

 ---
 h2o
 ---
 Symbolic Z-matrix:
 Charge =  0 Multiplicity = 1

                         Standard orientation:
 ---------------------------------------------------------------------
 Center     Atomic      Atomic             Coordinates (Angstroms)
 Number     Number       Type             X           Y           Z
 ---------------------------------------------------------------------
      1          8           0        0.000000    0.117481    0.000000
      2          1           0        0.775320   -0.445107    0.000000
      3          1           0       -0.775320   -0.494741    0.000000
 ---------------------------------------------------------------------

 SCF Done:  E(RB2PLYPD3) =  -76.3338690611     A.U. after   10 cycles
 E2(B2PLYPD3) =    -0.9042992518D-01 E(B2PLYPD3) =    -0.76424298986255D+02

 The electronic state is 1-A'.
 Alpha  occ. eigenvalues --  -19.73304  -1.14961  -0.60830  -0.47066  -0.39821
 Alpha virt. eigenvalues --    0.04383   0.10055   0.27580   0.30450   0.30747
 Alpha virt. eigenvalues --    0.35141   0.43600   0.50338   0.55911   0.62394
 Alpha virt. eigenvalues --    0.65950   0.80702   0.93222   0.96249   1.02934

 Mulliken charges:
               1
     1  O   -0.455763
     2  H    0.221698
     3  H    0.234065
 Sum of Mulliken charges =   0.00000

 Dipole moment (field-independent basis, Debye):
    X=              0.0149    Y=             -1.9538    Z=              0.0000  Tot=              1.9539
 Quadrupole moment (field-independent basis, Debye-Ang):
   XX=             -4.2603   YY=             -6.3638   ZZ=             -7.6276
   XY=              0.0835   XZ=              0.0000   YZ=              0.0000

 1\1\GINC-NODE26\SP\RB2PLYPD3-FC\def2QZVP\H2O1\BOITTIER\26-Aug-2020\0\\
 #p B2PLYPD3/Def2QZVP\\h2o\\0,1\O,0,-5.326605,-0.764845,0.919245\H,0,-4
 .368927,-0.747593,0.932688\H,0,-5.609308,0.169163,0.765477\\Version=ES
 64L-G09RevD.01\State=1-A'\HF=-76.3338691\MP2=-76.424299\RMSD=4.344e-09
 \PG=CS [SG(H2O1)]\\@

 THE RARE EARTHS PERPLEX US IN OUR RESEARCHES,

 Normal termination of Gaussian 09 at Wed Aug 26 10:38:01 2020.
