 Gaussian 09, Revision D.01,
 Gaussian 09:  ES64L-G09RevD.01 24-Apr-2013

 --------------------
 #p B2PLYPD3/Def2QZVP
 --------------------

 ---
 h2o
 ---
 Symbolic Z-matrix:
 Charge =  0 Multiplicity = 1

                         Standard orientation:
 ---------------------------------------------------------------------
 Center     Atomic      Atomic             Coordinates (Angstroms)
 Number     Number       Type             X           Y           Z
 ---------------------------------------------------------------------
      1          8           0        0.000000    0.115844    0.000000
      2          1           0        0.744518   -0.489317    0.000000
      3          1           0       -0.744518   -0.437433    0.000000
 ---------------------------------------------------------------------

 SCF Done:  E(RB2PLYPD3) =  -76.3345926260     A.U. after   10 cycles
 E2(B2PLYPD3) =    -0.8951111208D-01 E(B2PLYPD3) =    -0.76424103738102D+02

 The electronic state is 1-A'.
 Alpha  occ. eigenvalues --  -19.72895  -1.16464  -0.61911  -0.47735  -0.40109
 Alpha virt. eigenvalues --    0.04682   0.10357   0.27413   0.30372   0.31196
 Alpha virt. eigenvalues --    0.36656   0.44448   0.50327   0.56493   0.62201
 Alpha virt. eigenvalues --    0.65247   0.81539   0.94220   0.95629   1.04729

 Mulliken charges:
               1
     1  O   -0.429023
     2  H    0.222291
     3  H    0.206732
 Sum of Mulliken charges =   0.00000

 Dipole moment (field-independent basis, Debye):
    X=             -0.0164    Y=             -1.9564    Z=              0.0000  Tot=              1.9564
 Quadrupole moment (field-independent basis, Debye-Ang):
   XX=             -4.3873   YY=             -6.3028   ZZ=             -7.5576
   XY=             -0.0839   XZ=              0.0000   YZ=              0.0000

 1\1\GINC-NODE30\SP\RB2PLYPD3-FC\def2QZVP\H2O1\BOITTIER\26-Aug-2020\0\\
 #p B2PLYPD3/Def2QZVP\\h2o\\0,1\O,0,-5.326605,-0.763503,0.920499\H,0,-4
 .368927,-0.705741,0.913905\H,0,-5.609308,0.105838,0.763182\\Version=ES
 64L-G09RevD.01\State=1-A'\HF=-76.3345926\MP2=-76.4241037\RMSD=4.852e-0
 9\PG=CS [SG(H2O1)]\\@

 THERE IS NO SCIENCE WITHOUT FANCY, NOR ART WITHOUT FACTS.

 Normal termination of Gaussian 09 at Wed Aug 26 12:05:59 2020.
