 Gaussian 09, Revision D.01,
 Gaussian 09:  ES64L-G09RevD.01 24-Apr-2013

 --------------------
 #p B2PLYPD3/Def2QZVP
 --------------------

 ---
 h2o
 ---
 Symbolic Z-matrix:
 Charge =  0 Multiplicity = 1

                         Standard orientation:
 ---------------------------------------------------------------------
 Center     Atomic      Atomic             Coordinates (Angstroms)
 Number     Number       Type             X           Y           Z
 ---------------------------------------------------------------------
      1          8           0        0.000000    0.118986    0.000000
      2          1           0        0.763846   -0.464023    0.000000
      3          1           0       -0.763846   -0.487868    0.000000
 ---------------------------------------------------------------------

 SCF Done:  E(RB2PLYPD3) =  -76.3345337915     A.U. after   10 cycles
 E2(B2PLYPD3) =    -0.9032251461D-01 E(B2PLYPD3) =    -0.76424856306119D+02

 The electronic state is 1-A'.
 Alpha  occ. eigenvalues --  -19.73301  -1.15269  -0.60758  -0.47425  -0.39898
 Alpha virt. eigenvalues --    0.04419   0.10125   0.27583   0.30433   0.30738
 Alpha virt. eigenvalues --    0.35570   0.43716   0.50083   0.56210   0.61967
 Alpha virt. eigenvalues --    0.65878   0.80943   0.93582   0.96117   1.03049

 Mulliken charges:
               1
     1  O   -0.449225
     2  H    0.221532
     3  H    0.227692
 Sum of Mulliken charges =   0.00000

 Dipole moment (field-independent basis, Debye):
    X=              0.0075    Y=             -1.9749    Z=              0.0000  Tot=              1.9750
 Quadrupole moment (field-independent basis, Debye-Ang):
   XX=             -4.3377   YY=             -6.3168   ZZ=             -7.6142
   XY=              0.0391   XZ=              0.0000   YZ=              0.0000

 1\1\GINC-NODE30\SP\RB2PLYPD3-FC\def2QZVP\H2O1\BOITTIER\26-Aug-2020\0\\
 #p B2PLYPD3/Def2QZVP\\h2o\\0,1\O,0,-5.326605,-0.766307,0.915139\H,0,-4
 .368927,-0.713868,0.973983\H,0,-5.609308,0.158817,0.78882\\Version=ES6
 4L-G09RevD.01\State=1-A'\HF=-76.3345338\MP2=-76.4248563\RMSD=4.127e-09
 \PG=CS [SG(H2O1)]\\@

 BLACK HOLES SUCK.

 Normal termination of Gaussian 09 at Wed Aug 26 12:48:28 2020.
