 Gaussian 09, Revision D.01,
 Gaussian 09:  ES64L-G09RevD.01 24-Apr-2013

 --------------------
 #p B2PLYPD3/Def2QZVP
 --------------------

 ---
 h2o
 ---
 Symbolic Z-matrix:
 Charge =  0 Multiplicity = 1

                         Standard orientation:
 ---------------------------------------------------------------------
 Center     Atomic      Atomic             Coordinates (Angstroms)
 Number     Number       Type             X           Y           Z
 ---------------------------------------------------------------------
      1          8           0        0.000000    0.113297    0.000000
      2          1           0        0.718430   -0.528338    0.000000
      3          1           0       -0.718430   -0.378037    0.000000
 ---------------------------------------------------------------------

 SCF Done:  E(RB2PLYPD3) =  -76.3270104022     A.U. after   10 cycles
 E2(B2PLYPD3) =    -0.8867677910D-01 E(B2PLYPD3) =    -0.76415687181325D+02

 The electronic state is 1-A'.
 Alpha  occ. eigenvalues --  -19.72419  -1.18045  -0.63104  -0.48152  -0.40373
 Alpha virt. eigenvalues --    0.04865   0.10604   0.27179   0.30297   0.31331
 Alpha virt. eigenvalues --    0.37848   0.45513   0.50495   0.56786   0.62314
 Alpha virt. eigenvalues --    0.64534   0.82081   0.94216   0.95378   1.05351

 Mulliken charges:
               1
     1  O   -0.395796
     2  H    0.224868
     3  H    0.170928
 Sum of Mulliken charges =   0.00000

 Dipole moment (field-independent basis, Debye):
    X=             -0.0484    Y=             -1.9447    Z=              0.0000  Tot=              1.9453
 Quadrupole moment (field-independent basis, Debye-Ang):
   XX=             -4.4727   YY=             -6.2491   ZZ=             -7.4926
   XY=             -0.2366   XZ=              0.0000   YZ=              0.0000

 1\1\GINC-NODE37\SP\RB2PLYPD3-FC\def2QZVP\H2O1\BOITTIER\26-Aug-2020\0\\
 #p B2PLYPD3/Def2QZVP\\h2o\\0,1\O,0,-5.326605,-0.760345,0.926155\H,0,-4
 .368927,-0.691304,0.849194\H,0,-5.609308,0.040874,0.737268\\Version=ES
 64L-G09RevD.01\State=1-A'\HF=-76.3270104\MP2=-76.4156872\RMSD=6.774e-0
 9\PG=CS [SG(H2O1)]\\@

 THE MOST SERIOUS THREAT TO THE SURVIVAL OF MANKIND IS NOT NOW

 Normal termination of Gaussian 09 at Wed Aug 26 08:40:26 2020.
