 Gaussian 09, Revision D.01,
 Gaussian 09:  ES64L-G09RevD.01 24-Apr-2013

 --------------------
 #p B2PLYPD3/Def2QZVP
 --------------------

 ---
 h2o
 ---
 Symbolic Z-matrix:
 Charge =  0 Multiplicity = 1

                         Standard orientation:
 ---------------------------------------------------------------------
 Center     Atomic      Atomic             Coordinates (Angstroms)
 Number     Number       Type             X           Y           Z
 ---------------------------------------------------------------------
      1          8           0        0.000000    0.114872    0.000000
      2          1           0        0.772687   -0.451033    0.000000
      3          1           0       -0.772687   -0.467947    0.000000
 ---------------------------------------------------------------------

 SCF Done:  E(RB2PLYPD3) =  -76.3348702856     A.U. after   10 cycles
 E2(B2PLYPD3) =    -0.9006849261D-01 E(B2PLYPD3) =    -0.76424938778217D+02

 The electronic state is 1-A'.
 Alpha  occ. eigenvalues --  -19.73107  -1.15339  -0.61471  -0.47011  -0.39879
 Alpha virt. eigenvalues --    0.04527   0.10134   0.27504   0.30429   0.31111
 Alpha virt. eigenvalues --    0.35375   0.43850   0.50635   0.55894   0.62781
 Alpha virt. eigenvalues --    0.65688   0.80899   0.93513   0.96071   1.03997

 Mulliken charges:
               1
     1  O   -0.450975
     2  H    0.223268
     3  H    0.227707
 Sum of Mulliken charges =   0.00000

 Dipole moment (field-independent basis, Debye):
    X=              0.0049    Y=             -1.9308    Z=              0.0000  Tot=              1.9308
 Quadrupole moment (field-independent basis, Debye-Ang):
   XX=             -4.2376   YY=             -6.3903   ZZ=             -7.6069
   XY=              0.0287   XZ=              0.0000   YZ=              0.0000

 1\1\GINC-NODE19\SP\RB2PLYPD3-FC\def2QZVP\H2O1\BOITTIER\26-Aug-2020\0\\
 #p B2PLYPD3/Def2QZVP\\h2o\\0,1\O,0,-5.326605,-0.763168,0.918379\H,0,-4
 .368927,-0.757724,0.929218\H,0,-5.609308,0.152458,0.782613\\Version=ES
 64L-G09RevD.01\State=1-A'\HF=-76.3348703\MP2=-76.4249388\RMSD=3.915e-0
 9\PG=CS [SG(H2O1)]\\@

 NATURE REVEALS EVERY SECRET ONCE.

 Normal termination of Gaussian 09 at Wed Aug 26 10:48:44 2020.
