 Gaussian 09, Revision D.01,
 Gaussian 09:  ES64L-G09RevD.01 24-Apr-2013

 --------------------
 #p B2PLYPD3/Def2QZVP
 --------------------

 ---
 h2o
 ---
 Symbolic Z-matrix:
 Charge =  0 Multiplicity = 1

                         Standard orientation:
 ---------------------------------------------------------------------
 Center     Atomic      Atomic             Coordinates (Angstroms)
 Number     Number       Type             X           Y           Z
 ---------------------------------------------------------------------
      1          8           0        0.000000    0.117147    0.000000
      2          1           0        0.755126   -0.475193    0.000000
      3          1           0       -0.755126   -0.461986    0.000000
 ---------------------------------------------------------------------

 SCF Done:  E(RB2PLYPD3) =  -76.3351705194     A.U. after   10 cycles
 E2(B2PLYPD3) =    -0.8990230250D-01 E(B2PLYPD3) =    -0.76425072821915D+02

 The electronic state is 1-A'.
 Alpha  occ. eigenvalues --  -19.73092  -1.15842  -0.61369  -0.47551  -0.39998
 Alpha virt. eigenvalues --    0.04565   0.10242   0.27498   0.30404   0.31023
 Alpha virt. eigenvalues --    0.36083   0.44063   0.50240   0.56335   0.62135
 Alpha virt. eigenvalues --    0.65561   0.81247   0.93948   0.95865   1.04026

 Mulliken charges:
               1
     1  O   -0.440147
     2  H    0.221909
     3  H    0.218238
 Sum of Mulliken charges =   0.00000

 Dipole moment (field-independent basis, Debye):
    X=             -0.0041    Y=             -1.9629    Z=              0.0000  Tot=              1.9629
 Quadrupole moment (field-independent basis, Debye-Ang):
   XX=             -4.3546   YY=             -6.3168   ZZ=             -7.5861
   XY=             -0.0216   XZ=              0.0000   YZ=              0.0000

 1\1\GINC-NODE28\SP\RB2PLYPD3-FC\def2QZVP\H2O1\BOITTIER\26-Aug-2020\0\\
 #p B2PLYPD3/Def2QZVP\\h2o\\0,1\O,0,-5.326605,-0.763362,0.925279\H,0,-4
 .368927,-0.725434,0.87532\H,0,-5.609308,0.123267,0.726336\\Version=ES6
 4L-G09RevD.01\State=1-A'\HF=-76.3351705\MP2=-76.4250728\RMSD=4.156e-09
 \PG=CS [SG(H2O1)]\\@

 THE MEEK SHALL INHERIT THE EARTH.

 Normal termination of Gaussian 09 at Wed Aug 26 10:56:22 2020.
