 Gaussian 09, Revision D.01,
 Gaussian 09:  ES64L-G09RevD.01 24-Apr-2013

 --------------------
 #p B2PLYPD3/Def2QZVP
 --------------------

 ---
 h2o
 ---
 Symbolic Z-matrix:
 Charge =  0 Multiplicity = 1

                         Standard orientation:
 ---------------------------------------------------------------------
 Center     Atomic      Atomic             Coordinates (Angstroms)
 Number     Number       Type             X           Y           Z
 ---------------------------------------------------------------------
      1          8           0        0.000000    0.123065    0.000000
      2          1           0        0.788823   -0.421084    0.000000
      3          1           0       -0.788823   -0.563434    0.000000
 ---------------------------------------------------------------------

 SCF Done:  E(RB2PLYPD3) =  -76.3276345475     A.U. after   10 cycles
 E2(B2PLYPD3) =    -0.9145494474D-01 E(B2PLYPD3) =    -0.76419089492277D+02

 The electronic state is 1-A'.
 Alpha  occ. eigenvalues --  -19.73772  -1.13907  -0.59337  -0.46913  -0.39637
 Alpha virt. eigenvalues --    0.03914   0.09793   0.27743   0.29493   0.30505
 Alpha virt. eigenvalues --    0.34460   0.43029   0.49785   0.55671   0.61787
 Alpha virt. eigenvalues --    0.66578   0.79981   0.91750   0.96746   1.00714

 Mulliken charges:
               1
     1  O   -0.468201
     2  H    0.218938
     3  H    0.249263
 Sum of Mulliken charges =   0.00000

 Dipole moment (field-independent basis, Debye):
    X=              0.0449    Y=             -1.9951    Z=              0.0000  Tot=              1.9956
 Quadrupole moment (field-independent basis, Debye-Ang):
   XX=             -4.2701   YY=             -6.3157   ZZ=             -7.6881
   XY=              0.2375   XZ=              0.0000   YZ=              0.0000

 1\1\GINC-NODE28\SP\RB2PLYPD3-FC\def2QZVP\H2O1\BOITTIER\26-Aug-2020\0\\
 #p B2PLYPD3/Def2QZVP\\h2o\\0,1\O,0,-5.326605,-0.76841,0.920753\H,0,-4.
 368927,-0.741883,0.942875\H,0,-5.609308,0.22049,0.731868\\Version=ES64
 L-G09RevD.01\State=1-A'\HF=-76.3276345\MP2=-76.4190895\RMSD=6.105e-09\
 PG=CS [SG(H2O1)]\\@

 THE MORE POWERFUL THE METHOD, THE MORE CATASTROPHIC THE ERRORS.

 Normal termination of Gaussian 09 at Wed Aug 26 09:03:19 2020.
