 Gaussian 09, Revision D.01,
 Gaussian 09:  ES64L-G09RevD.01 24-Apr-2013

 --------------------
 #p B2PLYPD3/Def2QZVP
 --------------------

 ---
 h2o
 ---
 Symbolic Z-matrix:
 Charge =  0 Multiplicity = 1

                         Standard orientation:
 ---------------------------------------------------------------------
 Center     Atomic      Atomic             Coordinates (Angstroms)
 Number     Number       Type             X           Y           Z
 ---------------------------------------------------------------------
      1          8           0        0.000000    0.117130    0.000000
      2          1           0        0.740854   -0.505779    0.000000
      3          1           0       -0.740854   -0.431259    0.000000
 ---------------------------------------------------------------------

 SCF Done:  E(RB2PLYPD3) =  -76.3339401017     A.U. after   10 cycles
 E2(B2PLYPD3) =    -0.8957885490D-01 E(B2PLYPD3) =    -0.76423518956641D+02

 The electronic state is 1-A'.
 Alpha  occ. eigenvalues --  -19.72944  -1.16488  -0.61689  -0.47875  -0.40119
 Alpha virt. eigenvalues --    0.04638   0.10364   0.27428   0.30372   0.31040
 Alpha virt. eigenvalues --    0.36747   0.44451   0.50168   0.56591   0.61951
 Alpha virt. eigenvalues --    0.65280   0.81535   0.94179   0.95672   1.04303

 Mulliken charges:
               1
     1  O   -0.427622
     2  H    0.224985
     3  H    0.202637
 Sum of Mulliken charges =   0.00000

 Dipole moment (field-independent basis, Debye):
    X=             -0.0241    Y=             -1.9704    Z=              0.0000  Tot=              1.9705
 Quadrupole moment (field-independent basis, Debye-Ang):
   XX=             -4.4221   YY=             -6.2758   ZZ=             -7.5589
   XY=             -0.1191   XZ=              0.0000   YZ=              0.0000

 1\1\GINC-NODE30\SP\RB2PLYPD3-FC\def2QZVP\H2O1\BOITTIER\26-Aug-2020\0\\
 #p B2PLYPD3/Def2QZVP\\h2o\\0,1\O,0,-5.326605,-0.760625,0.933014\H,0,-4
 .368927,-0.725829,0.796915\H,0,-5.609308,0.079876,0.681552\\Version=ES
 64L-G09RevD.01\State=1-A'\HF=-76.3339401\MP2=-76.423519\RMSD=5.331e-09
 \PG=CS [SG(H2O1)]\\@

 KEEP CLOSE TO NATURES HEART, YOURSELF;

 Normal termination of Gaussian 09 at Wed Aug 26 08:38:46 2020.
