 Gaussian 09, Revision D.01,
 Gaussian 09:  ES64L-G09RevD.01 24-Apr-2013

 --------------------
 #p B2PLYPD3/Def2QZVP
 --------------------

 ---
 h2o
 ---
 Symbolic Z-matrix:
 Charge =  0 Multiplicity = 1

                         Standard orientation:
 ---------------------------------------------------------------------
 Center     Atomic      Atomic             Coordinates (Angstroms)
 Number     Number       Type             X           Y           Z
 ---------------------------------------------------------------------
      1          8           0        0.000000    0.114510    0.000000
      2          1           0        0.751161   -0.488834    0.000000
      3          1           0       -0.751161   -0.427246    0.000000
 ---------------------------------------------------------------------

 SCF Done:  E(RB2PLYPD3) =  -76.3344906668     A.U. after   10 cycles
 E2(B2PLYPD3) =    -0.8952045647D-01 E(B2PLYPD3) =    -0.76424011123280D+02

 The electronic state is 1-A'.
 Alpha  occ. eigenvalues --  -19.72867  -1.16323  -0.62069  -0.47498  -0.40070
 Alpha virt. eigenvalues --    0.04687   0.10326   0.27403   0.30378   0.31255
 Alpha virt. eigenvalues --    0.36414   0.44414   0.50528   0.56300   0.62534
 Alpha virt. eigenvalues --    0.65249   0.81453   0.94045   0.95692   1.04749

 Mulliken charges:
               1
     1  O   -0.432224
     2  H    0.225206
     3  H    0.207017
 Sum of Mulliken charges =   0.00000

 Dipole moment (field-independent basis, Debye):
    X=             -0.0187    Y=             -1.9397    Z=              0.0000  Tot=              1.9397
 Quadrupole moment (field-independent basis, Debye-Ang):
   XX=             -4.3374   YY=             -6.3355   ZZ=             -7.5626
   XY=             -0.1014   XZ=              0.0000   YZ=              0.0000

 1\1\GINC-NODE26\SP\RB2PLYPD3-FC\def2QZVP\H2O1\BOITTIER\26-Aug-2020\0\\
 #p B2PLYPD3/Def2QZVP\\h2o\\0,1\O,0,-5.326605,-0.76022,0.929242\H,0,-4.
 368927,-0.74754,0.824554\H,0,-5.609308,0.095097,0.714174\\Version=ES64
 L-G09RevD.01\State=1-A'\HF=-76.3344907\MP2=-76.4240111\RMSD=4.943e-09\
 PG=CS [SG(H2O1)]\\@

 THE MORE PROGRESS PHYSICAL SCIENCES MAKE, THE MORE THEY TEND TO ENTER

 Normal termination of Gaussian 09 at Wed Aug 26 08:57:58 2020.
