 Gaussian 09, Revision D.01,
 Gaussian 09:  ES64L-G09RevD.01 24-Apr-2013

 --------------------
 #p B2PLYPD3/Def2QZVP
 --------------------

 ---
 h2o
 ---
 Symbolic Z-matrix:
 Charge =  0 Multiplicity = 1

                         Standard orientation:
 ---------------------------------------------------------------------
 Center     Atomic      Atomic             Coordinates (Angstroms)
 Number     Number       Type             X           Y           Z
 ---------------------------------------------------------------------
      1          8           0        0.000000    0.125810    0.000000
      2          1           0        0.750867   -0.482924    0.000000
      3          1           0       -0.750867   -0.523558    0.000000
 ---------------------------------------------------------------------

 SCF Done:  E(RB2PLYPD3) =  -76.3328302726     A.U. after   10 cycles
 E2(B2PLYPD3) =    -0.9085158822D-01 E(B2PLYPD3) =    -0.76423681860828D+02

 The electronic state is 1-A'.
 Alpha  occ. eigenvalues --  -19.73645  -1.15044  -0.59501  -0.48046  -0.39908
 Alpha virt. eigenvalues --    0.04201   0.10078   0.27734   0.30082   0.30443
 Alpha virt. eigenvalues --    0.35669   0.43445   0.49317   0.56680   0.60711
 Alpha virt. eigenvalues --    0.66230   0.80862   0.93689   0.96311   1.01542

 Mulliken charges:
               1
     1  O   -0.448097
     2  H    0.219028
     3  H    0.229069
 Sum of Mulliken charges =   0.00000

 Dipole moment (field-independent basis, Debye):
    X=              0.0146    Y=             -2.0448    Z=              0.0000  Tot=              2.0449
 Quadrupole moment (field-independent basis, Debye-Ang):
   XX=             -4.4965   YY=             -6.1974   ZZ=             -7.6324
   XY=              0.0629   XZ=              0.0000   YZ=              0.0000

 1\1\GINC-NODE35\SP\RB2PLYPD3-FC\def2QZVP\H2O1\BOITTIER\26-Aug-2020\0\\
 #p B2PLYPD3/Def2QZVP\\h2o\\0,1\O,0,-5.326605,-0.766655,0.933674\H,0,-4
 .368927,-0.687782,0.828834\H,0,-5.609308,0.138307,0.63939\\Version=ES6
 4L-G09RevD.01\State=1-A'\HF=-76.3328303\MP2=-76.4236819\RMSD=4.558e-09
 \PG=CS [SG(H2O1)]\\@

 REFRAIN FROM ILLUSIONS, INSIST ON WORK AND NOT WORDS,

 Normal termination of Gaussian 09 at Wed Aug 26 07:47:51 2020.
