 Gaussian 09, Revision D.01,
 Gaussian 09:  ES64L-G09RevD.01 24-Apr-2013

 --------------------
 #p B2PLYPD3/Def2QZVP
 --------------------

 ---
 h2o
 ---
 Symbolic Z-matrix:
 Charge =  0 Multiplicity = 1

                         Standard orientation:
 ---------------------------------------------------------------------
 Center     Atomic      Atomic             Coordinates (Angstroms)
 Number     Number       Type             X           Y           Z
 ---------------------------------------------------------------------
      1          8           0        0.000000    0.115031    0.000000
      2          1           0        0.769133   -0.459808    0.000000
      3          1           0       -0.769133   -0.460436    0.000000
 ---------------------------------------------------------------------

 SCF Done:  E(RB2PLYPD3) =  -76.3350548087     A.U. after   10 cycles
 E2(B2PLYPD3) =    -0.8999889576D-01 E(B2PLYPD3) =    -0.76425053704435D+02

 The electronic state is 1-A'.
 Alpha  occ. eigenvalues --  -19.73084  -1.15472  -0.61522  -0.47106  -0.39908
 Alpha virt. eigenvalues --    0.04550   0.10162   0.27496   0.30422   0.31131
 Alpha virt. eigenvalues --    0.35534   0.43917   0.50587   0.55974   0.62700
 Alpha virt. eigenvalues --    0.65636   0.80992   0.93622   0.96011   1.04124

 Mulliken charges:
               1
     1  O   -0.448390
     2  H    0.224111
     3  H    0.224279
 Sum of Mulliken charges =   0.00000

 Dipole moment (field-independent basis, Debye):
    X=              0.0002    Y=             -1.9345    Z=              0.0000  Tot=              1.9345
 Quadrupole moment (field-independent basis, Debye-Ang):
   XX=             -4.2573   YY=             -6.3793   ZZ=             -7.6007
   XY=              0.0011   XZ=              0.0000   YZ=              0.0000

 1\1\GINC-NODE27\SP\RB2PLYPD3-FC\def2QZVP\H2O1\BOITTIER\26-Aug-2020\0\\
 #p B2PLYPD3/Def2QZVP\\h2o\\0,1\O,0,-5.326605,-0.761585,0.926286\H,0,-4
 .368927,-0.765726,0.856713\H,0,-5.609308,0.135133,0.729556\\Version=ES
 64L-G09RevD.01\State=1-A'\HF=-76.3350548\MP2=-76.4250537\RMSD=3.889e-0
 9\PG=CS [SG(H2O1)]\\@

 Everything starts as somebody's daydream.

 Normal termination of Gaussian 09 at Wed Aug 26 08:35:58 2020.
