 Gaussian 09, Revision D.01,
 Gaussian 09:  ES64L-G09RevD.01 24-Apr-2013

 --------------------
 #p B2PLYPD3/Def2QZVP
 --------------------

 ---
 h2o
 ---
 Symbolic Z-matrix:
 Charge =  0 Multiplicity = 1

                         Standard orientation:
 ---------------------------------------------------------------------
 Center     Atomic      Atomic             Coordinates (Angstroms)
 Number     Number       Type             X           Y           Z
 ---------------------------------------------------------------------
      1          8           0        0.000000    0.118939    0.000000
      2          1           0        0.774310   -0.454432    0.000000
      3          1           0       -0.774310   -0.497082    0.000000
 ---------------------------------------------------------------------

 SCF Done:  E(RB2PLYPD3) =  -76.3336665201     A.U. after   10 cycles
 E2(B2PLYPD3) =    -0.9057151041D-01 E(B2PLYPD3) =    -0.76424238030466D+02

 The electronic state is 1-A'.
 Alpha  occ. eigenvalues --  -19.73393  -1.14846  -0.60533  -0.47163  -0.39811
 Alpha virt. eigenvalues --    0.04332   0.10031   0.27617   0.30456   0.30610
 Alpha virt. eigenvalues --    0.35102   0.43503   0.50155   0.55982   0.62135
 Alpha virt. eigenvalues --    0.66059   0.80667   0.93197   0.96290   1.02586

 Mulliken charges:
               1
     1  O   -0.456688
     2  H    0.223120
     3  H    0.233568
 Sum of Mulliken charges =   0.00000

 Dipole moment (field-independent basis, Debye):
    X=              0.0131    Y=             -1.9681    Z=              0.0000  Tot=              1.9682
 Quadrupole moment (field-independent basis, Debye-Ang):
   XX=             -4.2855   YY=             -6.3436   ZZ=             -7.6342
   XY=              0.0711   XZ=              0.0000   YZ=              0.0000

 1\1\GINC-NODE06\SP\RB2PLYPD3-FC\def2QZVP\H2O1\BOITTIER\26-Aug-2020\0\\
 #p B2PLYPD3/Def2QZVP\\h2o\\0,1\O,0,-5.326605,-0.766399,0.910652\H,0,-4
 .368927,-0.731423,1.01035\H,0,-5.609308,0.177855,0.824048\\Version=ES6
 4L-G09RevD.01\State=1-A'\HF=-76.3336665\MP2=-76.424238\RMSD=4.232e-09\
 PG=CS [SG(H2O1)]\\@

 THE WORLD IS NOT A HAMBURGER - YOU CAN'T HAVE IT YOUR WAY.

 Normal termination of Gaussian 09 at Wed Aug 26 08:52:16 2020.
