 Gaussian 09, Revision D.01,
 Gaussian 09:  ES64L-G09RevD.01 24-Apr-2013

 --------------------
 #p B2PLYPD3/Def2QZVP
 --------------------

 ---
 h2o
 ---
 Symbolic Z-matrix:
 Charge =  0 Multiplicity = 1

                         Standard orientation:
 ---------------------------------------------------------------------
 Center     Atomic      Atomic             Coordinates (Angstroms)
 Number     Number       Type             X           Y           Z
 ---------------------------------------------------------------------
      1          8           0        0.000000    0.119740    0.000000
      2          1           0        0.809936   -0.398728    0.000000
      3          1           0       -0.809936   -0.559196    0.000000
 ---------------------------------------------------------------------

 SCF Done:  E(RB2PLYPD3) =  -76.3255648786     A.U. after   10 cycles
 E2(B2PLYPD3) =    -0.9160719593D-01 E(B2PLYPD3) =    -0.76417172074528D+02

 The electronic state is 1-A'.
 Alpha  occ. eigenvalues --  -19.73733  -1.13434  -0.59530  -0.46250  -0.39502
 Alpha virt. eigenvalues --    0.03835   0.09676   0.27675   0.29468   0.30535
 Alpha virt. eigenvalues --    0.33899   0.42845   0.50358   0.55127   0.62623
 Alpha virt. eigenvalues --    0.66681   0.79423   0.91138   0.96854   1.00704

 Mulliken charges:
               1
     1  O   -0.479573
     2  H    0.223615
     3  H    0.255958
 Sum of Mulliken charges =   0.00000

 Dipole moment (field-independent basis, Debye):
    X=              0.0454    Y=             -1.9511    Z=              0.0000  Tot=              1.9516
 Quadrupole moment (field-independent basis, Debye-Ang):
   XX=             -4.1160   YY=             -6.4072   ZZ=             -7.7102
   XY=              0.2808   XZ=              0.0000   YZ=              0.0000

 1\1\GINC-NODE04\SP\RB2PLYPD3-FC\def2QZVP\H2O1\BOITTIER\26-Aug-2020\0\\
 #p B2PLYPD3/Def2QZVP\\h2o\\0,1\O,0,-5.326605,-0.766927,0.912829\H,0,-4
 .368927,-0.790736,0.997041\H,0,-5.609308,0.245615,0.804253\\Version=ES
 64L-G09RevD.01\State=1-A'\HF=-76.3255649\MP2=-76.4171721\RMSD=6.819e-0
 9\PG=CS [SG(H2O1)]\\@

 IF YOU'RE NOT PART OF THE SOLUTION,

 Normal termination of Gaussian 09 at Wed Aug 26 09:02:43 2020.
