 Gaussian 09, Revision D.01,
 Gaussian 09:  ES64L-G09RevD.01 24-Apr-2013

 --------------------
 #p B2PLYPD3/Def2QZVP
 --------------------

 ---
 h2o
 ---
 Symbolic Z-matrix:
 Charge =  0 Multiplicity = 1

                         Standard orientation:
 ---------------------------------------------------------------------
 Center     Atomic      Atomic             Coordinates (Angstroms)
 Number     Number       Type             X           Y           Z
 ---------------------------------------------------------------------
      1          8           0        0.000000    0.120421    0.000000
      2          1           0        0.720837   -0.523212    0.000000
      3          1           0       -0.720837   -0.440158    0.000000
 ---------------------------------------------------------------------

 SCF Done:  E(RB2PLYPD3) =  -76.3326520582     A.U. after   10 cycles
 E2(B2PLYPD3) =    -0.8951547690D-01 E(B2PLYPD3) =    -0.76422167535098D+02

 The electronic state is 1-A'.
 Alpha  occ. eigenvalues --  -19.72974  -1.16997  -0.61316  -0.48531  -0.40237
 Alpha virt. eigenvalues --    0.04612   0.10469   0.27434   0.30351   0.30857
 Alpha virt. eigenvalues --    0.37416   0.44652   0.49748   0.57108   0.61128
 Alpha virt. eigenvalues --    0.65193   0.81693   0.94606   0.95548   1.04189

 Mulliken charges:
               1
     1  O   -0.416781
     2  H    0.221540
     3  H    0.195242
 Sum of Mulliken charges =   0.00000

 Dipole moment (field-independent basis, Debye):
    X=             -0.0296    Y=             -2.0124    Z=              0.0000  Tot=              2.0126
 Quadrupole moment (field-independent basis, Debye-Ang):
   XX=             -4.5608   YY=             -6.1828   ZZ=             -7.5419
   XY=             -0.1260   XZ=              0.0000   YZ=              0.0000

 1\1\GINC-NODE01\SP\RB2PLYPD3-FC\def2QZVP\H2O1\BOITTIER\26-Aug-2020\0\\
 #p B2PLYPD3/Def2QZVP\\h2o\\0,1\O,0,-5.326605,-0.766015,0.923673\H,0,-4
 .368927,-0.638261,0.903617\H,0,-5.609308,0.078543,0.722037\\Version=ES
 64L-G09RevD.01\State=1-A'\HF=-76.3326521\MP2=-76.4221675\RMSD=5.850e-0
 9\PG=CS [SG(H2O1)]\\@

 YOU KNOW YOU'VE SPOKEN TOO LONG WHEN THE AUDIENCE STOPS LOOKING AT

 Normal termination of Gaussian 09 at Wed Aug 26 09:21:32 2020.
