 Gaussian 09, Revision D.01,
 Gaussian 09:  ES64L-G09RevD.01 24-Apr-2013

 --------------------
 #p B2PLYPD3/Def2QZVP
 --------------------

 ---
 h2o
 ---
 Symbolic Z-matrix:
 Charge =  0 Multiplicity = 1

                         Standard orientation:
 ---------------------------------------------------------------------
 Center     Atomic      Atomic             Coordinates (Angstroms)
 Number     Number       Type             X           Y           Z
 ---------------------------------------------------------------------
      1          8           0        0.000000    0.119397    0.000000
      2          1           0        0.746944   -0.485951    0.000000
      3          1           0       -0.746944   -0.469224    0.000000
 ---------------------------------------------------------------------

 SCF Done:  E(RB2PLYPD3) =  -76.3349744349     A.U. after   10 cycles
 E2(B2PLYPD3) =    -0.8997233356D-01 E(B2PLYPD3) =    -0.76424946768410D+02

 The electronic state is 1-A'.
 Alpha  occ. eigenvalues --  -19.73168  -1.15939  -0.61030  -0.47862  -0.40034
 Alpha virt. eigenvalues --    0.04525   0.10267   0.27529   0.30399   0.30856
 Alpha virt. eigenvalues --    0.36326   0.44057   0.49947   0.56581   0.61645
 Alpha virt. eigenvalues --    0.65609   0.81309   0.94116   0.95850   1.03656

 Mulliken charges:
               1
     1  O   -0.437045
     2  H    0.220866
     3  H    0.216179
 Sum of Mulliken charges =   0.00000

 Dipole moment (field-independent basis, Debye):
    X=             -0.0055    Y=             -1.9887    Z=              0.0000  Tot=              1.9887
 Quadrupole moment (field-independent basis, Debye-Ang):
   XX=             -4.4249   YY=             -6.2680   ZZ=             -7.5843
   XY=             -0.0266   XZ=              0.0000   YZ=              0.0000

 1\1\GINC-NODE01\SP\RB2PLYPD3-FC\def2QZVP\H2O1\BOITTIER\26-Aug-2020\0\\
 #p B2PLYPD3/Def2QZVP\\h2o\\0,1\O,0,-5.326605,-0.764558,0.926646\H,0,-4
 .368927,-0.69976,0.871646\H,0,-5.609308,0.116725,0.707971\\Version=ES6
 4L-G09RevD.01\State=1-A'\HF=-76.3349744\MP2=-76.4249468\RMSD=4.341e-09
 \PG=CS [SG(H2O1)]\\@

  THE LARGE PRINT GIVETH,

 Normal termination of Gaussian 09 at Wed Aug 26 08:31:01 2020.
