 Gaussian 09, Revision D.01,
 Gaussian 09:  ES64L-G09RevD.01 24-Apr-2013

 --------------------
 #p B2PLYPD3/Def2QZVP
 --------------------

 ---
 h2o
 ---
 Symbolic Z-matrix:
 Charge =  0 Multiplicity = 1

                         Standard orientation:
 ---------------------------------------------------------------------
 Center     Atomic      Atomic             Coordinates (Angstroms)
 Number     Number       Type             X           Y           Z
 ---------------------------------------------------------------------
      1          8           0        0.000000    0.116436    0.000000
      2          1           0        0.761850   -0.464910    0.000000
      3          1           0       -0.761850   -0.466577    0.000000
 ---------------------------------------------------------------------

 SCF Done:  E(RB2PLYPD3) =  -76.3351424066     A.U. after   10 cycles
 E2(B2PLYPD3) =    -0.8998078552D-01 E(B2PLYPD3) =    -0.76425123192151D+02

 The electronic state is 1-A'.
 Alpha  occ. eigenvalues --  -19.73109  -1.15631  -0.61378  -0.47352  -0.39951
 Alpha virt. eigenvalues --    0.04547   0.10197   0.27506   0.30414   0.31044
 Alpha virt. eigenvalues --    0.35806   0.43967   0.50366   0.56173   0.62354
 Alpha virt. eigenvalues --    0.65623   0.81119   0.93778   0.95947   1.03978

 Mulliken charges:
               1
     1  O   -0.444483
     2  H    0.222015
     3  H    0.222468
 Sum of Mulliken charges =   0.00000

 Dipole moment (field-independent basis, Debye):
    X=              0.0005    Y=             -1.9522    Z=              0.0000  Tot=              1.9522
 Quadrupole moment (field-independent basis, Debye-Ang):
   XX=             -4.3122   YY=             -6.3432   ZZ=             -7.5948
   XY=              0.0028   XZ=              0.0000   YZ=              0.0000

 1\1\GINC-NODE40\SP\RB2PLYPD3-FC\def2QZVP\H2O1\BOITTIER\26-Aug-2020\0\\
 #p B2PLYPD3/Def2QZVP\\h2o\\0,1\O,0,-5.326605,-0.763608,0.922147\H,0,-4
 .368927,-0.73501,0.901811\H,0,-5.609308,0.136779,0.749805\\Version=ES6
 4L-G09RevD.01\State=1-A'\HF=-76.3351424\MP2=-76.4251232\RMSD=4.006e-09
 \PG=CS [SG(H2O1)]\\@

 HE WHO LOVES TO READ, AND KNOWS HOW TO REFLECT,

 Normal termination of Gaussian 09 at Wed Aug 26 09:55:03 2020.
