 Gaussian 09, Revision D.01,
 Gaussian 09:  ES64L-G09RevD.01 24-Apr-2013

 --------------------
 #p B2PLYPD3/Def2QZVP
 --------------------

 ---
 h2o
 ---
 Symbolic Z-matrix:
 Charge =  0 Multiplicity = 1

                         Standard orientation:
 ---------------------------------------------------------------------
 Center     Atomic      Atomic             Coordinates (Angstroms)
 Number     Number       Type             X           Y           Z
 ---------------------------------------------------------------------
      1          8           0        0.000000    0.121161    0.000000
      2          1           0        0.710520   -0.539041    0.000000
      3          1           0       -0.710520   -0.430247    0.000000
 ---------------------------------------------------------------------

 SCF Done:  E(RB2PLYPD3) =  -76.3306511535     A.U. after   10 cycles
 E2(B2PLYPD3) =    -0.8938802287D-01 E(B2PLYPD3) =    -0.76420039176412D+02

 The electronic state is 1-A'.
 Alpha  occ. eigenvalues --  -19.72916  -1.17397  -0.61333  -0.48802  -0.40310
 Alpha virt. eigenvalues --    0.04613   0.10540   0.27398   0.30334   0.30789
 Alpha virt. eigenvalues --    0.37769   0.44900   0.49657   0.57299   0.60895
 Alpha virt. eigenvalues --    0.65045   0.81777   0.94666   0.95496   1.04245

 Mulliken charges:
               1
     1  O   -0.408560
     2  H    0.222273
     3  H    0.186288
 Sum of Mulliken charges =   0.00000

 Dipole moment (field-independent basis, Debye):
    X=             -0.0399    Y=             -2.0244    Z=              0.0000  Tot=              2.0248
 Quadrupole moment (field-independent basis, Debye-Ang):
   XX=             -4.6175   YY=             -6.1436   ZZ=             -7.5280
   XY=             -0.1616   XZ=              0.0000   YZ=              0.0000

 1\1\GINC-NODE02\SP\RB2PLYPD3-FC\def2QZVP\H2O1\BOITTIER\26-Aug-2020\0\\
 #p B2PLYPD3/Def2QZVP\\h2o\\0,1\O,0,-5.326605,-0.765416,0.927832\H,0,-4
 .368927,-0.624606,0.866748\H,0,-5.609308,0.055314,0.692521\\Version=ES
 64L-G09RevD.01\State=1-A'\HF=-76.3306512\MP2=-76.4200392\RMSD=6.419e-0
 9\PG=CS [SG(H2O1)]\\@

 THE PROMISED LAND ALWAYS LIES ON THE OTHER SIDE OF A WILDERNESS.

 Normal termination of Gaussian 09 at Wed Aug 26 08:36:10 2020.
