 Gaussian 09, Revision D.01,
 Gaussian 09:  ES64L-G09RevD.01 24-Apr-2013

 --------------------
 #p B2PLYPD3/Def2QZVP
 --------------------

 ---
 h2o
 ---
 Symbolic Z-matrix:
 Charge =  0 Multiplicity = 1

                         Standard orientation:
 ---------------------------------------------------------------------
 Center     Atomic      Atomic             Coordinates (Angstroms)
 Number     Number       Type             X           Y           Z
 ---------------------------------------------------------------------
      1          8           0        0.000000    0.111074    0.000000
      2          1           0        0.806283   -0.411382    0.000000
      3          1           0       -0.806283   -0.477213    0.000000
 ---------------------------------------------------------------------

 SCF Done:  E(RB2PLYPD3) =  -76.3321045754     A.U. after   10 cycles
 E2(B2PLYPD3) =    -0.9051558460D-01 E(B2PLYPD3) =    -0.76422620159951D+02

 The electronic state is 1-A'.
 Alpha  occ. eigenvalues --  -19.73167  -1.14333  -0.61415  -0.46008  -0.39631
 Alpha virt. eigenvalues --    0.04366   0.09908   0.27507   0.30486   0.31102
 Alpha virt. eigenvalues --    0.34045   0.43401   0.51463   0.55064   0.63937
 Alpha virt. eigenvalues --    0.66037   0.79912   0.92631   0.96597   1.03289

 Mulliken charges:
               1
     1  O   -0.473132
     2  H    0.228909
     3  H    0.244223
 Sum of Mulliken charges =   0.00000

 Dipole moment (field-independent basis, Debye):
    X=              0.0161    Y=             -1.8732    Z=              0.0000  Tot=              1.8732
 Quadrupole moment (field-independent basis, Debye-Ang):
   XX=             -4.0162   YY=             -6.5210   ZZ=             -7.6534
   XY=              0.1196   XZ=              0.0000   YZ=              0.0000

 1\1\GINC-NODE25\SP\RB2PLYPD3-FC\def2QZVP\H2O1\BOITTIER\26-Aug-2020\0\\
 #p B2PLYPD3/Def2QZVP\\h2o\\0,1\O,0,-5.326605,-0.760842,0.915479\H,0,-4
 .368927,-0.83413,0.938578\H,0,-5.609308,0.19165,0.820548\\Version=ES64
 L-G09RevD.01\State=1-A'\HF=-76.3321046\MP2=-76.4226202\RMSD=4.626e-09\
 PG=CS [SG(H2O1)]\\@

 IT WAS A GAME, A VERY INTERESTING GAME ONE COULD

 Normal termination of Gaussian 09 at Wed Aug 26 09:07:28 2020.
