 Gaussian 09, Revision D.01,
 Gaussian 09:  ES64L-G09RevD.01 24-Apr-2013

 --------------------
 #p B2PLYPD3/Def2QZVP
 --------------------

 ---
 h2o
 ---
 Symbolic Z-matrix:
 Charge =  0 Multiplicity = 1

                         Standard orientation:
 ---------------------------------------------------------------------
 Center     Atomic      Atomic             Coordinates (Angstroms)
 Number     Number       Type             X           Y           Z
 ---------------------------------------------------------------------
      1          8           0        0.000000    0.123795    0.000000
      2          1           0        0.767530   -0.454192    0.000000
      3          1           0       -0.767530   -0.536167    0.000000
 ---------------------------------------------------------------------

 SCF Done:  E(RB2PLYPD3) =  -76.3316385516     A.U. after   10 cycles
 E2(B2PLYPD3) =    -0.9099967549D-01 E(B2PLYPD3) =    -0.76422638227063D+02

 The electronic state is 1-A'.
 Alpha  occ. eigenvalues --  -19.73651  -1.14618  -0.59623  -0.47523  -0.39802
 Alpha virt. eigenvalues --    0.04140   0.09975   0.27724   0.30005   0.30466
 Alpha virt. eigenvalues --    0.35142   0.43311   0.49578   0.56228   0.61295
 Alpha virt. eigenvalues --    0.66329   0.80578   0.92970   0.96465   1.01378

 Mulliken charges:
               1
     1  O   -0.456320
     2  H    0.218539
     3  H    0.237781
 Sum of Mulliken charges =   0.00000

 Dipole moment (field-independent basis, Debye):
    X=              0.0276    Y=             -2.0162    Z=              0.0000  Tot=              2.0164
 Quadrupole moment (field-independent basis, Debye-Ang):
   XX=             -4.3867   YY=             -6.2619   ZZ=             -7.6512
   XY=              0.1318   XZ=              0.0000   YZ=              0.0000

 1\1\GINC-NODE38\SP\RB2PLYPD3-FC\def2QZVP\H2O1\BOITTIER\26-Aug-2020\0\\
 #p B2PLYPD3/Def2QZVP\\h2o\\0,1\O,0,-5.326605,-0.767021,0.928712\H,0,-4
 .368927,-0.715363,0.870784\H,0,-5.609308,0.17175,0.676838\\Version=ES6
 4L-G09RevD.01\State=1-A'\HF=-76.3316386\MP2=-76.4226382\RMSD=4.942e-09
 \PG=CS [SG(H2O1)]\\@

 IF YOU PERCEIVE THAT THERE ARE FOUR POSSIBLE WAYS IN

 Normal termination of Gaussian 09 at Wed Aug 26 09:11:00 2020.
