 Gaussian 09, Revision D.01,
 Gaussian 09:  ES64L-G09RevD.01 24-Apr-2013

 --------------------
 #p B2PLYPD3/Def2QZVP
 --------------------

 ---
 h2o
 ---
 Symbolic Z-matrix:
 Charge =  0 Multiplicity = 1

                         Standard orientation:
 ---------------------------------------------------------------------
 Center     Atomic      Atomic             Coordinates (Angstroms)
 Number     Number       Type             X           Y           Z
 ---------------------------------------------------------------------
      1          8           0        0.000000    0.115121    0.000000
      2          1           0        0.768260   -0.457260    0.000000
      3          1           0       -0.768260   -0.463708    0.000000
 ---------------------------------------------------------------------

 SCF Done:  E(RB2PLYPD3) =  -76.3350707199     A.U. after   10 cycles
 E2(B2PLYPD3) =    -0.8998789120D-01 E(B2PLYPD3) =    -0.76425058611111D+02

 The electronic state is 1-A'.
 Alpha  occ. eigenvalues --  -19.73082  -1.15500  -0.61523  -0.47131  -0.39914
 Alpha virt. eigenvalues --    0.04553   0.10168   0.27495   0.30421   0.31128
 Alpha virt. eigenvalues --    0.35571   0.43930   0.50569   0.55995   0.62671
 Alpha virt. eigenvalues --    0.65628   0.81012   0.93642   0.95999   1.04128

 Mulliken charges:
               1
     1  O   -0.447806
     2  H    0.223040
     3  H    0.224766
 Sum of Mulliken charges =   0.00000

 Dipole moment (field-independent basis, Debye):
    X=              0.0019    Y=             -1.9359    Z=              0.0000  Tot=              1.9359
 Quadrupole moment (field-independent basis, Debye-Ang):
   XX=             -4.2629   YY=             -6.3759   ZZ=             -7.5996
   XY=              0.0109   XZ=              0.0000   YZ=              0.0000

 1\1\GINC-NODE01\SP\RB2PLYPD3-FC\def2QZVP\H2O1\BOITTIER\26-Aug-2020\0\\
 #p B2PLYPD3/Def2QZVP\\h2o\\0,1\O,0,-5.326605,-0.763458,0.917428\H,0,-4
 .368927,-0.747485,0.938448\H,0,-5.609308,0.146854,0.788284\\Version=ES
 64L-G09RevD.01\State=1-A'\HF=-76.3350707\MP2=-76.4250586\RMSD=3.911e-0
 9\PG=CS [SG(H2O1)]\\@

 WOMEN HOLD UP HALF THE SKY. -- MAO TSE TUNG

 Normal termination of Gaussian 09 at Wed Aug 26 09:49:31 2020.
