 Gaussian 09, Revision D.01,
 Gaussian 09:  ES64L-G09RevD.01 24-Apr-2013

 --------------------
 #p B2PLYPD3/Def2QZVP
 --------------------

 ---
 h2o
 ---
 Symbolic Z-matrix:
 Charge =  0 Multiplicity = 1

                         Standard orientation:
 ---------------------------------------------------------------------
 Center     Atomic      Atomic             Coordinates (Angstroms)
 Number     Number       Type             X           Y           Z
 ---------------------------------------------------------------------
      1          8           0        0.000000    0.123246    0.000000
      2          1           0        0.746208   -0.488519    0.000000
      3          1           0       -0.746208   -0.497452    0.000000
 ---------------------------------------------------------------------

 SCF Done:  E(RB2PLYPD3) =  -76.3342283130     A.U. after   10 cycles
 E2(B2PLYPD3) =    -0.9042003480D-01 E(B2PLYPD3) =    -0.76424648347802D+02

 The electronic state is 1-A'.
 Alpha  occ. eigenvalues --  -19.73428  -1.15525  -0.60163  -0.48059  -0.39983
 Alpha virt. eigenvalues --    0.04360   0.10186   0.27641   0.30420   0.30453
 Alpha virt. eigenvalues --    0.36077   0.43740   0.49551   0.56719   0.61025
 Alpha virt. eigenvalues --    0.65933   0.81110   0.94019   0.96070   1.02505

 Mulliken charges:
               1
     1  O   -0.441945
     2  H    0.219792
     3  H    0.222153
 Sum of Mulliken charges =   0.00000

 Dipole moment (field-independent basis, Debye):
    X=              0.0031    Y=             -2.0246    Z=              0.0000  Tot=              2.0246
 Quadrupole moment (field-independent basis, Debye-Ang):
   XX=             -4.4825   YY=             -6.2188   ZZ=             -7.6073
   XY=              0.0139   XZ=              0.0000   YZ=              0.0000

 1\1\GINC-NODE09\SP\RB2PLYPD3-FC\def2QZVP\H2O1\BOITTIER\26-Aug-2020\0\\
 #p B2PLYPD3/Def2QZVP\\h2o\\0,1\O,0,-5.326605,-0.765797,0.931161\H,0,-4
 .368927,-0.68683,0.84341\H,0,-5.609308,0.123623,0.664509\\Version=ES64
 L-G09RevD.01\State=1-A'\HF=-76.3342283\MP2=-76.4246483\RMSD=4.388e-09\
 PG=CS [SG(H2O1)]\\@

 THE MOST INCOMPREHENSIBLE THING ABOUT THE WORLD

 Normal termination of Gaussian 09 at Wed Aug 26 08:36:32 2020.
