 Gaussian 09, Revision D.01,
 Gaussian 09:  ES64L-G09RevD.01 24-Apr-2013

 --------------------
 #p B2PLYPD3/Def2QZVP
 --------------------

 ---
 h2o
 ---
 Symbolic Z-matrix:
 Charge =  0 Multiplicity = 1

                         Standard orientation:
 ---------------------------------------------------------------------
 Center     Atomic      Atomic             Coordinates (Angstroms)
 Number     Number       Type             X           Y           Z
 ---------------------------------------------------------------------
      1          8           0        0.000000    0.120293    0.000000
      2          1           0        0.739972   -0.494950    0.000000
      3          1           0       -0.739972   -0.467397    0.000000
 ---------------------------------------------------------------------

 SCF Done:  E(RB2PLYPD3) =  -76.3347528246     A.U. after   10 cycles
 E2(B2PLYPD3) =    -0.8991914169D-01 E(B2PLYPD3) =    -0.76424671966250D+02

 The electronic state is 1-A'.
 Alpha  occ. eigenvalues --  -19.73162  -1.16138  -0.60966  -0.48075  -0.40079
 Alpha virt. eigenvalues --    0.04530   0.10308   0.27526   0.30390   0.30814
 Alpha virt. eigenvalues --    0.36585   0.44141   0.49824   0.56754   0.61399
 Alpha virt. eigenvalues --    0.65558   0.81397   0.94289   0.95788   1.03657

 Mulliken charges:
               1
     1  O   -0.432964
     2  H    0.220430
     3  H    0.212534
 Sum of Mulliken charges =   0.00000

 Dipole moment (field-independent basis, Debye):
    X=             -0.0094    Y=             -2.0010    Z=              0.0000  Tot=              2.0011
 Quadrupole moment (field-independent basis, Debye-Ang):
   XX=             -4.4705   YY=             -6.2386   ZZ=             -7.5767
   XY=             -0.0432   XZ=              0.0000   YZ=              0.0000

 1\1\GINC-NODE13\SP\RB2PLYPD3-FC\def2QZVP\H2O1\BOITTIER\26-Aug-2020\0\\
 #p B2PLYPD3/Def2QZVP\\h2o\\0,1\O,0,-5.326605,-0.766143,0.92272\H,0,-4.
 368927,-0.672182,0.912361\H,0,-5.609308,0.114521,0.729202\\Version=ES6
 4L-G09RevD.01\State=1-A'\HF=-76.3347528\MP2=-76.424672\RMSD=4.579e-09\
 PG=CS [SG(H2O1)]\\@

 ABSOLUTISM, OBSOLETISM -- IF IT WORKS, IT'S OUT OF DATE

 Normal termination of Gaussian 09 at Wed Aug 26 12:05:57 2020.
