 Gaussian 09, Revision D.01,
 Gaussian 09:  ES64L-G09RevD.01 24-Apr-2013

 --------------------
 #p B2PLYPD3/Def2QZVP
 --------------------

 ---
 h2o
 ---
 Symbolic Z-matrix:
 Charge =  0 Multiplicity = 1

                         Standard orientation:
 ---------------------------------------------------------------------
 Center     Atomic      Atomic             Coordinates (Angstroms)
 Number     Number       Type             X           Y           Z
 ---------------------------------------------------------------------
      1          8           0        0.000000    0.121072    0.000000
      2          1           0        0.740358   -0.494266    0.000000
      3          1           0       -0.740358   -0.474308    0.000000
 ---------------------------------------------------------------------

 SCF Done:  E(RB2PLYPD3) =  -76.3347243972     A.U. after   10 cycles
 E2(B2PLYPD3) =    -0.9002077748D-01 E(B2PLYPD3) =    -0.76424745174726D+02

 The electronic state is 1-A'.
 Alpha  occ. eigenvalues --  -19.73221  -1.16029  -0.60778  -0.48104  -0.40064
 Alpha virt. eigenvalues --    0.04495   0.10288   0.27552   0.30396   0.30736
 Alpha virt. eigenvalues --    0.36510   0.44060   0.49747   0.56774   0.61280
 Alpha virt. eigenvalues --    0.65635   0.81347   0.94268   0.95839   1.03414

 Mulliken charges:
               1
     1  O   -0.434519
     2  H    0.220077
     3  H    0.214441
 Sum of Mulliken charges =   0.00000

 Dipole moment (field-independent basis, Debye):
    X=             -0.0069    Y=             -2.0080    Z=              0.0000  Tot=              2.0081
 Quadrupole moment (field-independent basis, Debye-Ang):
   XX=             -4.4796   YY=             -6.2303   ZZ=             -7.5824
   XY=             -0.0312   XZ=              0.0000   YZ=              0.0000

 1\1\GINC-NODE02\SP\RB2PLYPD3-FC\def2QZVP\H2O1\BOITTIER\26-Aug-2020\0\\
 #p B2PLYPD3/Def2QZVP\\h2o\\0,1\O,0,-5.326605,-0.766366,0.924137\H,0,-4
 .368927,-0.670692,0.902489\H,0,-5.609308,0.116591,0.716597\\Version=ES
 64L-G09RevD.01\State=1-A'\HF=-76.3347244\MP2=-76.4247452\RMSD=4.516e-0
 9\PG=CS [SG(H2O1)]\\@

 NOT WHAT WE DID SHALL BE THE TEST

 Normal termination of Gaussian 09 at Wed Aug 26 08:30:08 2020.
