 Gaussian 09, Revision D.01,
 Gaussian 09:  ES64L-G09RevD.01 24-Apr-2013

 --------------------
 #p B2PLYPD3/Def2QZVP
 --------------------

 ---
 h2o
 ---
 Symbolic Z-matrix:
 Charge =  0 Multiplicity = 1

                         Standard orientation:
 ---------------------------------------------------------------------
 Center     Atomic      Atomic             Coordinates (Angstroms)
 Number     Number       Type             X           Y           Z
 ---------------------------------------------------------------------
      1          8           0        0.000000    0.115725    0.000000
      2          1           0        0.737550   -0.506788    0.000000
      3          1           0       -0.737550   -0.419012    0.000000
 ---------------------------------------------------------------------

 SCF Done:  E(RB2PLYPD3) =  -76.3332211712     A.U. after   10 cycles
 E2(B2PLYPD3) =    -0.8934757941D-01 E(B2PLYPD3) =    -0.76422568750584D+02

 The electronic state is 1-A'.
 Alpha  occ. eigenvalues --  -19.72809  -1.16808  -0.62094  -0.47876  -0.40169
 Alpha virt. eigenvalues --    0.04710   0.10417   0.27370   0.30356   0.31172
 Alpha virt. eigenvalues --    0.36971   0.44676   0.50308   0.56595   0.62141
 Alpha virt. eigenvalues --    0.65095   0.81667   0.94239   0.95565   1.04723

 Mulliken charges:
               1
     1  O   -0.421918
     2  H    0.224646
     3  H    0.197272
 Sum of Mulliken charges =   0.00000

 Dipole moment (field-independent basis, Debye):
    X=             -0.0281    Y=             -1.9587    Z=              0.0000  Tot=              1.9589
 Quadrupole moment (field-independent basis, Debye-Ang):
   XX=             -4.4182   YY=             -6.2823   ZZ=             -7.5439
   XY=             -0.1406   XZ=              0.0000   YZ=              0.0000

 1\1\GINC-NODE05\SP\RB2PLYPD3-FC\def2QZVP\H2O1\BOITTIER\26-Aug-2020\0\\
 #p B2PLYPD3/Def2QZVP\\h2o\\0,1\O,0,-5.326605,-0.760658,0.930415\H,0,-4
 .368927,-0.720104,0.817672\H,0,-5.609308,0.074678,0.701904\\Version=ES
 64L-G09RevD.01\State=1-A'\HF=-76.3332212\MP2=-76.4225688\RMSD=5.715e-0
 9\PG=CS [SG(H2O1)]\\@

 Sometimes the fool who rushes in gets the job done.

 Normal termination of Gaussian 09 at Wed Aug 26 09:40:21 2020.
