 Gaussian 09, Revision D.01,
 Gaussian 09:  ES64L-G09RevD.01 24-Apr-2013

 --------------------
 #p B2PLYPD3/Def2QZVP
 --------------------

 ---
 h2o
 ---
 Symbolic Z-matrix:
 Charge =  0 Multiplicity = 1

                         Standard orientation:
 ---------------------------------------------------------------------
 Center     Atomic      Atomic             Coordinates (Angstroms)
 Number     Number       Type             X           Y           Z
 ---------------------------------------------------------------------
      1          8           0        0.000000    0.117592    0.000000
      2          1           0        0.783299   -0.433994    0.000000
      3          1           0       -0.783299   -0.506742    0.000000
 ---------------------------------------------------------------------

 SCF Done:  E(RB2PLYPD3) =  -76.3327317397     A.U. after   10 cycles
 E2(B2PLYPD3) =    -0.9064460939D-01 E(B2PLYPD3) =    -0.76423376349059D+02

 The electronic state is 1-A'.
 Alpha  occ. eigenvalues --  -19.73382  -1.14631  -0.60617  -0.46867  -0.39751
 Alpha virt. eigenvalues --    0.04297   0.09979   0.27604   0.30468   0.30580
 Alpha virt. eigenvalues --    0.34805   0.43438   0.50387   0.55731   0.62506
 Alpha virt. eigenvalues --    0.66095   0.80454   0.92864   0.96399   1.02453

 Mulliken charges:
               1
     1  O   -0.461431
     2  H    0.222030
     3  H    0.239401
 Sum of Mulliken charges =   0.00000

 Dipole moment (field-independent basis, Debye):
    X=              0.0214    Y=             -1.9497    Z=              0.0000  Tot=              1.9499
 Quadrupole moment (field-independent basis, Debye-Ang):
   XX=             -4.2220   YY=             -6.3810   ZZ=             -7.6441
   XY=              0.1238   XZ=              0.0000   YZ=              0.0000

 1\1\GINC-NODE17\SP\RB2PLYPD3-FC\def2QZVP\H2O1\BOITTIER\26-Aug-2020\0\\
 #p B2PLYPD3/Def2QZVP\\h2o\\0,1\O,0,-5.326605,-0.765076,0.918121\H,0,-4
 .368927,-0.759616,0.943173\H,0,-5.609308,0.184875,0.773129\\Version=ES
 64L-G09RevD.01\State=1-A'\HF=-76.3327317\MP2=-76.4233763\RMSD=4.742e-0
 9\PG=CS [SG(H2O1)]\\@

 SOME PHYSICISTS WOULD PREFER TO COME BACK TO THE IDEA OF AN OBJECTIVE

 Normal termination of Gaussian 09 at Wed Aug 26 12:47:55 2020.
