 Gaussian 09, Revision D.01,
 Gaussian 09:  ES64L-G09RevD.01 24-Apr-2013

 --------------------
 #p B2PLYPD3/Def2QZVP
 --------------------

 ---
 h2o
 ---
 Symbolic Z-matrix:
 Charge =  0 Multiplicity = 1

                         Standard orientation:
 ---------------------------------------------------------------------
 Center     Atomic      Atomic             Coordinates (Angstroms)
 Number     Number       Type             X           Y           Z
 ---------------------------------------------------------------------
      1          8           0        0.000000    0.118420    0.000000
      2          1           0        0.755341   -0.472915    0.000000
      3          1           0       -0.755341   -0.474448    0.000000
 ---------------------------------------------------------------------

 SCF Done:  E(RB2PLYPD3) =  -76.3350491286     A.U. after   10 cycles
 E2(B2PLYPD3) =    -0.9005373288D-01 E(B2PLYPD3) =    -0.76425102861492D+02

 The electronic state is 1-A'.
 Alpha  occ. eigenvalues --  -19.73182  -1.15689  -0.61073  -0.47609  -0.39978
 Alpha virt. eigenvalues --    0.04509   0.10214   0.27535   0.30412   0.30890
 Alpha virt. eigenvalues --    0.35997   0.43948   0.50097   0.56374   0.61929
 Alpha virt. eigenvalues --    0.65677   0.81178   0.93898   0.95937   1.03617

 Mulliken charges:
               1
     1  O   -0.442144
     2  H    0.220863
     3  H    0.221281
 Sum of Mulliken charges =   0.00000

 Dipole moment (field-independent basis, Debye):
    X=              0.0005    Y=             -1.9747    Z=              0.0000  Tot=              1.9747
 Quadrupole moment (field-independent basis, Debye-Ang):
   XX=             -4.3711   YY=             -6.3020   ZZ=             -7.5943
   XY=              0.0025   XZ=              0.0000   YZ=              0.0000

 1\1\GINC-NODE11\SP\RB2PLYPD3-FC\def2QZVP\H2O1\BOITTIER\26-Aug-2020\0\\
 #p B2PLYPD3/Def2QZVP\\h2o\\0,1\O,0,-5.326605,-0.76495,0.922293\H,0,-4.
 368927,-0.711229,0.908755\H,0,-5.609308,0.134479,0.740254\\Version=ES6
 4L-G09RevD.01\State=1-A'\HF=-76.3350491\MP2=-76.4251029\RMSD=4.135e-09
 \PG=CS [SG(H2O1)]\\@

 THOUGH I SPEAK WITH THE TONGUES OF MEN AND OF ANGELS,

 Normal termination of Gaussian 09 at Wed Aug 26 10:26:30 2020.
