 Gaussian 09, Revision D.01,
 Gaussian 09:  ES64L-G09RevD.01 24-Apr-2013

 --------------------
 #p B2PLYPD3/Def2QZVP
 --------------------

 ---
 h2o
 ---
 Symbolic Z-matrix:
 Charge =  0 Multiplicity = 1

                         Standard orientation:
 ---------------------------------------------------------------------
 Center     Atomic      Atomic             Coordinates (Angstroms)
 Number     Number       Type             X           Y           Z
 ---------------------------------------------------------------------
      1          8           0        0.000000    0.117921    0.000000
      2          1           0        0.764331   -0.460772    0.000000
      3          1           0       -0.764331   -0.482597    0.000000
 ---------------------------------------------------------------------

 SCF Done:  E(RB2PLYPD3) =  -76.3347482342     A.U. after   10 cycles
 E2(B2PLYPD3) =    -0.9021054066D-01 E(B2PLYPD3) =    -0.76424958774825D+02

 The electronic state is 1-A'.
 Alpha  occ. eigenvalues --  -19.73233  -1.15365  -0.60985  -0.47362  -0.39909
 Alpha virt. eigenvalues --    0.04462   0.10144   0.27555   0.30428   0.30852
 Alpha virt. eigenvalues --    0.35609   0.43792   0.50209   0.56167   0.62148
 Alpha virt. eigenvalues --    0.65795   0.80983   0.93618   0.96070   1.03364

 Mulliken charges:
               1
     1  O   -0.448278
     2  H    0.221281
     3  H    0.226997
 Sum of Mulliken charges =   0.00000

 Dipole moment (field-independent basis, Debye):
    X=              0.0068    Y=             -1.9647    Z=              0.0000  Tot=              1.9647
 Quadrupole moment (field-independent basis, Debye-Ang):
   XX=             -4.3205   YY=             -6.3312   ZZ=             -7.6087
   XY=              0.0360   XZ=              0.0000   YZ=              0.0000

 1\1\GINC-NODE35\SP\RB2PLYPD3-FC\def2QZVP\H2O1\BOITTIER\26-Aug-2020\0\\
 #p B2PLYPD3/Def2QZVP\\h2o\\0,1\O,0,-5.326605,-0.765188,0.91893\H,0,-4.
 368927,-0.725034,0.937069\H,0,-5.609308,0.152094,0.765643\\Version=ES6
 4L-G09RevD.01\State=1-A'\HF=-76.3347482\MP2=-76.4249588\RMSD=4.091e-09
 \PG=CS [SG(H2O1)]\\@

 THE NUMBERS ARE MEANINGLESS, BUT THE TRENDS ARE IMPORTANT.

 Normal termination of Gaussian 09 at Wed Aug 26 08:25:54 2020.
