 Gaussian 09, Revision D.01,
 Gaussian 09:  ES64L-G09RevD.01 24-Apr-2013

 --------------------
 #p B2PLYPD3/Def2QZVP
 --------------------

 ---
 h2o
 ---
 Symbolic Z-matrix:
 Charge =  0 Multiplicity = 1

                         Standard orientation:
 ---------------------------------------------------------------------
 Center     Atomic      Atomic             Coordinates (Angstroms)
 Number     Number       Type             X           Y           Z
 ---------------------------------------------------------------------
      1          8           0        0.000000    0.115392    0.000000
      2          1           0        0.733592   -0.505627    0.000000
      3          1           0       -0.733592   -0.417506    0.000000
 ---------------------------------------------------------------------

 SCF Done:  E(RB2PLYPD3) =  -76.3328747522     A.U. after   10 cycles
 E2(B2PLYPD3) =    -0.8921917642D-01 E(B2PLYPD3) =    -0.76422093928604D+02

 The electronic state is 1-A'.
 Alpha  occ. eigenvalues --  -19.72746  -1.17028  -0.62261  -0.47958  -0.40210
 Alpha virt. eigenvalues --    0.04749   0.10455   0.27342   0.30345   0.31238
 Alpha virt. eigenvalues --    0.37169   0.44804   0.50321   0.56665   0.62132
 Alpha virt. eigenvalues --    0.64997   0.81761   0.94345   0.95484   1.05000

 Mulliken charges:
               1
     1  O   -0.417806
     2  H    0.223010
     3  H    0.194796
 Sum of Mulliken charges =   0.00000

 Dipole moment (field-independent basis, Debye):
    X=             -0.0283    Y=             -1.9578    Z=              0.0000  Tot=              1.9580
 Quadrupole moment (field-independent basis, Debye-Ang):
   XX=             -4.4322   YY=             -6.2757   ZZ=             -7.5340
   XY=             -0.1404   XZ=              0.0000   YZ=              0.0000

 1\1\GINC-NODE18\SP\RB2PLYPD3-FC\def2QZVP\H2O1\BOITTIER\26-Aug-2020\0\\
 #p B2PLYPD3/Def2QZVP\\h2o\\0,1\O,0,-5.326605,-0.762304,0.924544\H,0,-4
 .368927,-0.697925,0.874252\H,0,-5.609308,0.078835,0.738262\\Version=ES
 64L-G09RevD.01\State=1-A'\HF=-76.3328748\MP2=-76.4220939\RMSD=5.828e-0
 9\PG=CS [SG(H2O1)]\\@

     ON THE SURVIVAL OF THE FITTEST -

 Normal termination of Gaussian 09 at Wed Aug 26 12:47:43 2020.
