 Gaussian 09, Revision D.01,
 Gaussian 09:  ES64L-G09RevD.01 24-Apr-2013

 --------------------
 #p B2PLYPD3/Def2QZVP
 --------------------

 ---
 h2o
 ---
 Symbolic Z-matrix:
 Charge =  0 Multiplicity = 1

                         Standard orientation:
 ---------------------------------------------------------------------
 Center     Atomic      Atomic             Coordinates (Angstroms)
 Number     Number       Type             X           Y           Z
 ---------------------------------------------------------------------
      1          8           0        0.000000    0.116166    0.000000
      2          1           0        0.761499   -0.466046    0.000000
      3          1           0       -0.761499   -0.463280    0.000000
 ---------------------------------------------------------------------

 SCF Done:  E(RB2PLYPD3) =  -76.3351779859     A.U. after   10 cycles
 E2(B2PLYPD3) =    -0.8994194900D-01 E(B2PLYPD3) =    -0.76425119934946D+02

 The electronic state is 1-A'.
 Alpha  occ. eigenvalues --  -19.73087  -1.15676  -0.61447  -0.47348  -0.39958
 Alpha virt. eigenvalues --    0.04561   0.10206   0.27497   0.30412   0.31076
 Alpha virt. eigenvalues --    0.35837   0.43998   0.50395   0.56171   0.62394
 Alpha virt. eigenvalues --    0.65593   0.81141   0.93800   0.95927   1.04081

 Mulliken charges:
               1
     1  O   -0.443835
     2  H    0.222295
     3  H    0.221540
 Sum of Mulliken charges =   0.00000

 Dipole moment (field-independent basis, Debye):
    X=             -0.0008    Y=             -1.9498    Z=              0.0000  Tot=              1.9498
 Quadrupole moment (field-independent basis, Debye-Ang):
   XX=             -4.3102   YY=             -6.3455   ZZ=             -7.5925
   XY=             -0.0046   XZ=              0.0000   YZ=              0.0000

 1\1\GINC-NODE20\SP\RB2PLYPD3-FC\def2QZVP\H2O1\BOITTIER\26-Aug-2020\0\\
 #p B2PLYPD3/Def2QZVP\\h2o\\0,1\O,0,-5.326605,-0.763177,0.923263\H,0,-4
 .368927,-0.738302,0.890309\H,0,-5.609308,0.133171,0.743601\\Version=ES
 64L-G09RevD.01\State=1-A'\HF=-76.335178\MP2=-76.4251199\RMSD=4.008e-09
 \PG=CS [SG(H2O1)]\\@

 AS FAR AS THE LAWS OF MATHEMATICS REFER TO REALITY,

 Normal termination of Gaussian 09 at Wed Aug 26 09:51:00 2020.
