 Gaussian 09, Revision D.01,
 Gaussian 09:  ES64L-G09RevD.01 24-Apr-2013

 --------------------
 #p B2PLYPD3/Def2QZVP
 --------------------

 ---
 h2o
 ---
 Symbolic Z-matrix:
 Charge =  0 Multiplicity = 1

                         Standard orientation:
 ---------------------------------------------------------------------
 Center     Atomic      Atomic             Coordinates (Angstroms)
 Number     Number       Type             X           Y           Z
 ---------------------------------------------------------------------
      1          8           0        0.000000    0.123037    0.000000
      2          1           0        0.760733   -0.466891    0.000000
      3          1           0       -0.760733   -0.517408    0.000000
 ---------------------------------------------------------------------

 SCF Done:  E(RB2PLYPD3) =  -76.3331586449     A.U. after   10 cycles
 E2(B2PLYPD3) =    -0.9073731162D-01 E(B2PLYPD3) =    -0.76423895956497D+02

 The electronic state is 1-A'.
 Alpha  occ. eigenvalues --  -19.73544  -1.14959  -0.59924  -0.47677  -0.39867
 Alpha virt. eigenvalues --    0.04251   0.10058   0.27685   0.30269   0.30449
 Alpha virt. eigenvalues --    0.35457   0.43474   0.49627   0.56383   0.61288
 Alpha virt. eigenvalues --    0.66164   0.80798   0.93421   0.96301   1.01912

 Mulliken charges:
               1
     1  O   -0.451470
     2  H    0.219518
     3  H    0.231951
 Sum of Mulliken charges =   0.00000

 Dipole moment (field-independent basis, Debye):
    X=              0.0171    Y=             -2.0139    Z=              0.0000  Tot=              2.0139
 Quadrupole moment (field-independent basis, Debye-Ang):
   XX=             -4.4094   YY=             -6.2570   ZZ=             -7.6334
   XY=              0.0807   XZ=              0.0000   YZ=              0.0000

 1\1\GINC-NODE12\SP\RB2PLYPD3-FC\def2QZVP\H2O1\BOITTIER\26-Aug-2020\0\\
 #p B2PLYPD3/Def2QZVP\\h2o\\0,1\O,0,-5.326605,-0.765845,0.930648\H,0,-4
 .368927,-0.713263,0.848073\H,0,-5.609308,0.150826,0.668581\\Version=ES
 64L-G09RevD.01\State=1-A'\HF=-76.3331586\MP2=-76.423896\RMSD=4.517e-09
 \PG=CS [SG(H2O1)]\\@

 A MUSTACHE HAIR ACROSS A CHIP IS LIKE A REDWOOD

 Normal termination of Gaussian 09 at Wed Aug 26 08:18:50 2020.
