 Gaussian 09, Revision D.01,
 Gaussian 09:  ES64L-G09RevD.01 24-Apr-2013

 --------------------
 #p B2PLYPD3/Def2QZVP
 --------------------

 ---
 h2o
 ---
 Symbolic Z-matrix:
 Charge =  0 Multiplicity = 1

                         Standard orientation:
 ---------------------------------------------------------------------
 Center     Atomic      Atomic             Coordinates (Angstroms)
 Number     Number       Type             X           Y           Z
 ---------------------------------------------------------------------
      1          8           0        0.000000    0.117858    0.000000
      2          1           0        0.759110   -0.468790    0.000000
      3          1           0       -0.759110   -0.474076    0.000000
 ---------------------------------------------------------------------

 SCF Done:  E(RB2PLYPD3) =  -76.3350309143     A.U. after   10 cycles
 E2(B2PLYPD3) =    -0.9007789945D-01 E(B2PLYPD3) =    -0.76425108813776D+02

 The electronic state is 1-A'.
 Alpha  occ. eigenvalues --  -19.73180  -1.15591  -0.61117  -0.47489  -0.39954
 Alpha virt. eigenvalues --    0.04506   0.10192   0.27534   0.30417   0.30916
 Alpha virt. eigenvalues --    0.35854   0.43910   0.50183   0.56277   0.62078
 Alpha virt. eigenvalues --    0.65696   0.81117   0.93801   0.95973   1.03634

 Mulliken charges:
               1
     1  O   -0.444271
     2  H    0.221423
     3  H    0.222847
 Sum of Mulliken charges =   0.00000

 Dipole moment (field-independent basis, Debye):
    X=              0.0017    Y=             -1.9672    Z=              0.0000  Tot=              1.9672
 Quadrupole moment (field-independent basis, Debye-Ang):
   XX=             -4.3451   YY=             -6.3187   ZZ=             -7.5981
   XY=              0.0087   XZ=              0.0000   YZ=              0.0000

 1\1\GINC-NODE34\SP\RB2PLYPD3-FC\def2QZVP\H2O1\BOITTIER\26-Aug-2020\0\\
 #p B2PLYPD3/Def2QZVP\\h2o\\0,1\O,0,-5.326605,-0.765269,0.917979\H,0,-4
 .368927,-0.714999,0.944996\H,0,-5.609308,0.143342,0.772584\\Version=ES
 64L-G09RevD.01\State=1-A'\HF=-76.3350309\MP2=-76.4251088\RMSD=4.072e-0
 9\PG=CS [SG(H2O1)]\\@

 IT IS NOT EASY TO DESCRIBE

 Normal termination of Gaussian 09 at Wed Aug 26 11:21:32 2020.
