 Gaussian 09, Revision D.01,
 Gaussian 09:  ES64L-G09RevD.01 24-Apr-2013

 --------------------
 #p B2PLYPD3/Def2QZVP
 --------------------

 ---
 h2o
 ---
 Symbolic Z-matrix:
 Charge =  0 Multiplicity = 1

                         Standard orientation:
 ---------------------------------------------------------------------
 Center     Atomic      Atomic             Coordinates (Angstroms)
 Number     Number       Type             X           Y           Z
 ---------------------------------------------------------------------
      1          8           0        0.000000    0.118770    0.000000
      2          1           0        0.770438   -0.455405    0.000000
      3          1           0       -0.770438   -0.494756    0.000000
 ---------------------------------------------------------------------

 SCF Done:  E(RB2PLYPD3) =  -76.3340347623     A.U. after   10 cycles
 E2(B2PLYPD3) =    -0.9045765774D-01 E(B2PLYPD3) =    -0.76424492420079D+02

 The electronic state is 1-A'.
 Alpha  occ. eigenvalues --  -19.73346  -1.15023  -0.60658  -0.47250  -0.39845
 Alpha virt. eigenvalues --    0.04372   0.10070   0.27599   0.30447   0.30674
 Alpha virt. eigenvalues --    0.35286   0.43598   0.50150   0.56059   0.62105
 Alpha virt. eigenvalues --    0.65975   0.80780   0.93343   0.96221   1.02798

 Mulliken charges:
               1
     1  O   -0.453707
     2  H    0.221924
     3  H    0.231783
 Sum of Mulliken charges =   0.00000

 Dipole moment (field-independent basis, Debye):
    X=              0.0122    Y=             -1.9689    Z=              0.0000  Tot=              1.9689
 Quadrupole moment (field-independent basis, Debye-Ang):
   XX=             -4.3023   YY=             -6.3359   ZZ=             -7.6257
   XY=              0.0653   XZ=              0.0000   YZ=              0.0000

 1\1\GINC-NODE34\SP\RB2PLYPD3-FC\def2QZVP\H2O1\BOITTIER\26-Aug-2020\0\\
 #p B2PLYPD3/Def2QZVP\\h2o\\0,1\O,0,-5.326605,-0.76622,0.914157\H,0,-4.
 368927,-0.726387,0.981371\H,0,-5.609308,0.169946,0.797276\\Version=ES6
 4L-G09RevD.01\State=1-A'\HF=-76.3340348\MP2=-76.4244924\RMSD=4.227e-09
 \PG=CS [SG(H2O1)]\\@

 It is also a good rule not to put too much confidence in

 Normal termination of Gaussian 09 at Wed Aug 26 11:31:47 2020.
