 Gaussian 09, Revision D.01,
 Gaussian 09:  ES64L-G09RevD.01 24-Apr-2013

 --------------------
 #p B2PLYPD3/Def2QZVP
 --------------------

 ---
 h2o
 ---
 Symbolic Z-matrix:
 Charge =  0 Multiplicity = 1

                         Standard orientation:
 ---------------------------------------------------------------------
 Center     Atomic      Atomic             Coordinates (Angstroms)
 Number     Number       Type             X           Y           Z
 ---------------------------------------------------------------------
      1          8           0        0.000000    0.116554    0.000000
      2          1           0        0.757119   -0.473552    0.000000
      3          1           0       -0.757119   -0.458881    0.000000
 ---------------------------------------------------------------------

 SCF Done:  E(RB2PLYPD3) =  -76.3351874934     A.U. after   10 cycles
 E2(B2PLYPD3) =    -0.8988202680D-01 E(B2PLYPD3) =    -0.76425069520202D+02

 The electronic state is 1-A'.
 Alpha  occ. eigenvalues --  -19.73071  -1.15822  -0.61460  -0.47473  -0.39990
 Alpha virt. eigenvalues --    0.04576   0.10236   0.27490   0.30404   0.31068
 Alpha virt. eigenvalues --    0.36023   0.44068   0.50321   0.56273   0.62264
 Alpha virt. eigenvalues --    0.65546   0.81229   0.93910   0.95869   1.04129

 Mulliken charges:
               1
     1  O   -0.440867
     2  H    0.222470
     3  H    0.218397
 Sum of Mulliken charges =   0.00000

 Dipole moment (field-independent basis, Debye):
    X=             -0.0045    Y=             -1.9561    Z=              0.0000  Tot=              1.9561
 Quadrupole moment (field-independent basis, Debye-Ang):
   XX=             -4.3368   YY=             -6.3292   ZZ=             -7.5863
   XY=             -0.0241   XZ=              0.0000   YZ=              0.0000

 1\1\GINC-NODE19\SP\RB2PLYPD3-FC\def2QZVP\H2O1\BOITTIER\26-Aug-2020\0\\
 #p B2PLYPD3/Def2QZVP\\h2o\\0,1\O,0,-5.326605,-0.762772,0.925907\H,0,-4
 .368927,-0.734316,0.866767\H,0,-5.609308,0.122712,0.725028\\Version=ES
 64L-G09RevD.01\State=1-A'\HF=-76.3351875\MP2=-76.4250695\RMSD=4.126e-0
 9\PG=CS [SG(H2O1)]\\@

 NATURE GIVES TO EVERY TIME AND SEASON SOME BEAUTY OF ITS OWN.

 Normal termination of Gaussian 09 at Wed Aug 26 12:18:41 2020.
