 Gaussian 09, Revision D.01,
 Gaussian 09:  ES64L-G09RevD.01 24-Apr-2013

 --------------------
 #p B2PLYPD3/Def2QZVP
 --------------------

 ---
 h2o
 ---
 Symbolic Z-matrix:
 Charge =  0 Multiplicity = 1

                         Standard orientation:
 ---------------------------------------------------------------------
 Center     Atomic      Atomic             Coordinates (Angstroms)
 Number     Number       Type             X           Y           Z
 ---------------------------------------------------------------------
      1          8           0        0.000000    0.119487    0.000000
      2          1           0        0.756448   -0.477274    0.000000
      3          1           0       -0.756448   -0.478620    0.000000
 ---------------------------------------------------------------------

 SCF Done:  E(RB2PLYPD3) =  -76.3348350203     A.U. after   10 cycles
 E2(B2PLYPD3) =    -0.9020454839D-01 E(B2PLYPD3) =    -0.76425039568722D+02

 The electronic state is 1-A'.
 Alpha  occ. eigenvalues --  -19.73266  -1.15523  -0.60807  -0.47632  -0.39953
 Alpha virt. eigenvalues --    0.04455   0.10181   0.27570   0.30420   0.30766
 Alpha virt. eigenvalues --    0.35878   0.43833   0.49985   0.56386   0.61772
 Alpha virt. eigenvalues --    0.65790   0.81097   0.93821   0.96016   1.03232

 Mulliken charges:
               1
     1  O   -0.444429
     2  H    0.222035
     3  H    0.222394
 Sum of Mulliken charges =   0.00000

 Dipole moment (field-independent basis, Debye):
    X=              0.0004    Y=             -1.9840    Z=              0.0000  Tot=              1.9840
 Quadrupole moment (field-independent basis, Debye-Ang):
   XX=             -4.3806   YY=             -6.2919   ZZ=             -7.6030
   XY=              0.0022   XZ=              0.0000   YZ=              0.0000

 1\1\GINC-NODE15\SP\RB2PLYPD3-FC\def2QZVP\H2O1\BOITTIER\26-Aug-2020\0\\
 #p B2PLYPD3/Def2QZVP\\h2o\\0,1\O,0,-5.326605,-0.766744,0.913153\H,0,-4
 .368927,-0.696523,0.992266\H,0,-5.609308,0.148466,0.801733\\Version=ES
 64L-G09RevD.01\State=1-A'\HF=-76.334835\MP2=-76.4250396\RMSD=4.134e-09
 \PG=CS [SG(H2O1)]\\@

 The lyf so short, the craft so long to lerne.

 Normal termination of Gaussian 09 at Wed Aug 26 09:11:49 2020.
