 Gaussian 09, Revision D.01,
 Gaussian 09:  ES64L-G09RevD.01 24-Apr-2013

 --------------------
 #p B2PLYPD3/Def2QZVP
 --------------------

 ---
 h2o
 ---
 Symbolic Z-matrix:
 Charge =  0 Multiplicity = 1

                         Standard orientation:
 ---------------------------------------------------------------------
 Center     Atomic      Atomic             Coordinates (Angstroms)
 Number     Number       Type             X           Y           Z
 ---------------------------------------------------------------------
      1          8           0        0.000000    0.116388    0.000000
      2          1           0        0.730196   -0.509853    0.000000
      3          1           0       -0.730196   -0.421252    0.000000
 ---------------------------------------------------------------------

 SCF Done:  E(RB2PLYPD3) =  -76.3327521725     A.U. after   10 cycles
 E2(B2PLYPD3) =    -0.8925471036D-01 E(B2PLYPD3) =    -0.76422006882873D+02

 The electronic state is 1-A'.
 Alpha  occ. eigenvalues --  -19.72781  -1.17066  -0.62096  -0.48093  -0.40223
 Alpha virt. eigenvalues --    0.04728   0.10466   0.27355   0.30344   0.31166
 Alpha virt. eigenvalues --    0.37267   0.44801   0.50193   0.56769   0.61917
 Alpha virt. eigenvalues --    0.65020   0.81769   0.94403   0.95485   1.04864

 Mulliken charges:
               1
     1  O   -0.416740
     2  H    0.222596
     3  H    0.194144
 Sum of Mulliken charges =   0.00000

 Dipole moment (field-independent basis, Debye):
    X=             -0.0291    Y=             -1.9692    Z=              0.0000  Tot=              1.9694
 Quadrupole moment (field-independent basis, Debye-Ang):
   XX=             -4.4616   YY=             -6.2549   ZZ=             -7.5337
   XY=             -0.1397   XZ=              0.0000   YZ=              0.0000

 1\1\GINC-NODE01\SP\RB2PLYPD3-FC\def2QZVP\H2O1\BOITTIER\26-Aug-2020\0\\
 #p B2PLYPD3/Def2QZVP\\h2o\\0,1\O,0,-5.326605,-0.762994,0.924588\H,0,-4
 .368927,-0.685201,0.878057\H,0,-5.609308,0.07715,0.733591\\Version=ES6
 4L-G09RevD.01\State=1-A'\HF=-76.3327522\MP2=-76.4220069\RMSD=5.869e-09
 \PG=CS [SG(H2O1)]\\@

 CHARLIE BROWN -- WHICH DO YOU THINK LASTS LONGER IN LIFE, THE GOOD THINGS

 Normal termination of Gaussian 09 at Wed Aug 26 12:47:04 2020.
