 Gaussian 09, Revision D.01,
 Gaussian 09:  ES64L-G09RevD.01 24-Apr-2013

 --------------------
 #p B2PLYPD3/Def2QZVP
 --------------------

 ---
 h2o
 ---
 Symbolic Z-matrix:
 Charge =  0 Multiplicity = 1

                         Standard orientation:
 ---------------------------------------------------------------------
 Center     Atomic      Atomic             Coordinates (Angstroms)
 Number     Number       Type             X           Y           Z
 ---------------------------------------------------------------------
      1          8           0        0.000000    0.118496    0.000000
      2          1           0        0.744777   -0.488135    0.000000
      3          1           0       -0.744777   -0.459833    0.000000
 ---------------------------------------------------------------------

 SCF Done:  E(RB2PLYPD3) =  -76.3349551078     A.U. after   10 cycles
 E2(B2PLYPD3) =    -0.8981744171D-01 E(B2PLYPD3) =    -0.76424772549475D+02

 The electronic state is 1-A'.
 Alpha  occ. eigenvalues --  -19.73084  -1.16139  -0.61285  -0.47870  -0.40066
 Alpha virt. eigenvalues --    0.04576   0.10304   0.27493   0.30389   0.30959
 Alpha virt. eigenvalues --    0.36486   0.44190   0.50033   0.56593   0.61760
 Alpha virt. eigenvalues --    0.65488   0.81401   0.94194   0.95764   1.04009

 Mulliken charges:
               1
     1  O   -0.433895
     2  H    0.221016
     3  H    0.212879
 Sum of Mulliken charges =   0.00000

 Dipole moment (field-independent basis, Debye):
    X=             -0.0093    Y=             -1.9815    Z=              0.0000  Tot=              1.9815
 Quadrupole moment (field-independent basis, Debye-Ang):
   XX=             -4.4227   YY=             -6.2730   ZZ=             -7.5745
   XY=             -0.0451   XZ=              0.0000   YZ=              0.0000

 1\1\GINC-NODE28\SP\RB2PLYPD3-FC\def2QZVP\H2O1\BOITTIER\26-Aug-2020\0\\
 #p B2PLYPD3/Def2QZVP\\h2o\\0,1\O,0,-5.326605,-0.764867,0.922916\H,0,-4
 .368927,-0.69308,0.903083\H,0,-5.609308,0.114992,0.735609\\Version=ES6
 4L-G09RevD.01\State=1-A'\HF=-76.3349551\MP2=-76.4247725\RMSD=4.472e-09
 \PG=CS [SG(H2O1)]\\@

 PENOTUS DIED A HUNDRED YEARS OLD WANTING BUT TWO...

 Normal termination of Gaussian 09 at Wed Aug 26 12:56:03 2020.
