 Gaussian 09, Revision D.01,
 Gaussian 09:  ES64L-G09RevD.01 24-Apr-2013

 --------------------
 #p B2PLYPD3/Def2QZVP
 --------------------

 ---
 h2o
 ---
 Symbolic Z-matrix:
 Charge =  0 Multiplicity = 1

                         Standard orientation:
 ---------------------------------------------------------------------
 Center     Atomic      Atomic             Coordinates (Angstroms)
 Number     Number       Type             X           Y           Z
 ---------------------------------------------------------------------
      1          8           0        0.000000    0.119962    0.000000
      2          1           0        0.755722   -0.472085    0.000000
      3          1           0       -0.755722   -0.487610    0.000000
 ---------------------------------------------------------------------

 SCF Done:  E(RB2PLYPD3) =  -76.3347173526     A.U. after   10 cycles
 E2(B2PLYPD3) =    -0.9024405735D-01 E(B2PLYPD3) =    -0.76424961410001D+02

 The electronic state is 1-A'.
 Alpha  occ. eigenvalues --  -19.73291  -1.15501  -0.60715  -0.47672  -0.39952
 Alpha virt. eigenvalues --    0.04438   0.10176   0.27581   0.30422   0.30715
 Alpha virt. eigenvalues --    0.35882   0.43812   0.49930   0.56414   0.61687
 Alpha virt. eigenvalues --    0.65818   0.81087   0.93816   0.96033   1.03101

 Mulliken charges:
               1
     1  O   -0.444477
     2  H    0.220179
     3  H    0.224298
 Sum of Mulliken charges =   0.00000

 Dipole moment (field-independent basis, Debye):
    X=              0.0051    Y=             -1.9889    Z=              0.0000  Tot=              1.9889
 Quadrupole moment (field-independent basis, Debye-Ang):
   XX=             -4.3907   YY=             -6.2840   ZZ=             -7.6046
   XY=              0.0250   XZ=              0.0000   YZ=              0.0000

 1\1\GINC-NODE29\SP\RB2PLYPD3-FC\def2QZVP\H2O1\BOITTIER\26-Aug-2020\0\\
 #p B2PLYPD3/Def2QZVP\\h2o\\0,1\O,0,-5.326605,-0.765429,0.924883\H,0,-4
 .368927,-0.707554,0.891149\H,0,-5.609308,0.138465,0.716765\\Version=ES
 64L-G09RevD.01\State=1-A'\HF=-76.3347174\MP2=-76.4249614\RMSD=4.198e-0
 9\PG=CS [SG(H2O1)]\\@

 The theorems and results in mathematical physics are

 Normal termination of Gaussian 09 at Wed Aug 26 10:13:44 2020.
