 Gaussian 09, Revision D.01,
 Gaussian 09:  ES64L-G09RevD.01 24-Apr-2013

 --------------------
 #p B2PLYPD3/Def2QZVP
 --------------------

 ---
 h2o
 ---
 Symbolic Z-matrix:
 Charge =  0 Multiplicity = 1

                         Standard orientation:
 ---------------------------------------------------------------------
 Center     Atomic      Atomic             Coordinates (Angstroms)
 Number     Number       Type             X           Y           Z
 ---------------------------------------------------------------------
      1          8           0        0.000000    0.123700    0.000000
      2          1           0        0.769291   -0.449989    0.000000
      3          1           0       -0.769291   -0.539607    0.000000
 ---------------------------------------------------------------------

 SCF Done:  E(RB2PLYPD3) =  -76.3313115222     A.U. after   10 cycles
 E2(B2PLYPD3) =    -0.9103255229D-01 E(B2PLYPD3) =    -0.76422344074528D+02

 The electronic state is 1-A'.
 Alpha  occ. eigenvalues --  -19.73658  -1.14564  -0.59608  -0.47469  -0.39788
 Alpha virt. eigenvalues --    0.04123   0.09961   0.27725   0.29963   0.30469
 Alpha virt. eigenvalues --    0.35086   0.43294   0.49597   0.56179   0.61343
 Alpha virt. eigenvalues --    0.66345   0.80534   0.92859   0.96492   1.01318

 Mulliken charges:
               1
     1  O   -0.457230
     2  H    0.218174
     3  H    0.239056
 Sum of Mulliken charges =   0.00000

 Dipole moment (field-independent basis, Debye):
    X=              0.0300    Y=             -2.0141    Z=              0.0000  Tot=              2.0143
 Quadrupole moment (field-independent basis, Debye-Ang):
   XX=             -4.3766   YY=             -6.2667   ZZ=             -7.6540
   XY=              0.1446   XZ=              0.0000   YZ=              0.0000

 1\1\GINC-NODE31\SP\RB2PLYPD3-FC\def2QZVP\H2O1\BOITTIER\26-Aug-2020\0\\
 #p B2PLYPD3/Def2QZVP\\h2o\\0,1\O,0,-5.326605,-0.767904,0.925301\H,0,-4
 .368927,-0.710502,0.903288\H,0,-5.609308,0.181004,0.698504\\Version=ES
 64L-G09RevD.01\State=1-A'\HF=-76.3313115\MP2=-76.4223441\RMSD=5.067e-0
 9\PG=CS [SG(H2O1)]\\@

 KNOWLEDGE IS OF TWO KINDS:  WE KNOW A SUBJECT OURSELVES OR WE KNOW

 Normal termination of Gaussian 09 at Wed Aug 26 09:09:50 2020.
