 Gaussian 09, Revision D.01,
 Gaussian 09:  ES64L-G09RevD.01 24-Apr-2013

 --------------------
 #p B2PLYPD3/Def2QZVP
 --------------------

 ---
 h2o
 ---
 Symbolic Z-matrix:
 Charge =  0 Multiplicity = 1

                         Standard orientation:
 ---------------------------------------------------------------------
 Center     Atomic      Atomic             Coordinates (Angstroms)
 Number     Number       Type             X           Y           Z
 ---------------------------------------------------------------------
      1          8           0        0.000000    0.123559    0.000000
      2          1           0        0.752570   -0.475689    0.000000
      3          1           0       -0.752570   -0.512783    0.000000
 ---------------------------------------------------------------------

 SCF Done:  E(RB2PLYPD3) =  -76.3336449080     A.U. after   10 cycles
 E2(B2PLYPD3) =    -0.9060823594D-01 E(B2PLYPD3) =    -0.76424253143961D+02

 The electronic state is 1-A'.
 Alpha  occ. eigenvalues --  -19.73507  -1.15230  -0.59970  -0.47908  -0.39926
 Alpha virt. eigenvalues --    0.04294   0.10120   0.27673   0.30324   0.30435
 Alpha virt. eigenvalues --    0.35774   0.43592   0.49542   0.56582   0.61080
 Alpha virt. eigenvalues --    0.66068   0.80956   0.93731   0.96201   1.02113

 Mulliken charges:
               1
     1  O   -0.446602
     2  H    0.218581
     3  H    0.228020
 Sum of Mulliken charges =   0.00000

 Dipole moment (field-independent basis, Debye):
    X=              0.0129    Y=             -2.0236    Z=              0.0000  Tot=              2.0236
 Quadrupole moment (field-independent basis, Debye-Ang):
   XX=             -4.4563   YY=             -6.2303   ZZ=             -7.6212
   XY=              0.0583   XZ=              0.0000   YZ=              0.0000

 1\1\GINC-NODE13\SP\RB2PLYPD3-FC\def2QZVP\H2O1\BOITTIER\26-Aug-2020\0\\
 #p B2PLYPD3/Def2QZVP\\h2o\\0,1\O,0,-5.326605,-0.767616,0.926019\H,0,-4
 .368927,-0.681709,0.895481\H,0,-5.609308,0.147613,0.694228\\Version=ES
 64L-G09RevD.01\State=1-A'\HF=-76.3336449\MP2=-76.4242531\RMSD=4.474e-0
 9\PG=CS [SG(H2O1)]\\@

 WE DON'T KNOW ONE MILLIONTH OF ONE PERCENT ABOUT

 Normal termination of Gaussian 09 at Wed Aug 26 09:05:50 2020.
