 Gaussian 09, Revision D.01,
 Gaussian 09:  ES64L-G09RevD.01 24-Apr-2013

 --------------------
 #p B2PLYPD3/Def2QZVP
 --------------------

 ---
 h2o
 ---
 Symbolic Z-matrix:
 Charge =  0 Multiplicity = 1

                         Standard orientation:
 ---------------------------------------------------------------------
 Center     Atomic      Atomic             Coordinates (Angstroms)
 Number     Number       Type             X           Y           Z
 ---------------------------------------------------------------------
      1          8           0        0.000000    0.119069    0.000000
      2          1           0        0.747041   -0.484703    0.000000
      3          1           0       -0.747041   -0.467853    0.000000
 ---------------------------------------------------------------------

 SCF Done:  E(RB2PLYPD3) =  -76.3350123790     A.U. after   10 cycles
 E2(B2PLYPD3) =    -0.8993603301D-01 E(B2PLYPD3) =    -0.76424948411972D+02

 The electronic state is 1-A'.
 Alpha  occ. eigenvalues --  -19.73146  -1.15973  -0.61103  -0.47844  -0.40038
 Alpha virt. eigenvalues --    0.04538   0.10273   0.27520   0.30398   0.30889
 Alpha virt. eigenvalues --    0.36343   0.44083   0.49983   0.56568   0.61699
 Alpha virt. eigenvalues --    0.65582   0.81325   0.94124   0.95832   1.03756

 Mulliken charges:
               1
     1  O   -0.436632
     2  H    0.220688
     3  H    0.215944
 Sum of Mulliken charges =   0.00000

 Dipole moment (field-independent basis, Debye):
    X=             -0.0056    Y=             -1.9856    Z=              0.0000  Tot=              1.9856
 Quadrupole moment (field-independent basis, Debye-Ang):
   XX=             -4.4199   YY=             -6.2723   ZZ=             -7.5824
   XY=             -0.0269   XZ=              0.0000   YZ=              0.0000

 1\1\GINC-NODE10\SP\RB2PLYPD3-FC\def2QZVP\H2O1\BOITTIER\26-Aug-2020\0\\
 #p B2PLYPD3/Def2QZVP\\h2o\\0,1\O,0,-5.326605,-0.765323,0.922637\H,0,-4
 .368927,-0.692843,0.908141\H,0,-5.609308,0.122056,0.735061\\Version=ES
 64L-G09RevD.01\State=1-A'\HF=-76.3350124\MP2=-76.4249484\RMSD=4.335e-0
 9\PG=CS [SG(H2O1)]\\@

 THE LENGTH OF A MEETING IS PROPORTIONAL TO THE

 Normal termination of Gaussian 09 at Wed Aug 26 08:52:14 2020.
