 Gaussian 09, Revision D.01,
 Gaussian 09:  ES64L-G09RevD.01 24-Apr-2013

 --------------------
 #p B2PLYPD3/Def2QZVP
 --------------------

 ---
 h2o
 ---
 Symbolic Z-matrix:
 Charge =  0 Multiplicity = 1

                         Standard orientation:
 ---------------------------------------------------------------------
 Center     Atomic      Atomic             Coordinates (Angstroms)
 Number     Number       Type             X           Y           Z
 ---------------------------------------------------------------------
      1          8           0        0.000000    0.123603    0.000000
      2          1           0        0.728981   -0.512154    0.000000
      3          1           0       -0.728981   -0.476666    0.000000
 ---------------------------------------------------------------------

 SCF Done:  E(RB2PLYPD3) =  -76.3340170355     A.U. after   10 cycles
 E2(B2PLYPD3) =    -0.9007619762D-01 E(B2PLYPD3) =    -0.76424093233141D+02

 The electronic state is 1-A'.
 Alpha  occ. eigenvalues --  -19.73288  -1.16220  -0.60406  -0.48502  -0.40118
 Alpha virt. eigenvalues --    0.04449   0.10331   0.27580   0.30387   0.30558
 Alpha virt. eigenvalues --    0.36815   0.44100   0.49476   0.57088   0.60722
 Alpha virt. eigenvalues --    0.65640   0.81397   0.94535   0.95812   1.03118

 Mulliken charges:
               1
     1  O   -0.429789
     2  H    0.219996
     3  H    0.209793
 Sum of Mulliken charges =   0.00000

 Dipole moment (field-independent basis, Debye):
    X=             -0.0130    Y=             -2.0377    Z=              0.0000  Tot=              2.0377
 Quadrupole moment (field-independent basis, Debye-Ang):
   XX=             -4.5685   YY=             -6.1691   ZZ=             -7.5777
   XY=             -0.0536   XZ=              0.0000   YZ=              0.0000

 1\1\GINC-NODE26\SP\RB2PLYPD3-FC\def2QZVP\H2O1\BOITTIER\26-Aug-2020\0\\
 #p B2PLYPD3/Def2QZVP\\h2o\\0,1\O,0,-5.326605,-0.768064,0.924247\H,0,-4
 .368927,-0.632795,0.911778\H,0,-5.609308,0.105867,0.70502\\Version=ES6
 4L-G09RevD.01\State=1-A'\HF=-76.334017\MP2=-76.4240932\RMSD=4.924e-09\
 PG=CS [SG(H2O1)]\\@

 A FOOL CAN ASK MORE QUESTIONS THAN

 Normal termination of Gaussian 09 at Wed Aug 26 09:24:53 2020.
