 Gaussian 09, Revision D.01,
 Gaussian 09:  ES64L-G09RevD.01 24-Apr-2013

 --------------------
 #p B2PLYPD3/Def2QZVP
 --------------------

 ---
 h2o
 ---
 Symbolic Z-matrix:
 Charge =  0 Multiplicity = 1

                         Standard orientation:
 ---------------------------------------------------------------------
 Center     Atomic      Atomic             Coordinates (Angstroms)
 Number     Number       Type             X           Y           Z
 ---------------------------------------------------------------------
      1          8           0        0.000000    0.115234    0.000000
      2          1           0        0.765098   -0.461205    0.000000
      3          1           0       -0.765098   -0.460669    0.000000
 ---------------------------------------------------------------------

 SCF Done:  E(RB2PLYPD3) =  -76.3351690742     A.U. after   10 cycles
 E2(B2PLYPD3) =    -0.8992403143D-01 E(B2PLYPD3) =    -0.76425093105649D+02

 The electronic state is 1-A'.
 Alpha  occ. eigenvalues --  -19.73059  -1.15623  -0.61574  -0.47214  -0.39940
 Alpha virt. eigenvalues --    0.04573   0.10193   0.27486   0.30414   0.31144
 Alpha virt. eigenvalues --    0.35715   0.43993   0.50532   0.56065   0.62605
 Alpha virt. eigenvalues --    0.65579   0.81091   0.93733   0.95946   1.04231

 Mulliken charges:
               1
     1  O   -0.445433
     2  H    0.222790
     3  H    0.222644
 Sum of Mulliken charges =   0.00000

 Dipole moment (field-independent basis, Debye):
    X=             -0.0002    Y=             -1.9388    Z=              0.0000  Tot=              1.9388
 Quadrupole moment (field-independent basis, Debye-Ang):
   XX=             -4.2799   YY=             -6.3662   ZZ=             -7.5940
   XY=             -0.0009   XZ=              0.0000   YZ=              0.0000

 1\1\GINC-NODE08\SP\RB2PLYPD3-FC\def2QZVP\H2O1\BOITTIER\26-Aug-2020\0\\
 #p B2PLYPD3/Def2QZVP\\h2o\\0,1\O,0,-5.326605,-0.763374,0.918685\H,0,-4
 .368927,-0.742772,0.927908\H,0,-5.609308,0.140806,0.778769\\Version=ES
 64L-G09RevD.01\State=1-A'\HF=-76.3351691\MP2=-76.4250931\RMSD=3.945e-0
 9\PG=CS [SG(H2O1)]\\@

 Life may have no meaning.  Or even worse, it may have a

 Normal termination of Gaussian 09 at Wed Aug 26 09:55:25 2020.
