 Gaussian 09, Revision D.01,
 Gaussian 09:  ES64L-G09RevD.01 24-Apr-2013

 --------------------
 #p B2PLYPD3/Def2QZVP
 --------------------

 ---
 h2o
 ---
 Symbolic Z-matrix:
 Charge =  0 Multiplicity = 1

                         Standard orientation:
 ---------------------------------------------------------------------
 Center     Atomic      Atomic             Coordinates (Angstroms)
 Number     Number       Type             X           Y           Z
 ---------------------------------------------------------------------
      1          8           0        0.000000    0.118141    0.000000
      2          1           0        0.776551   -0.443062    0.000000
      3          1           0       -0.776551   -0.502068    0.000000
 ---------------------------------------------------------------------

 SCF Done:  E(RB2PLYPD3) =  -76.3334384033     A.U. after   10 cycles
 E2(B2PLYPD3) =    -0.9053769319D-01 E(B2PLYPD3) =    -0.76423976096505D+02

 The electronic state is 1-A'.
 Alpha  occ. eigenvalues --  -19.73358  -1.14844  -0.60656  -0.47063  -0.39802
 Alpha virt. eigenvalues --    0.04339   0.10029   0.27600   0.30456   0.30635
 Alpha virt. eigenvalues --    0.35059   0.43529   0.50268   0.55899   0.62309
 Alpha virt. eigenvalues --    0.66024   0.80633   0.93111   0.96304   1.02644

 Mulliken charges:
               1
     1  O   -0.457258
     2  H    0.221396
     3  H    0.235862
 Sum of Mulliken charges =   0.00000

 Dipole moment (field-independent basis, Debye):
    X=              0.0178    Y=             -1.9592    Z=              0.0000  Tot=              1.9592
 Quadrupole moment (field-independent basis, Debye-Ang):
   XX=             -4.2633   YY=             -6.3581   ZZ=             -7.6340
   XY=              0.0991   XZ=              0.0000   YZ=              0.0000

 1\1\GINC-NODE12\SP\RB2PLYPD3-FC\def2QZVP\H2O1\BOITTIER\26-Aug-2020\0\\
 #p B2PLYPD3/Def2QZVP\\h2o\\0,1\O,0,-5.326605,-0.765362,0.91879\H,0,-4.
 368927,-0.745228,0.939487\H,0,-5.609308,0.175065,0.765928\\Version=ES6
 4L-G09RevD.01\State=1-A'\HF=-76.3334384\MP2=-76.4239761\RMSD=4.502e-09
 \PG=CS [SG(H2O1)]\\@

 IT IS IMPOSSIBLE TO MEDITATE ON TIME AND THE MYSTERY

 Normal termination of Gaussian 09 at Wed Aug 26 10:31:46 2020.
