 Gaussian 09, Revision D.01,
 Gaussian 09:  ES64L-G09RevD.01 24-Apr-2013

 --------------------
 #p B2PLYPD3/Def2QZVP
 --------------------

 ---
 h2o
 ---
 Symbolic Z-matrix:
 Charge =  0 Multiplicity = 1

                         Standard orientation:
 ---------------------------------------------------------------------
 Center     Atomic      Atomic             Coordinates (Angstroms)
 Number     Number       Type             X           Y           Z
 ---------------------------------------------------------------------
      1          8           0        0.000000    0.121178    0.000000
      2          1           0        0.801811   -0.408267    0.000000
      3          1           0       -0.801811   -0.561157    0.000000
 ---------------------------------------------------------------------

 SCF Done:  E(RB2PLYPD3) =  -76.3263972363     A.U. after   10 cycles
 E2(B2PLYPD3) =    -0.9156174829D-01 E(B2PLYPD3) =    -0.76417958984587D+02

 The electronic state is 1-A'.
 Alpha  occ. eigenvalues --  -19.73758  -1.13602  -0.59432  -0.46513  -0.39553
 Alpha virt. eigenvalues --    0.03863   0.09717   0.27710   0.29467   0.30524
 Alpha virt. eigenvalues --    0.34099   0.42907   0.50105   0.55341   0.62274
 Alpha virt. eigenvalues --    0.66649   0.79650   0.91356   0.96811   1.00693

 Mulliken charges:
               1
     1  O   -0.475204
     2  H    0.221896
     3  H    0.253308
 Sum of Mulliken charges =   0.00000

 Dipole moment (field-independent basis, Debye):
    X=              0.0453    Y=             -1.9696    Z=              0.0000  Tot=              1.9701
 Quadrupole moment (field-independent basis, Debye-Ang):
   XX=             -4.1778   YY=             -6.3702   ZZ=             -7.7023
   XY=              0.2625   XZ=              0.0000   YZ=              0.0000

 1\1\GINC-NODE29\SP\RB2PLYPD3-FC\def2QZVP\H2O1\BOITTIER\26-Aug-2020\0\\
 #p B2PLYPD3/Def2QZVP\\h2o\\0,1\O,0,-5.326605,-0.767844,0.914151\H,0,-4
 .368927,-0.768915,0.992021\H,0,-5.609308,0.238456,0.787975\\Version=ES
 64L-G09RevD.01\State=1-A'\HF=-76.3263972\MP2=-76.417959\RMSD=6.485e-09
 \PG=CS [SG(H2O1)]\\@

 SUCCESS IS COUNTED SWEETEST

 Normal termination of Gaussian 09 at Wed Aug 26 08:51:25 2020.
