 Gaussian 09, Revision D.01,
 Gaussian 09:  ES64L-G09RevD.01 24-Apr-2013

 --------------------
 #p B2PLYPD3/Def2QZVP
 --------------------

 ---
 h2o
 ---
 Symbolic Z-matrix:
 Charge =  0 Multiplicity = 1

                         Standard orientation:
 ---------------------------------------------------------------------
 Center     Atomic      Atomic             Coordinates (Angstroms)
 Number     Number       Type             X           Y           Z
 ---------------------------------------------------------------------
      1          8           0        0.000000    0.110191    0.000000
      2          1           0        0.768637   -0.462008    0.000000
      3          1           0       -0.768637   -0.419523    0.000000
 ---------------------------------------------------------------------

 SCF Done:  E(RB2PLYPD3) =  -76.3347395670     A.U. after   10 cycles
 E2(B2PLYPD3) =    -0.8947333711D-01 E(B2PLYPD3) =    -0.76424212904134D+02

 The electronic state is 1-A'.
 Alpha  occ. eigenvalues --  -19.72751  -1.16013  -0.62630  -0.46857  -0.39979
 Alpha virt. eigenvalues --    0.04745   0.10253   0.27368   0.30390   0.31596
 Alpha virt. eigenvalues --    0.35767   0.44341   0.51206   0.55800   0.63539
 Alpha virt. eigenvalues --    0.65223   0.81187   0.93820   0.95809   1.05491

 Mulliken charges:
               1
     1  O   -0.440937
     2  H    0.226546
     3  H    0.214391
 Sum of Mulliken charges =   0.00000

 Dipole moment (field-independent basis, Debye):
    X=             -0.0114    Y=             -1.8875    Z=              0.0000  Tot=              1.8875
 Quadrupole moment (field-independent basis, Debye-Ang):
   XX=             -4.1946   YY=             -6.4343   ZZ=             -7.5717
   XY=             -0.0735   XZ=              0.0000   YZ=              0.0000

 1\1\GINC-NODE35\SP\RB2PLYPD3-FC\def2QZVP\H2O1\BOITTIER\26-Aug-2020\0\\
 #p B2PLYPD3/Def2QZVP\\h2o\\0,1\O,0,-5.326605,-0.76029,0.914449\H,0,-4.
 368927,-0.776795,0.942666\H,0,-5.609308,0.125479,0.831421\\Version=ES6
 4L-G09RevD.01\State=1-A'\HF=-76.3347396\MP2=-76.4242129\RMSD=4.375e-09
 \PG=CS [SG(H2O1)]\\@

 WHAT, THEN, IS TIME?  IF NO ONE ASKS ME, I KNOW WHAT IT IS.

 Normal termination of Gaussian 09 at Wed Aug 26 08:25:49 2020.
