 Gaussian 09, Revision D.01,
 Gaussian 09:  ES64L-G09RevD.01 24-Apr-2013

 --------------------
 #p B2PLYPD3/Def2QZVP
 --------------------

 ---
 h2o
 ---
 Symbolic Z-matrix:
 Charge =  0 Multiplicity = 1

                         Standard orientation:
 ---------------------------------------------------------------------
 Center     Atomic      Atomic             Coordinates (Angstroms)
 Number     Number       Type             X           Y           Z
 ---------------------------------------------------------------------
      1          8           0        0.000000    0.114384    0.000000
      2          1           0        0.785652   -0.434641    0.000000
      3          1           0       -0.785652   -0.480431    0.000000
 ---------------------------------------------------------------------

 SCF Done:  E(RB2PLYPD3) =  -76.3338188796     A.U. after   10 cycles
 E2(B2PLYPD3) =    -0.9033853491D-01 E(B2PLYPD3) =    -0.76424157414480D+02

 The electronic state is 1-A'.
 Alpha  occ. eigenvalues --  -19.73195  -1.14852  -0.61255  -0.46668  -0.39773
 Alpha virt. eigenvalues --    0.04430   0.10028   0.27534   0.30456   0.31001
 Alpha virt. eigenvalues --    0.34811   0.43608   0.50807   0.55601   0.63063
 Alpha virt. eigenvalues --    0.65886   0.80524   0.93090   0.96299   1.03452

 Mulliken charges:
               1
     1  O   -0.460352
     2  H    0.224517
     3  H    0.235836
 Sum of Mulliken charges =   0.00000

 Dipole moment (field-independent basis, Debye):
    X=              0.0126    Y=             -1.9182    Z=              0.0000  Tot=              1.9182
 Quadrupole moment (field-independent basis, Debye-Ang):
   XX=             -4.1663   YY=             -6.4288   ZZ=             -7.6300
   XY=              0.0795   XZ=              0.0000   YZ=              0.0000

 1\1\GINC-NODE09\SP\RB2PLYPD3-FC\def2QZVP\H2O1\BOITTIER\26-Aug-2020\0\\
 #p B2PLYPD3/Def2QZVP\\h2o\\0,1\O,0,-5.326605,-0.763128,0.915653\H,0,-4
 .368927,-0.780238,0.95084\H,0,-5.609308,0.174331,0.804727\\Version=ES6
 4L-G09RevD.01\State=1-A'\HF=-76.3338189\MP2=-76.4241574\RMSD=4.198e-09
 \PG=CS [SG(H2O1)]\\@

 LIVE PURE, SPEAK TRUE, RIGHT WRONG, FOLLOW THE KING...

 Normal termination of Gaussian 09 at Wed Aug 26 09:12:42 2020.
