 Gaussian 09, Revision D.01,
 Gaussian 09:  ES64L-G09RevD.01 24-Apr-2013

 --------------------
 #p B2PLYPD3/Def2QZVP
 --------------------

 ---
 h2o
 ---
 Symbolic Z-matrix:
 Charge =  0 Multiplicity = 1

                         Standard orientation:
 ---------------------------------------------------------------------
 Center     Atomic      Atomic             Coordinates (Angstroms)
 Number     Number       Type             X           Y           Z
 ---------------------------------------------------------------------
      1          8           0        0.000000    0.120114    0.000000
      2          1           0        0.743520   -0.489809    0.000000
      3          1           0       -0.743520   -0.471100    0.000000
 ---------------------------------------------------------------------

 SCF Done:  E(RB2PLYPD3) =  -76.3348746052     A.U. after   10 cycles
 E2(B2PLYPD3) =    -0.8997833945D-01 E(B2PLYPD3) =    -0.76424852944605D+02

 The electronic state is 1-A'.
 Alpha  occ. eigenvalues --  -19.73185  -1.16004  -0.60935  -0.47980  -0.40052
 Alpha virt. eigenvalues --    0.04516   0.10281   0.27536   0.30396   0.30810
 Alpha virt. eigenvalues --    0.36435   0.44072   0.49857   0.56676   0.61479
 Alpha virt. eigenvalues --    0.65609   0.81340   0.94199   0.95834   1.03577

 Mulliken charges:
               1
     1  O   -0.435481
     2  H    0.220379
     3  H    0.215102
 Sum of Mulliken charges =   0.00000

 Dipole moment (field-independent basis, Debye):
    X=             -0.0063    Y=             -1.9974    Z=              0.0000  Tot=              1.9974
 Quadrupole moment (field-independent basis, Debye-Ang):
   XX=             -4.4512   YY=             -6.2503   ZZ=             -7.5823
   XY=             -0.0295   XZ=              0.0000   YZ=              0.0000

 1\1\GINC-NODE34\SP\RB2PLYPD3-FC\def2QZVP\H2O1\BOITTIER\26-Aug-2020\0\\
 #p B2PLYPD3/Def2QZVP\\h2o\\0,1\O,0,-5.326605,-0.76615,0.922086\H,0,-4.
 368927,-0.678628,0.917506\H,0,-5.609308,0.12107,0.734268\\Version=ES64
 L-G09RevD.01\State=1-A'\HF=-76.3348746\MP2=-76.4248529\RMSD=4.428e-09\
 PG=CS [SG(H2O1)]\\@

  ON THE CHOICE OF THE CORRECT LANGUAGE -

 Normal termination of Gaussian 09 at Wed Aug 26 08:37:34 2020.
