 Gaussian 09, Revision D.01,
 Gaussian 09:  ES64L-G09RevD.01 24-Apr-2013

 --------------------
 #p B2PLYPD3/Def2QZVP
 --------------------

 ---
 h2o
 ---
 Symbolic Z-matrix:
 Charge =  0 Multiplicity = 1

                         Standard orientation:
 ---------------------------------------------------------------------
 Center     Atomic      Atomic             Coordinates (Angstroms)
 Number     Number       Type             X           Y           Z
 ---------------------------------------------------------------------
      1          8           0        0.000000    0.121998    0.000000
      2          1           0        0.715862   -0.531561    0.000000
      3          1           0       -0.715862   -0.444425    0.000000
 ---------------------------------------------------------------------

 SCF Done:  E(RB2PLYPD3) =  -76.3321687675     A.U. after   10 cycles
 E2(B2PLYPD3) =    -0.8959904076D-01 E(B2PLYPD3) =    -0.76421767808293D+02

 The electronic state is 1-A'.
 Alpha  occ. eigenvalues --  -19.73036  -1.17028  -0.61030  -0.48728  -0.40252
 Alpha virt. eigenvalues --    0.04567   0.10479   0.27459   0.30350   0.30728
 Alpha virt. eigenvalues --    0.37501   0.44635   0.49594   0.57255   0.60818
 Alpha virt. eigenvalues --    0.65230   0.81669   0.94692   0.95566   1.03945

 Mulliken charges:
               1
     1  O   -0.415578
     2  H    0.221593
     3  H    0.193986
 Sum of Mulliken charges =   0.00000

 Dipole moment (field-independent basis, Debye):
    X=             -0.0320    Y=             -2.0297    Z=              0.0000  Tot=              2.0299
 Quadrupole moment (field-independent basis, Debye-Ang):
   XX=             -4.6056   YY=             -6.1504   ZZ=             -7.5432
   XY=             -0.1299   XZ=              0.0000   YZ=              0.0000

 1\1\GINC-NODE26\SP\RB2PLYPD3-FC\def2QZVP\H2O1\BOITTIER\26-Aug-2020\0\\
 #p B2PLYPD3/Def2QZVP\\h2o\\0,1\O,0,-5.326605,-0.765821,0.928426\H,0,-4
 .368927,-0.63025,0.864618\H,0,-5.609308,0.067437,0.685415\\Version=ES6
 4L-G09RevD.01\State=1-A'\HF=-76.3321688\MP2=-76.4217678\RMSD=5.987e-09
 \PG=CS [SG(H2O1)]\\@

 ONLY THE DAY DAWNS TO WHICH YOU ARE AWAKE.

 Normal termination of Gaussian 09 at Wed Aug 26 08:41:04 2020.
