 Gaussian 09, Revision D.01,
 Gaussian 09:  ES64L-G09RevD.01 24-Apr-2013

 --------------------
 #p B2PLYPD3/Def2QZVP
 --------------------

 ---
 h2o
 ---
 Symbolic Z-matrix:
 Charge =  0 Multiplicity = 1

                         Standard orientation:
 ---------------------------------------------------------------------
 Center     Atomic      Atomic             Coordinates (Angstroms)
 Number     Number       Type             X           Y           Z
 ---------------------------------------------------------------------
      1          8           0        0.000000    0.113047    0.000000
      2          1           0        0.756371   -0.474760    0.000000
      3          1           0       -0.756371   -0.429616    0.000000
 ---------------------------------------------------------------------

 SCF Done:  E(RB2PLYPD3) =  -76.3348383177     A.U. after   10 cycles
 E2(B2PLYPD3) =    -0.8947990584D-01 E(B2PLYPD3) =    -0.76424318223530D+02

 The electronic state is 1-A'.
 Alpha  occ. eigenvalues --  -19.72821  -1.16249  -0.62285  -0.47304  -0.40047
 Alpha virt. eigenvalues --    0.04720   0.10308   0.27389   0.30380   0.31397
 Alpha virt. eigenvalues --    0.36237   0.44400   0.50738   0.56153   0.62853
 Alpha virt. eigenvalues --    0.65227   0.81403   0.94015   0.95695   1.05131

 Mulliken charges:
               1
     1  O   -0.434606
     2  H    0.223926
     3  H    0.210680
 Sum of Mulliken charges =   0.00000

 Dipole moment (field-independent basis, Debye):
    X=             -0.0132    Y=             -1.9227    Z=              0.0000  Tot=              1.9227
 Quadrupole moment (field-independent basis, Debye-Ang):
   XX=             -4.2926   YY=             -6.3679   ZZ=             -7.5638
   XY=             -0.0755   XZ=              0.0000   YZ=              0.0000

 1\1\GINC-NODE21\SP\RB2PLYPD3-FC\def2QZVP\H2O1\BOITTIER\26-Aug-2020\0\\
 #p B2PLYPD3/Def2QZVP\\h2o\\0,1\O,0,-5.326605,-0.761932,0.918091\H,0,-4
 .368927,-0.741069,0.923606\H,0,-5.609308,0.116024,0.792189\\Version=ES
 64L-G09RevD.01\State=1-A'\HF=-76.3348383\MP2=-76.4243182\RMSD=4.554e-0
 9\PG=CS [SG(H2O1)]\\@

 IT PROBABLY IS NOT POSSIBLE FOR A SCIENTIST TO INTERROGATE NATURE

 Normal termination of Gaussian 09 at Wed Aug 26 11:29:49 2020.
