 Gaussian 09, Revision D.01,
 Gaussian 09:  ES64L-G09RevD.01 24-Apr-2013

 --------------------
 #p B2PLYPD3/Def2QZVP
 --------------------

 ---
 h2o
 ---
 Symbolic Z-matrix:
 Charge =  0 Multiplicity = 1

                         Standard orientation:
 ---------------------------------------------------------------------
 Center     Atomic      Atomic             Coordinates (Angstroms)
 Number     Number       Type             X           Y           Z
 ---------------------------------------------------------------------
      1          8           0        0.000000    0.114736    0.000000
      2          1           0        0.769829   -0.459021    0.000000
      3          1           0       -0.769829   -0.458867    0.000000
 ---------------------------------------------------------------------

 SCF Done:  E(RB2PLYPD3) =  -76.3350575571     A.U. after   10 cycles
 E2(B2PLYPD3) =    -0.8998326140D-01 E(B2PLYPD3) =    -0.76425040818495D+02

 The electronic state is 1-A'.
 Alpha  occ. eigenvalues --  -19.73071  -1.15474  -0.61572  -0.47074  -0.39906
 Alpha virt. eigenvalues --    0.04557   0.10161   0.27491   0.30422   0.31157
 Alpha virt. eigenvalues --    0.35515   0.43925   0.50629   0.55950   0.62760
 Alpha virt. eigenvalues --    0.65624   0.80986   0.93615   0.96010   1.04191

 Mulliken charges:
               1
     1  O   -0.448565
     2  H    0.224303
     3  H    0.224262
 Sum of Mulliken charges =   0.00000

 Dipole moment (field-independent basis, Debye):
    X=              0.0000    Y=             -1.9312    Z=              0.0000  Tot=              1.9312
 Quadrupole moment (field-independent basis, Debye-Ang):
   XX=             -4.2499   YY=             -6.3847   ZZ=             -7.6004
   XY=             -0.0003   XZ=              0.0000   YZ=              0.0000

 1\1\GINC-NODE03\SP\RB2PLYPD3-FC\def2QZVP\H2O1\BOITTIER\26-Aug-2020\0\\
 #p B2PLYPD3/Def2QZVP\\h2o\\0,1\O,0,-5.326605,-0.761449,0.926033\H,0,-4
 .368927,-0.768119,0.857899\H,0,-5.609308,0.135349,0.732413\\Version=ES
 64L-G09RevD.01\State=1-A'\HF=-76.3350576\MP2=-76.4250408\RMSD=3.877e-0
 9\PG=CS [SG(H2O1)]\\@

 CHARLIE BROWN.."I CAN'T GET THAT STUPID KITE IN THE

 Normal termination of Gaussian 09 at Wed Aug 26 08:41:06 2020.
