 Gaussian 09, Revision D.01,
 Gaussian 09:  ES64L-G09RevD.01 24-Apr-2013

 --------------------
 #p B2PLYPD3/Def2QZVP
 --------------------

 ---
 h2o
 ---
 Symbolic Z-matrix:
 Charge =  0 Multiplicity = 1

                         Standard orientation:
 ---------------------------------------------------------------------
 Center     Atomic      Atomic             Coordinates (Angstroms)
 Number     Number       Type             X           Y           Z
 ---------------------------------------------------------------------
      1          8           0        0.000000    0.117772    0.000000
      2          1           0        0.763741   -0.465982    0.000000
      3          1           0       -0.763741   -0.476197    0.000000
 ---------------------------------------------------------------------

 SCF Done:  E(RB2PLYPD3) =  -76.3348673965     A.U. after   10 cycles
 E2(B2PLYPD3) =    -0.9017848723D-01 E(B2PLYPD3) =    -0.76425045883738D+02

 The electronic state is 1-A'.
 Alpha  occ. eigenvalues --  -19.73218  -1.15405  -0.61032  -0.47371  -0.39916
 Alpha virt. eigenvalues --    0.04475   0.10153   0.27550   0.30426   0.30882
 Alpha virt. eigenvalues --    0.35643   0.43814   0.50222   0.56177   0.62162
 Alpha virt. eigenvalues --    0.65773   0.81007   0.93657   0.96049   1.03460

 Mulliken charges:
               1
     1  O   -0.447695
     2  H    0.222503
     3  H    0.225193
 Sum of Mulliken charges =   0.00000

 Dipole moment (field-independent basis, Debye):
    X=              0.0032    Y=             -1.9637    Z=              0.0000  Tot=              1.9637
 Quadrupole moment (field-independent basis, Debye-Ang):
   XX=             -4.3214   YY=             -6.3318   ZZ=             -7.6066
   XY=              0.0169   XZ=              0.0000   YZ=              0.0000

 1\1\GINC-NODE16\SP\RB2PLYPD3-FC\def2QZVP\H2O1\BOITTIER\26-Aug-2020\0\\
 #p B2PLYPD3/Def2QZVP\\h2o\\0,1\O,0,-5.326605,-0.765576,0.91341\H,0,-4.
 368927,-0.720321,0.983224\H,0,-5.609308,0.153588,0.807031\\Version=ES6
 4L-G09RevD.01\State=1-A'\HF=-76.3348674\MP2=-76.4250459\RMSD=4.019e-09
 \PG=CS [SG(H2O1)]\\@

 There ain't no surer way to find out whether you

 Normal termination of Gaussian 09 at Wed Aug 26 08:47:11 2020.
