 Gaussian 09, Revision D.01,
 Gaussian 09:  ES64L-G09RevD.01 24-Apr-2013

 --------------------
 #p B2PLYPD3/Def2QZVP
 --------------------

 ---
 h2o
 ---
 Symbolic Z-matrix:
 Charge =  0 Multiplicity = 1

                         Standard orientation:
 ---------------------------------------------------------------------
 Center     Atomic      Atomic             Coordinates (Angstroms)
 Number     Number       Type             X           Y           Z
 ---------------------------------------------------------------------
      1          8           0        0.000000    0.119478    0.000000
      2          1           0        0.772827   -0.449315    0.000000
      3          1           0       -0.772827   -0.506513    0.000000
 ---------------------------------------------------------------------

 SCF Done:  E(RB2PLYPD3) =  -76.3333739137     A.U. after   10 cycles
 E2(B2PLYPD3) =    -0.9060159138D-01 E(B2PLYPD3) =    -0.76423975505103D+02

 The electronic state is 1-A'.
 Alpha  occ. eigenvalues --  -19.73414  -1.14855  -0.60448  -0.47217  -0.39815
 Alpha virt. eigenvalues --    0.04312   0.10032   0.27625   0.30456   0.30528
 Alpha virt. eigenvalues --    0.35151   0.43504   0.50085   0.56019   0.62035
 Alpha virt. eigenvalues --    0.66072   0.80675   0.93165   0.96305   1.02422

 Mulliken charges:
               1
     1  O   -0.455995
     2  H    0.220996
     3  H    0.234999
 Sum of Mulliken charges =   0.00000

 Dipole moment (field-independent basis, Debye):
    X=              0.0178    Y=             -1.9739    Z=              0.0000  Tot=              1.9740
 Quadrupole moment (field-independent basis, Debye-Ang):
   XX=             -4.3003   YY=             -6.3320   ZZ=             -7.6347
   XY=              0.0949   XZ=              0.0000   YZ=              0.0000

 1\1\GINC-NODE40\SP\RB2PLYPD3-FC\def2QZVP\H2O1\BOITTIER\26-Aug-2020\0\\
 #p B2PLYPD3/Def2QZVP\\h2o\\0,1\O,0,-5.326605,-0.766515,0.916672\H,0,-4
 .368927,-0.728218,0.963285\H,0,-5.609308,0.176508,0.775557\\Version=ES
 64L-G09RevD.01\State=1-A'\HF=-76.3333739\MP2=-76.4239755\RMSD=4.492e-0
 9\PG=CS [SG(H2O1)]\\@

 BETTER TO HUNT IN FIELDS, FOR HEALTH UNBOUGHT

 Normal termination of Gaussian 09 at Wed Aug 26 11:30:46 2020.
