 Gaussian 09, Revision D.01,
 Gaussian 09:  ES64L-G09RevD.01 24-Apr-2013

 --------------------
 #p B2PLYPD3/Def2QZVP
 --------------------

 ---
 h2o
 ---
 Symbolic Z-matrix:
 Charge =  0 Multiplicity = 1

                         Standard orientation:
 ---------------------------------------------------------------------
 Center     Atomic      Atomic             Coordinates (Angstroms)
 Number     Number       Type             X           Y           Z
 ---------------------------------------------------------------------
      1          8           0        0.000000    0.127246    0.000000
      2          1           0        0.736505   -0.502787    0.000000
      3          1           0       -0.736505   -0.515184    0.000000
 ---------------------------------------------------------------------

 SCF Done:  E(RB2PLYPD3) =  -76.3331435499     A.U. after   10 cycles
 E2(B2PLYPD3) =    -0.9070664915D-01 E(B2PLYPD3) =    -0.76423850199022D+02

 The electronic state is 1-A'.
 Alpha  occ. eigenvalues --  -19.73616  -1.15457  -0.59433  -0.48474  -0.40001
 Alpha virt. eigenvalues --    0.04240   0.10173   0.27728   0.30109   0.30422
 Alpha virt. eigenvalues --    0.36151   0.43603   0.49168   0.57045   0.60275
 Alpha virt. eigenvalues --    0.66098   0.81056   0.94231   0.96169   1.01747

 Mulliken charges:
               1
     1  O   -0.440533
     2  H    0.218657
     3  H    0.221876
 Sum of Mulliken charges =   0.00000

 Dipole moment (field-independent basis, Debye):
    X=              0.0047    Y=             -2.0662    Z=              0.0000  Tot=              2.0662
 Quadrupole moment (field-independent basis, Debye-Ang):
   XX=             -4.5855   YY=             -6.1435   ZZ=             -7.6154
   XY=              0.0186   XZ=              0.0000   YZ=              0.0000

 1\1\GINC-NODE05\SP\RB2PLYPD3-FC\def2QZVP\H2O1\BOITTIER\26-Aug-2020\0\\
 #p B2PLYPD3/Def2QZVP\\h2o\\0,1\O,0,-5.326605,-0.768059,0.932631\H,0,-4
 .368927,-0.647122,0.845403\H,0,-5.609308,0.120111,0.638709\\Version=ES
 64L-G09RevD.01\State=1-A'\HF=-76.3331435\MP2=-76.4238502\RMSD=4.645e-0
 9\PG=CS [SG(H2O1)]\\@

 I DO NOT KNOW WHAT I MAY APPEAR TO THE WORLD; BUT TO MYSELF

 Normal termination of Gaussian 09 at Wed Aug 26 09:43:38 2020.
