 Gaussian 09, Revision D.01,
 Gaussian 09:  ES64L-G09RevD.01 24-Apr-2013

 --------------------
 #p B2PLYPD3/Def2QZVP
 --------------------

 ---
 h2o
 ---
 Symbolic Z-matrix:
 Charge =  0 Multiplicity = 1

                         Standard orientation:
 ---------------------------------------------------------------------
 Center     Atomic      Atomic             Coordinates (Angstroms)
 Number     Number       Type             X           Y           Z
 ---------------------------------------------------------------------
      1          8           0        0.000000    0.117220    0.000000
      2          1           0        0.707967   -0.543236    0.000000
      3          1           0       -0.707967   -0.394522    0.000000
 ---------------------------------------------------------------------

 SCF Done:  E(RB2PLYPD3) =  -76.3269265299     A.U. after   10 cycles
 E2(B2PLYPD3) =    -0.8888516450D-01 E(B2PLYPD3) =    -0.76415811694419D+02

 The electronic state is 1-A'.
 Alpha  occ. eigenvalues --  -19.72590  -1.18061  -0.62353  -0.48620  -0.40398
 Alpha virt. eigenvalues --    0.04756   0.10628   0.27240   0.30302   0.31043
 Alpha virt. eigenvalues --    0.38076   0.45449   0.50022   0.57136   0.61521
 Alpha virt. eigenvalues --    0.64657   0.82011   0.94380   0.95408   1.04903

 Mulliken charges:
               1
     1  O   -0.395089
     2  H    0.224147
     3  H    0.170942
 Sum of Mulliken charges =   0.00000

 Dipole moment (field-independent basis, Debye):
    X=             -0.0519    Y=             -1.9880    Z=              0.0000  Tot=              1.9886
 Quadrupole moment (field-independent basis, Debye-Ang):
   XX=             -4.5732   YY=             -6.1764   ZZ=             -7.4978
   XY=             -0.2250   XZ=              0.0000   YZ=              0.0000

 1\1\GINC-NODE12\SP\RB2PLYPD3-FC\def2QZVP\H2O1\BOITTIER\26-Aug-2020\0\\
 #p B2PLYPD3/Def2QZVP\\h2o\\0,1\O,0,-5.326605,-0.762229,0.92903\H,0,-4.
 368927,-0.653004,0.837695\H,0,-5.609308,0.032705,0.702633\\Version=ES6
 4L-G09RevD.01\State=1-A'\HF=-76.3269265\MP2=-76.4158117\RMSD=6.748e-09
 \PG=CS [SG(H2O1)]\\@

 EVANS BOLDLY PUT 50 ATM. OF ETHYLENE IN A CELL WITH 25 ATM. OF OXYGEN.

 Normal termination of Gaussian 09 at Wed Aug 26 08:21:47 2020.
