 Gaussian 09, Revision D.01,
 Gaussian 09:  ES64L-G09RevD.01 24-Apr-2013

 --------------------
 #p B2PLYPD3/Def2QZVP
 --------------------

 ---
 h2o
 ---
 Symbolic Z-matrix:
 Charge =  0 Multiplicity = 1

                         Standard orientation:
 ---------------------------------------------------------------------
 Center     Atomic      Atomic             Coordinates (Angstroms)
 Number     Number       Type             X           Y           Z
 ---------------------------------------------------------------------
      1          8           0        0.000000    0.115848    0.000000
      2          1           0        0.750913   -0.480389    0.000000
      3          1           0       -0.750913   -0.446398    0.000000
 ---------------------------------------------------------------------

 SCF Done:  E(RB2PLYPD3) =  -76.3350417200     A.U. after   10 cycles
 E2(B2PLYPD3) =    -0.8965782489D-01 E(B2PLYPD3) =    -0.76424699544874D+02

 The electronic state is 1-A'.
 Alpha  occ. eigenvalues --  -19.72960  -1.16175  -0.61765  -0.47585  -0.40054
 Alpha virt. eigenvalues --    0.04645   0.10303   0.27443   0.30386   0.31173
 Alpha virt. eigenvalues --    0.36356   0.44281   0.50364   0.56371   0.62291
 Alpha virt. eigenvalues --    0.65369   0.81405   0.94089   0.95728   1.04560

 Mulliken charges:
               1
     1  O   -0.434621
     2  H    0.222237
     3  H    0.212384
 Sum of Mulliken charges =   0.00000

 Dipole moment (field-independent basis, Debye):
    X=             -0.0106    Y=             -1.9529    Z=              0.0000  Tot=              1.9529
 Quadrupole moment (field-independent basis, Debye-Ang):
   XX=             -4.3569   YY=             -6.3207   ZZ=             -7.5700
   XY=             -0.0555   XZ=              0.0000   YZ=              0.0000

 1\1\GINC-NODE31\SP\RB2PLYPD3-FC\def2QZVP\H2O1\BOITTIER\26-Aug-2020\0\\
 #p B2PLYPD3/Def2QZVP\\h2o\\0,1\O,0,-5.326605,-0.763424,0.920969\H,0,-4
 .368927,-0.717616,0.909813\H,0,-5.609308,0.11645,0.76006\\Version=ES64
 L-G09RevD.01\State=1-A'\HF=-76.3350417\MP2=-76.4246995\RMSD=4.425e-09\
 PG=CS [SG(H2O1)]\\@

 IF YOU GIVE A BOY AND A PIG EVERYTHING THEY WANT,

 Normal termination of Gaussian 09 at Wed Aug 26 10:00:38 2020.
