 Gaussian 09, Revision D.01,
 Gaussian 09:  ES64L-G09RevD.01 24-Apr-2013

 --------------------
 #p B2PLYPD3/Def2QZVP
 --------------------

 ---
 h2o
 ---
 Symbolic Z-matrix:
 Charge =  0 Multiplicity = 1

                         Standard orientation:
 ---------------------------------------------------------------------
 Center     Atomic      Atomic             Coordinates (Angstroms)
 Number     Number       Type             X           Y           Z
 ---------------------------------------------------------------------
      1          8           0        0.000000    0.118011    0.000000
      2          1           0        0.788183   -0.426724    0.000000
      3          1           0       -0.788183   -0.517368    0.000000
 ---------------------------------------------------------------------

 SCF Done:  E(RB2PLYPD3) =  -76.3316623981     A.U. after   10 cycles
 E2(B2PLYPD3) =    -0.9081990681D-01 E(B2PLYPD3) =    -0.76422482304887D+02

 The electronic state is 1-A'.
 Alpha  occ. eigenvalues --  -19.73450  -1.14401  -0.60410  -0.46757  -0.39704
 Alpha virt. eigenvalues --    0.04220   0.09924   0.27625   0.30401   0.30481
 Alpha virt. eigenvalues --    0.34605   0.43321   0.50377   0.55625   0.62522
 Alpha virt. eigenvalues --    0.66208   0.80276   0.92580   0.96504   1.02049

 Mulliken charges:
               1
     1  O   -0.465028
     2  H    0.222025
     3  H    0.243003
 Sum of Mulliken charges =   0.00000

 Dipole moment (field-independent basis, Debye):
    X=              0.0265    Y=             -1.9504    Z=              0.0000  Tot=              1.9506
 Quadrupole moment (field-independent basis, Debye-Ang):
   XX=             -4.2032   YY=             -6.3862   ZZ=             -7.6564
   XY=              0.1550   XZ=              0.0000   YZ=              0.0000

 1\1\GINC-NODE06\SP\RB2PLYPD3-FC\def2QZVP\H2O1\BOITTIER\26-Aug-2020\0\\
 #p B2PLYPD3/Def2QZVP\\h2o\\0,1\O,0,-5.326605,-0.765386,0.91794\H,0,-4.
 368927,-0.765612,0.946612\H,0,-5.609308,0.195832,0.772759\\Version=ES6
 4L-G09RevD.01\State=1-A'\HF=-76.3316624\MP2=-76.4224823\RMSD=5.127e-09
 \PG=CS [SG(H2O1)]\\@

 QED = W**5 (WHICH WAS WHAT WE WANTED)

 Normal termination of Gaussian 09 at Wed Aug 26 12:28:03 2020.
