 Gaussian 09, Revision D.01,
 Gaussian 09:  ES64L-G09RevD.01 24-Apr-2013

 --------------------
 #p B2PLYPD3/Def2QZVP
 --------------------

 ---
 h2o
 ---
 Symbolic Z-matrix:
 Charge =  0 Multiplicity = 1

                         Standard orientation:
 ---------------------------------------------------------------------
 Center     Atomic      Atomic             Coordinates (Angstroms)
 Number     Number       Type             X           Y           Z
 ---------------------------------------------------------------------
      1          8           0        0.000000    0.119297    0.000000
      2          1           0        0.758252   -0.468658    0.000000
      3          1           0       -0.758252   -0.485718    0.000000
 ---------------------------------------------------------------------

 SCF Done:  E(RB2PLYPD3) =  -76.3347577147     A.U. after   10 cycles
 E2(B2PLYPD3) =    -0.9022542594D-01 E(B2PLYPD3) =    -0.76424983140624D+02

 The electronic state is 1-A'.
 Alpha  occ. eigenvalues --  -19.73269  -1.15469  -0.60811  -0.47578  -0.39941
 Alpha virt. eigenvalues --    0.04448   0.10169   0.27571   0.30423   0.30763
 Alpha virt. eigenvalues --    0.35808   0.43812   0.50016   0.56340   0.61832
 Alpha virt. eigenvalues --    0.65805   0.81063   0.93759   0.96039   1.03199

 Mulliken charges:
               1
     1  O   -0.445485
     2  H    0.220485
     3  H    0.225000
 Sum of Mulliken charges =   0.00000

 Dipole moment (field-independent basis, Debye):
    X=              0.0055    Y=             -1.9812    Z=              0.0000  Tot=              1.9812
 Quadrupole moment (field-independent basis, Debye-Ang):
   XX=             -4.3692   YY=             -6.2987   ZZ=             -7.6053
   XY=              0.0277   XZ=              0.0000   YZ=              0.0000

 1\1\GINC-NODE37\SP\RB2PLYPD3-FC\def2QZVP\H2O1\BOITTIER\26-Aug-2020\0\\
 #p B2PLYPD3/Def2QZVP\\h2o\\0,1\O,0,-5.326605,-0.765081,0.924431\H,0,-4
 .368927,-0.715288,0.892649\H,0,-5.609308,0.140628,0.722543\\Version=ES
 64L-G09RevD.01\State=1-A'\HF=-76.3347577\MP2=-76.4249831\RMSD=4.159e-0
 9\PG=CS [SG(H2O1)]\\@

 WORK FAITHFULLY FOR EIGHT HOURS A DAY AND DON'T WORRY.

 Normal termination of Gaussian 09 at Wed Aug 26 12:41:02 2020.
