 Gaussian 09, Revision D.01,
 Gaussian 09:  ES64L-G09RevD.01 24-Apr-2013

 --------------------
 #p B2PLYPD3/Def2QZVP
 --------------------

 ---
 h2o
 ---
 Symbolic Z-matrix:
 Charge =  0 Multiplicity = 1

                         Standard orientation:
 ---------------------------------------------------------------------
 Center     Atomic      Atomic             Coordinates (Angstroms)
 Number     Number       Type             X           Y           Z
 ---------------------------------------------------------------------
      1          8           0        0.000000    0.125533    0.000000
      2          1           0        0.719393   -0.527500    0.000000
      3          1           0       -0.719393   -0.476767    0.000000
 ---------------------------------------------------------------------

 SCF Done:  E(RB2PLYPD3) =  -76.3331435559     A.U. after   10 cycles
 E2(B2PLYPD3) =    -0.9011094507D-01 E(B2PLYPD3) =    -0.76423254500980D+02

 The electronic state is 1-A'.
 Alpha  occ. eigenvalues --  -19.73332  -1.16403  -0.60123  -0.48823  -0.40165
 Alpha virt. eigenvalues --    0.04411   0.10371   0.27599   0.30379   0.30420
 Alpha virt. eigenvalues --    0.37048   0.44155   0.49304   0.57338   0.60301
 Alpha virt. eigenvalues --    0.65616   0.81422   0.94751   0.95780   1.02956

 Mulliken charges:
               1
     1  O   -0.425603
     2  H    0.220224
     3  H    0.205379
 Sum of Mulliken charges =   0.00000

 Dipole moment (field-independent basis, Debye):
    X=             -0.0194    Y=             -2.0604    Z=              0.0000  Tot=              2.0605
 Quadrupole moment (field-independent basis, Debye-Ang):
   XX=             -4.6402   YY=             -6.1196   ZZ=             -7.5730
   XY=             -0.0746   XZ=              0.0000   YZ=              0.0000

 1\1\GINC-NODE32\SP\RB2PLYPD3-FC\def2QZVP\H2O1\BOITTIER\26-Aug-2020\0\\
 #p B2PLYPD3/Def2QZVP\\h2o\\0,1\O,0,-5.326605,-0.768258,0.928481\H,0,-4
 .368927,-0.612052,0.879167\H,0,-5.609308,0.08823,0.670025\\Version=ES6
 4L-G09RevD.01\State=1-A'\HF=-76.3331436\MP2=-76.4232545\RMSD=5.321e-09
 \PG=CS [SG(H2O1)]\\@

 ALL THINGS ARE POSSIBLE EXCEPT SKIING THROUGH A REVOLVING DOOR.

 Normal termination of Gaussian 09 at Wed Aug 26 08:46:57 2020.
