 Gaussian 09, Revision D.01,
 Gaussian 09:  ES64L-G09RevD.01 24-Apr-2013

 --------------------
 #p B2PLYPD3/Def2QZVP
 --------------------

 ---
 h2o
 ---
 Symbolic Z-matrix:
 Charge =  0 Multiplicity = 1

                         Standard orientation:
 ---------------------------------------------------------------------
 Center     Atomic      Atomic             Coordinates (Angstroms)
 Number     Number       Type             X           Y           Z
 ---------------------------------------------------------------------
      1          8           0        0.000000    0.121739    0.000000
      2          1           0        0.759002   -0.466646    0.000000
      3          1           0       -0.759002   -0.507262    0.000000
 ---------------------------------------------------------------------

 SCF Done:  E(RB2PLYPD3) =  -76.3338575062     A.U. after   10 cycles
 E2(B2PLYPD3) =    -0.9053667193D-01 E(B2PLYPD3) =    -0.76424394178167D+02

 The electronic state is 1-A'.
 Alpha  occ. eigenvalues --  -19.73441  -1.15171  -0.60247  -0.47666  -0.39899
 Alpha virt. eigenvalues --    0.04327   0.10106   0.27642   0.30438   0.30455
 Alpha virt. eigenvalues --    0.35620   0.43607   0.49756   0.56389   0.61461
 Alpha virt. eigenvalues --    0.66025   0.80912   0.93577   0.96197   1.02374

 Mulliken charges:
               1
     1  O   -0.448878
     2  H    0.219288
     3  H    0.229589
 Sum of Mulliken charges =   0.00000

 Dipole moment (field-independent basis, Debye):
    X=              0.0135    Y=             -2.0031    Z=              0.0000  Tot=              2.0032
 Quadrupole moment (field-independent basis, Debye-Ang):
   XX=             -4.3996   YY=             -6.2694   ZZ=             -7.6220
   XY=              0.0651   XZ=              0.0000   YZ=              0.0000

 1\1\GINC-NODE28\SP\RB2PLYPD3-FC\def2QZVP\H2O1\BOITTIER\26-Aug-2020\0\\
 #p B2PLYPD3/Def2QZVP\\h2o\\0,1\O,0,-5.326605,-0.76641,0.925859\H,0,-4.
 368927,-0.704686,0.889482\H,0,-5.609308,0.151284,0.703053\\Version=ES6
 4L-G09RevD.01\State=1-A'\HF=-76.3338575\MP2=-76.4243942\RMSD=4.404e-09
 \PG=CS [SG(H2O1)]\\@

 Spring appears, and we are once more children.

 Normal termination of Gaussian 09 at Wed Aug 26 11:47:56 2020.
