 Gaussian 09, Revision D.01,
 Gaussian 09:  ES64L-G09RevD.01 24-Apr-2013

 --------------------
 #p B2PLYPD3/Def2QZVP
 --------------------

 ---
 h2o
 ---
 Symbolic Z-matrix:
 Charge =  0 Multiplicity = 1

                         Standard orientation:
 ---------------------------------------------------------------------
 Center     Atomic      Atomic             Coordinates (Angstroms)
 Number     Number       Type             X           Y           Z
 ---------------------------------------------------------------------
      1          8           0        0.000000    0.117211    0.000000
      2          1           0        0.784242   -0.432904    0.000000
      3          1           0       -0.784242   -0.504782    0.000000
 ---------------------------------------------------------------------

 SCF Done:  E(RB2PLYPD3) =  -76.3327760232     A.U. after   10 cycles
 E2(B2PLYPD3) =    -0.9062442633D-01 E(B2PLYPD3) =    -0.76423400449495D+02

 The electronic state is 1-A'.
 Alpha  occ. eigenvalues --  -19.73365  -1.14632  -0.60676  -0.46826  -0.39748
 Alpha virt. eigenvalues --    0.04306   0.09979   0.27597   0.30468   0.30617
 Alpha virt. eigenvalues --    0.34780   0.43445   0.50442   0.55701   0.62582
 Alpha virt. eigenvalues --    0.66081   0.80443   0.92862   0.96398   1.02524

 Mulliken charges:
               1
     1  O   -0.461769
     2  H    0.222295
     3  H    0.239473
 Sum of Mulliken charges =   0.00000

 Dipole moment (field-independent basis, Debye):
    X=              0.0209    Y=             -1.9456    Z=              0.0000  Tot=              1.9457
 Quadrupole moment (field-independent basis, Debye-Ang):
   XX=             -4.2120   YY=             -6.3882   ZZ=             -7.6438
   XY=              0.1227   XZ=              0.0000   YZ=              0.0000

 1\1\GINC-NODE13\SP\RB2PLYPD3-FC\def2QZVP\H2O1\BOITTIER\26-Aug-2020\0\\
 #p B2PLYPD3/Def2QZVP\\h2o\\0,1\O,0,-5.326605,-0.764805,0.918204\H,0,-4
 .368927,-0.763609,0.940873\H,0,-5.609308,0.184532,0.774159\\Version=ES
 64L-G09RevD.01\State=1-A'\HF=-76.332776\MP2=-76.4234004\RMSD=4.725e-09
 \PG=CS [SG(H2O1)]\\@

 TOWERING GENIUS DISDAINS A BEATEN PATH.  IT SEEKS

 Normal termination of Gaussian 09 at Wed Aug 26 08:30:22 2020.
