 Gaussian 09, Revision D.01,
 Gaussian 09:  ES64L-G09RevD.01 24-Apr-2013

 --------------------
 #p B2PLYPD3/Def2QZVP
 --------------------

 ---
 h2o
 ---
 Symbolic Z-matrix:
 Charge =  0 Multiplicity = 1

                         Standard orientation:
 ---------------------------------------------------------------------
 Center     Atomic      Atomic             Coordinates (Angstroms)
 Number     Number       Type             X           Y           Z
 ---------------------------------------------------------------------
      1          8           0        0.000000    0.128458    0.000000
      2          1           0        0.745280   -0.490169    0.000000
      3          1           0       -0.745280   -0.537498    0.000000
 ---------------------------------------------------------------------

 SCF Done:  E(RB2PLYPD3) =  -76.3318398958     A.U. after   10 cycles
 E2(B2PLYPD3) =    -0.9106636859D-01 E(B2PLYPD3) =    -0.76422906264386D+02

 The electronic state is 1-A'.
 Alpha  occ. eigenvalues --  -19.73775  -1.14967  -0.59015  -0.48292  -0.39914
 Alpha virt. eigenvalues --    0.04111   0.10058   0.27795   0.29827   0.30445
 Alpha virt. eigenvalues --    0.35676   0.43348   0.49067   0.56866   0.60240
 Alpha virt. eigenvalues --    0.66349   0.80816   0.93759   0.96398   1.01043

 Mulliken charges:
               1
     1  O   -0.447421
     2  H    0.217963
     3  H    0.229458
 Sum of Mulliken charges =   0.00000

 Dipole moment (field-independent basis, Debye):
    X=              0.0179    Y=             -2.0715    Z=              0.0000  Tot=              2.0716
 Quadrupole moment (field-independent basis, Debye-Ang):
   XX=             -4.5612   YY=             -6.1490   ZZ=             -7.6393
   XY=              0.0715   XZ=              0.0000   YZ=              0.0000

 1\1\GINC-NODE15\SP\RB2PLYPD3-FC\def2QZVP\H2O1\BOITTIER\26-Aug-2020\0\\
 #p B2PLYPD3/Def2QZVP\\h2o\\0,1\O,0,-5.326605,-0.768376,0.934035\H,0,-4
 .368927,-0.661318,0.8364\H,0,-5.609308,0.139378,0.625812\\Version=ES64
 L-G09RevD.01\State=1-A'\HF=-76.3318399\MP2=-76.4229063\RMSD=4.739e-09\
 PG=CS [SG(H2O1)]\\@

 IF AT FIRST YOU DON'T SUCCEED, TRY, TRY AGAIN.

 Normal termination of Gaussian 09 at Wed Aug 26 08:33:44 2020.
