 Gaussian 09, Revision D.01,
 Gaussian 09:  ES64L-G09RevD.01 24-Apr-2013

 --------------------
 #p B2PLYPD3/Def2QZVP
 --------------------

 ---
 h2o
 ---
 Symbolic Z-matrix:
 Charge =  0 Multiplicity = 1

                         Standard orientation:
 ---------------------------------------------------------------------
 Center     Atomic      Atomic             Coordinates (Angstroms)
 Number     Number       Type             X           Y           Z
 ---------------------------------------------------------------------
      1          8           0        0.000000    0.117196    0.000000
      2          1           0        0.757986   -0.469906    0.000000
      3          1           0       -0.757986   -0.467664    0.000000
 ---------------------------------------------------------------------

 SCF Done:  E(RB2PLYPD3) =  -76.3351500526     A.U. after   10 cycles
 E2(B2PLYPD3) =    -0.8997521485D-01 E(B2PLYPD3) =    -0.76425125267445D+02

 The electronic state is 1-A'.
 Alpha  occ. eigenvalues --  -19.73124  -1.15713  -0.61293  -0.47484  -0.39973
 Alpha virt. eigenvalues --    0.04543   0.10216   0.27511   0.30410   0.30997
 Alpha virt. eigenvalues --    0.35945   0.43991   0.50252   0.56278   0.62170
 Alpha virt. eigenvalues --    0.65618   0.81177   0.93865   0.95917   1.03897

 Mulliken charges:
               1
     1  O   -0.442494
     2  H    0.221554
     3  H    0.220940
 Sum of Mulliken charges =   0.00000

 Dipole moment (field-independent basis, Debye):
    X=             -0.0007    Y=             -1.9617    Z=              0.0000  Tot=              1.9617
 Quadrupole moment (field-independent basis, Debye-Ang):
   XX=             -4.3414   YY=             -6.3239   ZZ=             -7.5919
   XY=             -0.0037   XZ=              0.0000   YZ=              0.0000

 1\1\GINC-NODE05\SP\RB2PLYPD3-FC\def2QZVP\H2O1\BOITTIER\26-Aug-2020\0\\
 #p B2PLYPD3/Def2QZVP\\h2o\\0,1\O,0,-5.326605,-0.764569,0.919739\H,0,-4
 .368927,-0.719445,0.926728\H,0,-5.609308,0.136591,0.762914\\Version=ES
 64L-G09RevD.01\State=1-A'\HF=-76.3351501\MP2=-76.4251253\RMSD=4.075e-0
 9\PG=CS [SG(H2O1)]\\@

 SIGN SEEN IN A RESTAURANT-

 Normal termination of Gaussian 09 at Wed Aug 26 12:02:03 2020.
