 Gaussian 09, Revision D.01,
 Gaussian 09:  ES64L-G09RevD.01 24-Apr-2013

 --------------------
 #p B2PLYPD3/Def2QZVP
 --------------------

 ---
 h2o
 ---
 Symbolic Z-matrix:
 Charge =  0 Multiplicity = 1

                         Standard orientation:
 ---------------------------------------------------------------------
 Center     Atomic      Atomic             Coordinates (Angstroms)
 Number     Number       Type             X           Y           Z
 ---------------------------------------------------------------------
      1          8           0        0.000000    0.117680    0.000000
      2          1           0        0.716620   -0.529946    0.000000
      3          1           0       -0.716620   -0.411495    0.000000
 ---------------------------------------------------------------------

 SCF Done:  E(RB2PLYPD3) =  -76.3302378643     A.U. after   10 cycles
 E2(B2PLYPD3) =    -0.8911198916D-01 E(B2PLYPD3) =    -0.76419349853427D+02

 The electronic state is 1-A'.
 Alpha  occ. eigenvalues --  -19.72725  -1.17561  -0.62066  -0.48467  -0.40317
 Alpha virt. eigenvalues --    0.04724   0.10553   0.27315   0.30323   0.31049
 Alpha virt. eigenvalues --    0.37748   0.45093   0.50003   0.57043   0.61535
 Alpha virt. eigenvalues --    0.64866   0.81892   0.94475   0.95439   1.04782

 Mulliken charges:
               1
     1  O   -0.406027
     2  H    0.223075
     3  H    0.182952
 Sum of Mulliken charges =   0.00000

 Dipole moment (field-independent basis, Debye):
    X=             -0.0409    Y=             -1.9884    Z=              0.0000  Tot=              1.9888
 Quadrupole moment (field-independent basis, Debye-Ang):
   XX=             -4.5412   YY=             -6.1994   ZZ=             -7.5166
   XY=             -0.1813   XZ=              0.0000   YZ=              0.0000

 1\1\GINC-NODE14\SP\RB2PLYPD3-FC\def2QZVP\H2O1\BOITTIER\26-Aug-2020\0\\
 #p B2PLYPD3/Def2QZVP\\h2o\\0,1\O,0,-5.326605,-0.763086,0.927448\H,0,-4
 .368927,-0.659823,0.855663\H,0,-5.609308,0.053244,0.710066\\Version=ES
 64L-G09RevD.01\State=1-A'\HF=-76.3302379\MP2=-76.4193499\RMSD=6.506e-0
 9\PG=CS [SG(H2O1)]\\@

 WORK FAITHFULLY FOR EIGHT HOURS A DAY AND DON'T WORRY.

 Normal termination of Gaussian 09 at Wed Aug 26 08:56:42 2020.
