 Gaussian 09, Revision D.01,
 Gaussian 09:  ES64L-G09RevD.01 24-Apr-2013

 --------------------
 #p B2PLYPD3/Def2QZVP
 --------------------

 ---
 h2o
 ---
 Symbolic Z-matrix:
 Charge =  0 Multiplicity = 1

                         Standard orientation:
 ---------------------------------------------------------------------
 Center     Atomic      Atomic             Coordinates (Angstroms)
 Number     Number       Type             X           Y           Z
 ---------------------------------------------------------------------
      1          8           0        0.000000    0.118861    0.000000
      2          1           0        0.760232   -0.467821    0.000000
      3          1           0       -0.760232   -0.483067    0.000000
 ---------------------------------------------------------------------

 SCF Done:  E(RB2PLYPD3) =  -76.3347812078     A.U. after   10 cycles
 E2(B2PLYPD3) =    -0.9022118310D-01 E(B2PLYPD3) =    -0.76425002390895D+02

 The electronic state is 1-A'.
 Alpha  occ. eigenvalues --  -19.73258  -1.15434  -0.60866  -0.47509  -0.39930
 Alpha virt. eigenvalues --    0.04453   0.10161   0.27566   0.30425   0.30793
 Alpha virt. eigenvalues --    0.35743   0.43804   0.50076   0.56284   0.61932
 Alpha virt. eigenvalues --    0.65803   0.81039   0.93716   0.96048   1.03256

 Mulliken charges:
               1
     1  O   -0.446415
     2  H    0.221197
     3  H    0.225218
 Sum of Mulliken charges =   0.00000

 Dipole moment (field-independent basis, Debye):
    X=              0.0049    Y=             -1.9760    Z=              0.0000  Tot=              1.9760
 Quadrupole moment (field-independent basis, Debye-Ang):
   XX=             -4.3535   YY=             -6.3092   ZZ=             -7.6065
   XY=              0.0249   XZ=              0.0000   YZ=              0.0000

 1\1\GINC-NODE13\SP\RB2PLYPD3-FC\def2QZVP\H2O1\BOITTIER\26-Aug-2020\0\\
 #p B2PLYPD3/Def2QZVP\\h2o\\0,1\O,0,-5.326605,-0.766081,0.916813\H,0,-4
 .368927,-0.709517,0.95925\H,0,-5.609308,0.15085,0.776863\\Version=ES64
 L-G09RevD.01\State=1-A'\HF=-76.3347812\MP2=-76.4250024\RMSD=4.111e-09\
 PG=CS [SG(H2O1)]\\@

            THE IRISH PIG

 Normal termination of Gaussian 09 at Wed Aug 26 12:32:03 2020.
