 Gaussian 09, Revision D.01,
 Gaussian 09:  ES64L-G09RevD.01 24-Apr-2013

 --------------------
 #p B2PLYPD3/Def2QZVP
 --------------------

 ---
 h2o
 ---
 Symbolic Z-matrix:
 Charge =  0 Multiplicity = 1

                         Standard orientation:
 ---------------------------------------------------------------------
 Center     Atomic      Atomic             Coordinates (Angstroms)
 Number     Number       Type             X           Y           Z
 ---------------------------------------------------------------------
      1          8           0        0.000000    0.117981    0.000000
      2          1           0        0.776600   -0.443175    0.000000
      3          1           0       -0.776600   -0.500675    0.000000
 ---------------------------------------------------------------------

 SCF Done:  E(RB2PLYPD3) =  -76.3335070913     A.U. after   10 cycles
 E2(B2PLYPD3) =    -0.9052014948D-01 E(B2PLYPD3) =    -0.76424027240810D+02

 The electronic state is 1-A'.
 Alpha  occ. eigenvalues --  -19.73348  -1.14858  -0.60690  -0.47055  -0.39803
 Alpha virt. eigenvalues --    0.04347   0.10032   0.27596   0.30456   0.30657
 Alpha virt. eigenvalues --    0.35064   0.43539   0.50288   0.55894   0.62335
 Alpha virt. eigenvalues --    0.66012   0.80640   0.93124   0.96297   1.02696

 Mulliken charges:
               1
     1  O   -0.457146
     2  H    0.221509
     3  H    0.235637
 Sum of Mulliken charges =   0.00000

 Dipole moment (field-independent basis, Debye):
    X=              0.0173    Y=             -1.9576    Z=              0.0000  Tot=              1.9577
 Quadrupole moment (field-independent basis, Debye-Ang):
   XX=             -4.2608   YY=             -6.3603   ZZ=             -7.6332
   XY=              0.0967   XZ=              0.0000   YZ=              0.0000

 1\1\GINC-NODE21\SP\RB2PLYPD3-FC\def2QZVP\H2O1\BOITTIER\26-Aug-2020\0\\
 #p B2PLYPD3/Def2QZVP\\h2o\\0,1\O,0,-5.326605,-0.76528,0.918586\H,0,-4.
 368927,-0.746012,0.940606\H,0,-5.609308,0.17454,0.768052\\Version=ES64
 L-G09RevD.01\State=1-A'\HF=-76.3335071\MP2=-76.4240272\RMSD=4.474e-09\
 PG=CS [SG(H2O1)]\\@

 TOM, TOM, THE BURGLAR'S SON

 Normal termination of Gaussian 09 at Wed Aug 26 09:42:02 2020.
