 Gaussian 09, Revision D.01,
 Gaussian 09:  ES64L-G09RevD.01 24-Apr-2013

 --------------------
 #p B2PLYPD3/Def2QZVP
 --------------------

 ---
 h2o
 ---
 Symbolic Z-matrix:
 Charge =  0 Multiplicity = 1

                         Standard orientation:
 ---------------------------------------------------------------------
 Center     Atomic      Atomic             Coordinates (Angstroms)
 Number     Number       Type             X           Y           Z
 ---------------------------------------------------------------------
      1          8           0        0.000000    0.118210    0.000000
      2          1           0        0.753949   -0.475058    0.000000
      3          1           0       -0.753949   -0.470620    0.000000
 ---------------------------------------------------------------------

 SCF Done:  E(RB2PLYPD3) =  -76.3351014483     A.U. after   10 cycles
 E2(B2PLYPD3) =    -0.8999655493D-01 E(B2PLYPD3) =    -0.76425098003243D+02

 The electronic state is 1-A'.
 Alpha  occ. eigenvalues --  -19.73154  -1.15772  -0.61152  -0.47633  -0.39993
 Alpha virt. eigenvalues --    0.04528   0.10230   0.27524   0.30407   0.30925
 Alpha virt. eigenvalues --    0.36075   0.43997   0.50113   0.56397   0.61942
 Alpha virt. eigenvalues --    0.65633   0.81220   0.93949   0.95901   1.03744

 Mulliken charges:
               1
     1  O   -0.440772
     2  H    0.220997
     3  H    0.219775
 Sum of Mulliken charges =   0.00000

 Dipole moment (field-independent basis, Debye):
    X=             -0.0014    Y=             -1.9736    Z=              0.0000  Tot=              1.9736
 Quadrupole moment (field-independent basis, Debye-Ang):
   XX=             -4.3749   YY=             -6.3010   ZZ=             -7.5903
   XY=             -0.0072   XZ=              0.0000   YZ=              0.0000

 1\1\GINC-NODE06\SP\RB2PLYPD3-FC\def2QZVP\H2O1\BOITTIER\26-Aug-2020\0\\
 #p B2PLYPD3/Def2QZVP\\h2o\\0,1\O,0,-5.326605,-0.765029,0.921128\H,0,-4
 .368927,-0.708016,0.91845\H,0,-5.609308,0.132525,0.748981\\Version=ES6
 4L-G09RevD.01\State=1-A'\HF=-76.3351014\MP2=-76.425098\RMSD=4.158e-09\
 PG=CS [SG(H2O1)]\\@

 IT IS UNWORTHY OF EXCELLENT MEN TO LOSE HOURS LIKE SLAVES IN THE LABOR

 Normal termination of Gaussian 09 at Wed Aug 26 10:18:11 2020.
