 Gaussian 09, Revision D.01,
 Gaussian 09:  ES64L-G09RevD.01 24-Apr-2013

 --------------------
 #p B2PLYPD3/Def2QZVP
 --------------------

 ---
 h2o
 ---
 Symbolic Z-matrix:
 Charge =  0 Multiplicity = 1

                         Standard orientation:
 ---------------------------------------------------------------------
 Center     Atomic      Atomic             Coordinates (Angstroms)
 Number     Number       Type             X           Y           Z
 ---------------------------------------------------------------------
      1          8           0        0.000000    0.116212    0.000000
      2          1           0        0.743824   -0.490390    0.000000
      3          1           0       -0.743824   -0.439308    0.000000
 ---------------------------------------------------------------------

 SCF Done:  E(RB2PLYPD3) =  -76.3346043340     A.U. after   10 cycles
 E2(B2PLYPD3) =    -0.8953644892D-01 E(B2PLYPD3) =    -0.76424140782875D+02

 The electronic state is 1-A'.
 Alpha  occ. eigenvalues --  -19.72913  -1.16452  -0.61840  -0.47771  -0.40109
 Alpha virt. eigenvalues --    0.04672   0.10357   0.27421   0.30373   0.31166
 Alpha virt. eigenvalues --    0.36668   0.44432   0.50281   0.56521   0.62129
 Alpha virt. eigenvalues --    0.65266   0.81535   0.94230   0.95636   1.04651

 Mulliken charges:
               1
     1  O   -0.429081
     2  H    0.222185
     3  H    0.206896
 Sum of Mulliken charges =   0.00000

 Dipole moment (field-independent basis, Debye):
    X=             -0.0162    Y=             -1.9603    Z=              0.0000  Tot=              1.9604
 Quadrupole moment (field-independent basis, Debye-Ang):
   XX=             -4.3956   YY=             -6.2967   ZZ=             -7.5585
   XY=             -0.0824   XZ=              0.0000   YZ=              0.0000

 1\1\GINC-NODE12\SP\RB2PLYPD3-FC\def2QZVP\H2O1\BOITTIER\26-Aug-2020\0\\
 #p B2PLYPD3/Def2QZVP\\h2o\\0,1\O,0,-5.326605,-0.763283,0.922898\H,0,-4
 .368927,-0.706456,0.893506\H,0,-5.609308,0.103022,0.745495\\Version=ES
 64L-G09RevD.01\State=1-A'\HF=-76.3346043\MP2=-76.4241408\RMSD=4.845e-0
 9\PG=CS [SG(H2O1)]\\@

 Fatherhood is pretending the present you love most is soap-on-a-rope.

 Normal termination of Gaussian 09 at Wed Aug 26 09:10:32 2020.
