 Gaussian 09, Revision D.01,
 Gaussian 09:  ES64L-G09RevD.01 24-Apr-2013

 --------------------
 #p B2PLYPD3/Def2QZVP
 --------------------

 ---
 h2o
 ---
 Symbolic Z-matrix:
 Charge =  0 Multiplicity = 1

                         Standard orientation:
 ---------------------------------------------------------------------
 Center     Atomic      Atomic             Coordinates (Angstroms)
 Number     Number       Type             X           Y           Z
 ---------------------------------------------------------------------
      1          8           0        0.000000    0.120012    0.000000
      2          1           0        0.793799   -0.416006    0.000000
      3          1           0       -0.793799   -0.544088    0.000000
 ---------------------------------------------------------------------

 SCF Done:  E(RB2PLYPD3) =  -76.3290126045     A.U. after   10 cycles
 E2(B2PLYPD3) =    -0.9120858132D-01 E(B2PLYPD3) =    -0.76420221185795D+02

 The electronic state is 1-A'.
 Alpha  occ. eigenvalues --  -19.73621  -1.14004  -0.59857  -0.46679  -0.39632
 Alpha virt. eigenvalues --    0.04033   0.09824   0.27679   0.29886   0.30502
 Alpha virt. eigenvalues --    0.34376   0.43111   0.50183   0.55515   0.62317
 Alpha virt. eigenvalues --    0.66440   0.79982   0.91967   0.96683   1.01205

 Mulliken charges:
               1
     1  O   -0.469710
     2  H    0.220890
     3  H    0.248820
 Sum of Mulliken charges =   0.00000

 Dipole moment (field-independent basis, Debye):
    X=              0.0380    Y=             -1.9646    Z=              0.0000  Tot=              1.9650
 Quadrupole moment (field-independent basis, Debye-Ang):
   XX=             -4.2024   YY=             -6.3697   ZZ=             -7.6796
   XY=              0.2187   XZ=              0.0000   YZ=              0.0000

 1\1\GINC-NODE18\SP\RB2PLYPD3-FC\def2QZVP\H2O1\BOITTIER\26-Aug-2020\0\\
 #p B2PLYPD3/Def2QZVP\\h2o\\0,1\O,0,-5.326605,-0.766464,0.920015\H,0,-4
 .368927,-0.767011,0.936887\H,0,-5.609308,0.214478,0.74979\\Version=ES6
 4L-G09RevD.01\State=1-A'\HF=-76.3290126\MP2=-76.4202212\RMSD=5.932e-09
 \PG=CS [SG(H2O1)]\\@

 SOME PEOPLE TRY TO PULL THE WOOL OVER YOUR EYES

 Normal termination of Gaussian 09 at Wed Aug 26 09:29:17 2020.
