 Gaussian 09, Revision D.01,
 Gaussian 09:  ES64L-G09RevD.01 24-Apr-2013

 --------------------
 #p B2PLYPD3/Def2QZVP
 --------------------

 ---
 h2o
 ---
 Symbolic Z-matrix:
 Charge =  0 Multiplicity = 1

                         Standard orientation:
 ---------------------------------------------------------------------
 Center     Atomic      Atomic             Coordinates (Angstroms)
 Number     Number       Type             X           Y           Z
 ---------------------------------------------------------------------
      1          8           0        0.000000    0.120550    0.000000
      2          1           0        0.769113   -0.461699    0.000000
      3          1           0       -0.769113   -0.502705    0.000000
 ---------------------------------------------------------------------

 SCF Done:  E(RB2PLYPD3) =  -76.3335861658     A.U. after   10 cycles
 E2(B2PLYPD3) =    -0.9063489081D-01 E(B2PLYPD3) =    -0.76424221056605D+02

 The electronic state is 1-A'.
 Alpha  occ. eigenvalues --  -19.73454  -1.14886  -0.60295  -0.47365  -0.39833
 Alpha virt. eigenvalues --    0.04303   0.10041   0.27644   0.30453   0.30485
 Alpha virt. eigenvalues --    0.35241   0.43486   0.49937   0.56140   0.61798
 Alpha virt. eigenvalues --    0.66105   0.80727   0.93291   0.96286   1.02325

 Mulliken charges:
               1
     1  O   -0.454711
     2  H    0.222325
     3  H    0.232386
 Sum of Mulliken charges =   0.00000

 Dipole moment (field-independent basis, Debye):
    X=              0.0131    Y=             -1.9862    Z=              0.0000  Tot=              1.9862
 Quadrupole moment (field-independent basis, Debye-Ang):
   XX=             -4.3336   YY=             -6.3102   ZZ=             -7.6339
   XY=              0.0672   XZ=              0.0000   YZ=              0.0000

 1\1\GINC-NODE24\SP\RB2PLYPD3-FC\def2QZVP\H2O1\BOITTIER\26-Aug-2020\0\\
 #p B2PLYPD3/Def2QZVP\\h2o\\0,1\O,0,-5.326605,-0.767487,0.911154\H,0,-4
 .368927,-0.712322,1.012935\H,0,-5.609308,0.176165,0.813265\\Version=ES
 64L-G09RevD.01\State=1-A'\HF=-76.3335862\MP2=-76.4242211\RMSD=4.271e-0
 9\PG=CS [SG(H2O1)]\\@

 A warm smile is the universal language of kindness.

 Normal termination of Gaussian 09 at Wed Aug 26 08:33:23 2020.
