 Gaussian 09, Revision D.01,
 Gaussian 09:  ES64L-G09RevD.01 24-Apr-2013

 --------------------
 #p B2PLYPD3/Def2QZVP
 --------------------

 ---
 h2o
 ---
 Symbolic Z-matrix:
 Charge =  0 Multiplicity = 1

                         Standard orientation:
 ---------------------------------------------------------------------
 Center     Atomic      Atomic             Coordinates (Angstroms)
 Number     Number       Type             X           Y           Z
 ---------------------------------------------------------------------
      1          8           0        0.000000    0.115291    0.000000
      2          1           0        0.751684   -0.479681    0.000000
      3          1           0       -0.751684   -0.442647    0.000000
 ---------------------------------------------------------------------

 SCF Done:  E(RB2PLYPD3) =  -76.3350041893     A.U. after   10 cycles
 E2(B2PLYPD3) =    -0.8961394343D-01 E(B2PLYPD3) =    -0.76424618132784D+02

 The electronic state is 1-A'.
 Alpha  occ. eigenvalues --  -19.72929  -1.16204  -0.61876  -0.47537  -0.40055
 Alpha virt. eigenvalues --    0.04663   0.10307   0.27431   0.30384   0.31220
 Alpha virt. eigenvalues --    0.36350   0.44313   0.50434   0.56334   0.62397
 Alpha virt. eigenvalues --    0.65334   0.81414   0.94080   0.95714   1.04687

 Mulliken charges:
               1
     1  O   -0.434339
     2  H    0.222560
     3  H    0.211779
 Sum of Mulliken charges =   0.00000

 Dipole moment (field-independent basis, Debye):
    X=             -0.0114    Y=             -1.9471    Z=              0.0000  Tot=              1.9471
 Quadrupole moment (field-independent basis, Debye-Ang):
   XX=             -4.3456   YY=             -6.3293   ZZ=             -7.5681
   XY=             -0.0608   XZ=              0.0000   YZ=              0.0000

 1\1\GINC-NODE02\SP\RB2PLYPD3-FC\def2QZVP\H2O1\BOITTIER\26-Aug-2020\0\\
 #p B2PLYPD3/Def2QZVP\\h2o\\0,1\O,0,-5.326605,-0.762971,0.921316\H,0,-4
 .368927,-0.723182,0.904301\H,0,-5.609308,0.114763,0.760117\\Version=ES
 64L-G09RevD.01\State=1-A'\HF=-76.3350042\MP2=-76.4246181\RMSD=4.460e-0
 9\PG=CS [SG(H2O1)]\\@

 YE HAVE SOWN MUCH, AND BRING IN LITTLE.

 Normal termination of Gaussian 09 at Wed Aug 26 10:05:44 2020.
