 Gaussian 09, Revision D.01,
 Gaussian 09:  ES64L-G09RevD.01 24-Apr-2013

 --------------------
 #p B2PLYPD3/Def2QZVP
 --------------------

 ---
 h2o
 ---
 Symbolic Z-matrix:
 Charge =  0 Multiplicity = 1

                         Standard orientation:
 ---------------------------------------------------------------------
 Center     Atomic      Atomic             Coordinates (Angstroms)
 Number     Number       Type             X           Y           Z
 ---------------------------------------------------------------------
      1          8           0        0.000000    0.119230    0.000000
      2          1           0        0.761366   -0.463911    0.000000
      3          1           0       -0.761366   -0.489926    0.000000
 ---------------------------------------------------------------------

 SCF Done:  E(RB2PLYPD3) =  -76.3345764719     A.U. after   10 cycles
 E2(B2PLYPD3) =    -0.9029215224D-01 E(B2PLYPD3) =    -0.76424868624142D+02

 The electronic state is 1-A'.
 Alpha  occ. eigenvalues --  -19.73294  -1.15347  -0.60758  -0.47496  -0.39915
 Alpha virt. eigenvalues --    0.04426   0.10142   0.27580   0.30429   0.30732
 Alpha virt. eigenvalues --    0.35670   0.43752   0.50042   0.56269   0.61892
 Alpha virt. eigenvalues --    0.65854   0.80991   0.93647   0.96090   1.03070

 Mulliken charges:
               1
     1  O   -0.447665
     2  H    0.220442
     3  H    0.227223
 Sum of Mulliken charges =   0.00000

 Dipole moment (field-independent basis, Debye):
    X=              0.0083    Y=             -1.9787    Z=              0.0000  Tot=              1.9787
 Quadrupole moment (field-independent basis, Debye-Ang):
   XX=             -4.3531   YY=             -6.3073   ZZ=             -7.6109
   XY=              0.0424   XZ=              0.0000   YZ=              0.0000

 1\1\GINC-NODE24\SP\RB2PLYPD3-FC\def2QZVP\H2O1\BOITTIER\26-Aug-2020\0\\
 #p B2PLYPD3/Def2QZVP\\h2o\\0,1\O,0,-5.326605,-0.765278,0.92339\H,0,-4.
 368927,-0.719077,0.902181\H,0,-5.609308,0.147571,0.729653\\Version=ES6
 4L-G09RevD.01\State=1-A'\HF=-76.3345765\MP2=-76.4248686\RMSD=4.185e-09
 \PG=CS [SG(H2O1)]\\@

 DEMOCRATS BUY MOST OF THE BOOKS THAT HAVE BEEN

 Normal termination of Gaussian 09 at Wed Aug 26 10:44:44 2020.
