 Gaussian 09, Revision D.01,
 Gaussian 09:  ES64L-G09RevD.01 24-Apr-2013

 --------------------
 #p B2PLYPD3/Def2QZVP
 --------------------

 ---
 h2o
 ---
 Symbolic Z-matrix:
 Charge =  0 Multiplicity = 1

                         Standard orientation:
 ---------------------------------------------------------------------
 Center     Atomic      Atomic             Coordinates (Angstroms)
 Number     Number       Type             X           Y           Z
 ---------------------------------------------------------------------
      1          8           0        0.000000    0.110745    0.000000
      2          1           0        0.809085   -0.409607    0.000000
      3          1           0       -0.809085   -0.476356    0.000000
 ---------------------------------------------------------------------

 SCF Done:  E(RB2PLYPD3) =  -76.3318248675     A.U. after   10 cycles
 E2(B2PLYPD3) =    -0.9055437525D-01 E(B2PLYPD3) =    -0.76422379242721D+02

 The electronic state is 1-A'.
 Alpha  occ. eigenvalues --  -19.73172  -1.14250  -0.61406  -0.45927  -0.39610
 Alpha virt. eigenvalues --    0.04352   0.09889   0.27505   0.30491   0.31106
 Alpha virt. eigenvalues --    0.33938   0.43362   0.51541   0.54997   0.64033
 Alpha virt. eigenvalues --    0.66073   0.79816   0.92569   0.96643   1.03237

 Mulliken charges:
               1
     1  O   -0.475053
     2  H    0.229841
     3  H    0.245212
 Sum of Mulliken charges =   0.00000

 Dipole moment (field-independent basis, Debye):
    X=              0.0160    Y=             -1.8682    Z=              0.0000  Tot=              1.8683
 Quadrupole moment (field-independent basis, Debye-Ang):
   XX=             -3.9972   YY=             -6.5322   ZZ=             -7.6573
   XY=              0.1220   XZ=              0.0000   YZ=              0.0000

 1\1\GINC-NODE27\SP\RB2PLYPD3-FC\def2QZVP\H2O1\BOITTIER\26-Aug-2020\0\\
 #p B2PLYPD3/Def2QZVP\\h2o\\0,1\O,0,-5.326605,-0.760753,0.912925\H,0,-4
 .368927,-0.839329,0.958346\H,0,-5.609308,0.195422,0.841412\\Version=ES
 64L-G09RevD.01\State=1-A'\HF=-76.3318249\MP2=-76.4223792\RMSD=4.655e-0
 9\PG=CS [SG(H2O1)]\\@

 10 WHATSOEVER THY HAND FINDETH TO DO, DO IT WITH THY

 Normal termination of Gaussian 09 at Wed Aug 26 08:56:04 2020.
