 Gaussian 09, Revision D.01,
 Gaussian 09:  ES64L-G09RevD.01 24-Apr-2013

 --------------------
 #p B2PLYPD3/Def2QZVP
 --------------------

 ---
 h2o
 ---
 Symbolic Z-matrix:
 Charge =  0 Multiplicity = 1

                         Standard orientation:
 ---------------------------------------------------------------------
 Center     Atomic      Atomic             Coordinates (Angstroms)
 Number     Number       Type             X           Y           Z
 ---------------------------------------------------------------------
      1          8           0        0.000000    0.116399    0.000000
      2          1           0        0.751736   -0.479069    0.000000
      3          1           0       -0.751736   -0.452125    0.000000
 ---------------------------------------------------------------------

 SCF Done:  E(RB2PLYPD3) =  -76.3351232907     A.U. after   10 cycles
 E2(B2PLYPD3) =    -0.8973845830D-01 E(B2PLYPD3) =    -0.76424861748956D+02

 The electronic state is 1-A'.
 Alpha  occ. eigenvalues --  -19.73007  -1.16075  -0.61618  -0.47595  -0.40038
 Alpha virt. eigenvalues --    0.04618   0.10286   0.27463   0.30391   0.31118
 Alpha virt. eigenvalues --    0.36286   0.44210   0.50305   0.56376   0.62210
 Alpha virt. eigenvalues --    0.65433   0.81360   0.94060   0.95768   1.04378

 Mulliken charges:
               1
     1  O   -0.436226
     2  H    0.221969
     3  H    0.214257
 Sum of Mulliken charges =   0.00000

 Dipole moment (field-independent basis, Debye):
    X=             -0.0084    Y=             -1.9577    Z=              0.0000  Tot=              1.9577
 Quadrupole moment (field-independent basis, Debye-Ang):
   XX=             -4.3606   YY=             -6.3166   ZZ=             -7.5749
   XY=             -0.0440   XZ=              0.0000   YZ=              0.0000

 1\1\GINC-NODE06\SP\RB2PLYPD3-FC\def2QZVP\H2O1\BOITTIER\26-Aug-2020\0\\
 #p B2PLYPD3/Def2QZVP\\h2o\\0,1\O,0,-5.326605,-0.763581,0.92213\H,0,-4.
 368927,-0.717538,0.901581\H,0,-5.609308,0.118883,0.7499\\Version=ES64L
 -G09RevD.01\State=1-A'\HF=-76.3351233\MP2=-76.4248617\RMSD=4.321e-09\P
 G=CS [SG(H2O1)]\\@

 THE PROMISED LAND ALWAYS LIES ON THE OTHER SIDE OF A WILDERNESS.

 Normal termination of Gaussian 09 at Wed Aug 26 10:10:28 2020.
