 Gaussian 09, Revision D.01,
 Gaussian 09:  ES64L-G09RevD.01 24-Apr-2013

 --------------------
 #p B2PLYPD3/Def2QZVP
 --------------------

 ---
 h2o
 ---
 Symbolic Z-matrix:
 Charge =  0 Multiplicity = 1

                         Standard orientation:
 ---------------------------------------------------------------------
 Center     Atomic      Atomic             Coordinates (Angstroms)
 Number     Number       Type             X           Y           Z
 ---------------------------------------------------------------------
      1          8           0        0.000000    0.112640    0.000000
      2          1           0        0.781879   -0.441207    0.000000
      3          1           0       -0.781879   -0.459916    0.000000
 ---------------------------------------------------------------------

 SCF Done:  E(RB2PLYPD3) =  -76.3346159325     A.U. after   10 cycles
 E2(B2PLYPD3) =    -0.9005270228D-01 E(B2PLYPD3) =    -0.76424668634801D+02

 The electronic state is 1-A'.
 Alpha  occ. eigenvalues --  -19.73046  -1.15182  -0.61735  -0.46677  -0.39829
 Alpha virt. eigenvalues --    0.04544   0.10096   0.27480   0.30437   0.31271
 Alpha virt. eigenvalues --    0.35040   0.43818   0.50999   0.55630   0.63301
 Alpha virt. eigenvalues --    0.65677   0.80712   0.93358   0.96155   1.04321

 Mulliken charges:
               1
     1  O   -0.455645
     2  H    0.225407
     3  H    0.230238
 Sum of Mulliken charges =   0.00000

 Dipole moment (field-independent basis, Debye):
    X=              0.0051    Y=             -1.9038    Z=              0.0000  Tot=              1.9038
 Quadrupole moment (field-independent basis, Debye-Ang):
   XX=             -4.1616   YY=             -6.4413   ZZ=             -7.6123
   XY=              0.0326   XZ=              0.0000   YZ=              0.0000

 1\1\GINC-NODE11\SP\RB2PLYPD3-FC\def2QZVP\H2O1\BOITTIER\26-Aug-2020\0\\
 #p B2PLYPD3/Def2QZVP\\h2o\\0,1\O,0,-5.326605,-0.761844,0.916463\H,0,-4
 .368927,-0.784967,0.936465\H,0,-5.609308,0.158515,0.806127\\Version=ES
 64L-G09RevD.01\State=1-A'\HF=-76.3346159\MP2=-76.4246686\RMSD=3.825e-0
 9\PG=CS [SG(H2O1)]\\@

 MOST BUREAUCRACIES FUNCTION LIKE A SEPTIC TANK.

 Normal termination of Gaussian 09 at Wed Aug 26 11:18:39 2020.
