 Gaussian 09, Revision D.01,
 Gaussian 09:  ES64L-G09RevD.01 24-Apr-2013

 --------------------
 #p B2PLYPD3/Def2QZVP
 --------------------

 ---
 h2o
 ---
 Symbolic Z-matrix:
 Charge =  0 Multiplicity = 1

                         Standard orientation:
 ---------------------------------------------------------------------
 Center     Atomic      Atomic             Coordinates (Angstroms)
 Number     Number       Type             X           Y           Z
 ---------------------------------------------------------------------
      1          8           0        0.000000    0.110060    0.000000
      2          1           0        0.786763   -0.438218    0.000000
      3          1           0       -0.786763   -0.442262    0.000000
 ---------------------------------------------------------------------

 SCF Done:  E(RB2PLYPD3) =  -76.3345553545     A.U. after   10 cycles
 E2(B2PLYPD3) =    -0.8990387027D-01 E(B2PLYPD3) =    -0.76424459224744D+02

 The electronic state is 1-A'.
 Alpha  occ. eigenvalues --  -19.72922  -1.15235  -0.62174  -0.46428  -0.39819
 Alpha virt. eigenvalues --    0.04609   0.10102   0.27435   0.30433   0.31515
 Alpha virt. eigenvalues --    0.34901   0.43905   0.51392   0.55442   0.63824
 Alpha virt. eigenvalues --    0.65571   0.80638   0.93378   0.96166   1.05014

 Mulliken charges:
               1
     1  O   -0.456694
     2  H    0.227820
     3  H    0.228874
 Sum of Mulliken charges =   0.00000

 Dipole moment (field-independent basis, Debye):
    X=              0.0010    Y=             -1.8755    Z=              0.0000  Tot=              1.8755
 Quadrupole moment (field-independent basis, Debye-Ang):
   XX=             -4.1024   YY=             -6.4852   ZZ=             -7.6076
   XY=              0.0072   XZ=              0.0000   YZ=              0.0000

 1\1\GINC-NODE37\SP\RB2PLYPD3-FC\def2QZVP\H2O1\BOITTIER\26-Aug-2020\0\\
 #p B2PLYPD3/Def2QZVP\\h2o\\0,1\O,0,-5.326605,-0.760033,0.916466\H,0,-4
 .368927,-0.8088,0.925425\H,0,-5.609308,0.153372,0.817338\\Version=ES64
 L-G09RevD.01\State=1-A'\HF=-76.3345554\MP2=-76.4244592\RMSD=3.688e-09\
 PG=CS [SG(H2O1)]\\@

 AN AIRPLANE IS A COLLECTION OF SPARE PARTS

 Normal termination of Gaussian 09 at Wed Aug 26 08:39:06 2020.
