 Gaussian 09, Revision D.01,
 Gaussian 09:  ES64L-G09RevD.01 24-Apr-2013

 --------------------
 #p B2PLYPD3/Def2QZVP
 --------------------

 ---
 h2o
 ---
 Symbolic Z-matrix:
 Charge =  0 Multiplicity = 1

                         Standard orientation:
 ---------------------------------------------------------------------
 Center     Atomic      Atomic             Coordinates (Angstroms)
 Number     Number       Type             X           Y           Z
 ---------------------------------------------------------------------
      1          8           0        0.000000    0.119160    0.000000
      2          1           0        0.785448   -0.429351    0.000000
      3          1           0       -0.785448   -0.523928    0.000000
 ---------------------------------------------------------------------

 SCF Done:  E(RB2PLYPD3) =  -76.3314328038     A.U. after   10 cycles
 E2(B2PLYPD3) =    -0.9088558484D-01 E(B2PLYPD3) =    -0.76422318388646D+02

 The electronic state is 1-A'.
 Alpha  occ. eigenvalues --  -19.73500  -1.14396  -0.60230  -0.46872  -0.39713
 Alpha virt. eigenvalues --    0.04189   0.09923   0.27647   0.30281   0.30481
 Alpha virt. eigenvalues --    0.34673   0.43300   0.50216   0.55710   0.62299
 Alpha virt. eigenvalues --    0.66250   0.80307   0.92566   0.96511   1.01842

 Mulliken charges:
               1
     1  O   -0.464010
     2  H    0.221099
     3  H    0.242911
 Sum of Mulliken charges =   0.00000

 Dipole moment (field-independent basis, Debye):
    X=              0.0283    Y=             -1.9627    Z=              0.0000  Tot=              1.9629
 Quadrupole moment (field-independent basis, Debye-Ang):
   XX=             -4.2328   YY=             -6.3644   ZZ=             -7.6578
   XY=              0.1602   XZ=              0.0000   YZ=              0.0000

 1\1\GINC-NODE23\SP\RB2PLYPD3-FC\def2QZVP\H2O1\BOITTIER\26-Aug-2020\0\\
 #p B2PLYPD3/Def2QZVP\\h2o\\0,1\O,0,-5.326605,-0.76603,0.919003\H,0,-4.
 368927,-0.755414,0.942076\H,0,-5.609308,0.19594,0.76031\\Version=ES64L
 -G09RevD.01\State=1-A'\HF=-76.3314328\MP2=-76.4223184\RMSD=5.194e-09\P
 G=CS [SG(H2O1)]\\@

 I (ERNEST RUTHERFORD) CAME INTO THE ROOM, WHICH WAS HALF DARK, AND PRESENTLY

 Normal termination of Gaussian 09 at Wed Aug 26 11:19:19 2020.
