 Gaussian 09, Revision D.01,
 Gaussian 09:  ES64L-G09RevD.01 24-Apr-2013

 --------------------
 #p B2PLYPD3/Def2QZVP
 --------------------

 ---
 h2o
 ---
 Symbolic Z-matrix:
 Charge =  0 Multiplicity = 1

                         Standard orientation:
 ---------------------------------------------------------------------
 Center     Atomic      Atomic             Coordinates (Angstroms)
 Number     Number       Type             X           Y           Z
 ---------------------------------------------------------------------
      1          8           0        0.000000    0.119464    0.000000
      2          1           0        0.786295   -0.428570    0.000000
      3          1           0       -0.786295   -0.527144    0.000000
 ---------------------------------------------------------------------

 SCF Done:  E(RB2PLYPD3) =  -76.3311127031     A.U. after   10 cycles
 E2(B2PLYPD3) =    -0.9094350080D-01 E(B2PLYPD3) =    -0.76422056203884D+02

 The electronic state is 1-A'.
 Alpha  occ. eigenvalues --  -19.73527  -1.14334  -0.60145  -0.46863  -0.39702
 Alpha virt. eigenvalues --    0.04163   0.09908   0.27656   0.30216   0.30484
 Alpha virt. eigenvalues --    0.34631   0.43265   0.50186   0.55696   0.62265
 Alpha virt. eigenvalues --    0.66287   0.80265   0.92489   0.96538   1.01720

 Mulliken charges:
               1
     1  O   -0.464789
     2  H    0.221129
     3  H    0.243659
 Sum of Mulliken charges =   0.00000

 Dipole moment (field-independent basis, Debye):
    X=              0.0296    Y=             -1.9649    Z=              0.0000  Tot=              1.9651
 Quadrupole moment (field-independent basis, Debye-Ang):
   XX=             -4.2328   YY=             -6.3622   ZZ=             -7.6613
   XY=              0.1669   XZ=              0.0000   YZ=              0.0000

 1\1\GINC-NODE31\SP\RB2PLYPD3-FC\def2QZVP\H2O1\BOITTIER\26-Aug-2020\0\\
 #p B2PLYPD3/Def2QZVP\\h2o\\0,1\O,0,-5.326605,-0.766389,0.917807\H,0,-4
 .368927,-0.753717,0.953785\H,0,-5.609308,0.199987,0.767608\\Version=ES
 64L-G09RevD.01\State=1-A'\HF=-76.3311127\MP2=-76.4220562\RMSD=5.273e-0
 9\PG=CS [SG(H2O1)]\\@

 THE THINKER DIES, BUT HIS THOUGHTS ARE BEYOND THE

 Normal termination of Gaussian 09 at Wed Aug 26 12:09:50 2020.
