 Gaussian 09, Revision D.01,
 Gaussian 09:  ES64L-G09RevD.01 24-Apr-2013

 --------------------
 #p B2PLYPD3/Def2QZVP
 --------------------

 ---
 h2o
 ---
 Symbolic Z-matrix:
 Charge =  0 Multiplicity = 1

                         Standard orientation:
 ---------------------------------------------------------------------
 Center     Atomic      Atomic             Coordinates (Angstroms)
 Number     Number       Type             X           Y           Z
 ---------------------------------------------------------------------
      1          8           0        0.000000    0.117973    0.000000
      2          1           0        0.764309   -0.463149    0.000000
      3          1           0       -0.764309   -0.480632    0.000000
 ---------------------------------------------------------------------

 SCF Done:  E(RB2PLYPD3) =  -76.3347700762     A.U. after   10 cycles
 E2(B2PLYPD3) =    -0.9021555840D-01 E(B2PLYPD3) =    -0.76424985634595D+02

 The electronic state is 1-A'.
 Alpha  occ. eigenvalues --  -19.73237  -1.15360  -0.60974  -0.47366  -0.39908
 Alpha virt. eigenvalues --    0.04461   0.10143   0.27557   0.30429   0.30850
 Alpha virt. eigenvalues --    0.35606   0.43787   0.50202   0.56170   0.62138
 Alpha virt. eigenvalues --    0.65800   0.80982   0.93623   0.96071   1.03360

 Mulliken charges:
               1
     1  O   -0.448352
     2  H    0.221888
     3  H    0.226464
 Sum of Mulliken charges =   0.00000

 Dipole moment (field-independent basis, Debye):
    X=              0.0054    Y=             -1.9652    Z=              0.0000  Tot=              1.9652
 Quadrupole moment (field-independent basis, Debye-Ang):
   XX=             -4.3214   YY=             -6.3307   ZZ=             -7.6089
   XY=              0.0288   XZ=              0.0000   YZ=              0.0000

 1\1\GINC-NODE25\SP\RB2PLYPD3-FC\def2QZVP\H2O1\BOITTIER\26-Aug-2020\0\\
 #p B2PLYPD3/Def2QZVP\\h2o\\0,1\O,0,-5.326605,-0.765603,0.915378\H,0,-4
 .368927,-0.721128,0.967783\H,0,-5.609308,0.154816,0.791266\\Version=ES
 64L-G09RevD.01\State=1-A'\HF=-76.3347701\MP2=-76.4249856\RMSD=4.056e-0
 9\PG=CS [SG(H2O1)]\\@

 IT IS WELL TO REMEMBER THAT MAN IS A PART OF NATURE AND THAT HIS WORKS,

 Normal termination of Gaussian 09 at Wed Aug 26 08:33:04 2020.
