 Gaussian 09, Revision D.01,
 Gaussian 09:  ES64L-G09RevD.01 24-Apr-2013

 --------------------
 #p B2PLYPD3/Def2QZVP
 --------------------

 ---
 h2o
 ---
 Symbolic Z-matrix:
 Charge =  0 Multiplicity = 1

                         Standard orientation:
 ---------------------------------------------------------------------
 Center     Atomic      Atomic             Coordinates (Angstroms)
 Number     Number       Type             X           Y           Z
 ---------------------------------------------------------------------
      1          8           0        0.000000    0.121462    0.000000
      2          1           0        0.755041   -0.472388    0.000000
      3          1           0       -0.755041   -0.499307    0.000000
 ---------------------------------------------------------------------

 SCF Done:  E(RB2PLYPD3) =  -76.3342918742     A.U. after   10 cycles
 E2(B2PLYPD3) =    -0.9040835816D-01 E(B2PLYPD3) =    -0.76424700232376D+02

 The electronic state is 1-A'.
 Alpha  occ. eigenvalues --  -19.73387  -1.15363  -0.60390  -0.47755  -0.39936
 Alpha virt. eigenvalues --    0.04374   0.10148   0.27621   0.30429   0.30547
 Alpha virt. eigenvalues --    0.35813   0.43706   0.49767   0.56472   0.61440
 Alpha virt. eigenvalues --    0.65934   0.81020   0.93759   0.96111   1.02650

 Mulliken charges:
               1
     1  O   -0.445840
     2  H    0.219421
     3  H    0.226420
 Sum of Mulliken charges =   0.00000

 Dipole moment (field-independent basis, Debye):
    X=              0.0090    Y=             -2.0030    Z=              0.0000  Tot=              2.0031
 Quadrupole moment (field-independent basis, Debye-Ang):
   XX=             -4.4149   YY=             -6.2633   ZZ=             -7.6127
   XY=              0.0430   XZ=              0.0000   YZ=              0.0000

 1\1\GINC-NODE29\SP\RB2PLYPD3-FC\def2QZVP\H2O1\BOITTIER\26-Aug-2020\0\\
 #p B2PLYPD3/Def2QZVP\\h2o\\0,1\O,0,-5.326605,-0.766467,0.924872\H,0,-4
 .368927,-0.69681,0.897583\H,0,-5.609308,0.144325,0.710449\\Version=ES6
 4L-G09RevD.01\State=1-A'\HF=-76.3342919\MP2=-76.4247002\RMSD=4.313e-09
 \PG=CS [SG(H2O1)]\\@

 I (ERNEST RUTHERFORD) CAME INTO THE ROOM, WHICH WAS HALF DARK, AND PRESENTLY

 Normal termination of Gaussian 09 at Wed Aug 26 12:30:47 2020.
