 Gaussian 09, Revision D.01,
 Gaussian 09:  ES64L-G09RevD.01 24-Apr-2013

 --------------------
 #p B2PLYPD3/Def2QZVP
 --------------------

 ---
 h2o
 ---
 Symbolic Z-matrix:
 Charge =  0 Multiplicity = 1

                         Standard orientation:
 ---------------------------------------------------------------------
 Center     Atomic      Atomic             Coordinates (Angstroms)
 Number     Number       Type             X           Y           Z
 ---------------------------------------------------------------------
      1          8           0        0.000000    0.115094    0.000000
      2          1           0        0.751328   -0.480627    0.000000
      3          1           0       -0.751328   -0.440129    0.000000
 ---------------------------------------------------------------------

 SCF Done:  E(RB2PLYPD3) =  -76.3349414266     A.U. after   10 cycles
 E2(B2PLYPD3) =    -0.8958424455D-01 E(B2PLYPD3) =    -0.76424525671171D+02

 The electronic state is 1-A'.
 Alpha  occ. eigenvalues --  -19.72912  -1.16243  -0.61930  -0.47535  -0.40061
 Alpha virt. eigenvalues --    0.04672   0.10314   0.27423   0.30382   0.31237
 Alpha virt. eigenvalues --    0.36377   0.44341   0.50455   0.56333   0.62426
 Alpha virt. eigenvalues --    0.65310   0.81431   0.94089   0.95700   1.04743

 Mulliken charges:
               1
     1  O   -0.433681
     2  H    0.222763
     3  H    0.210918
 Sum of Mulliken charges =   0.00000

 Dipole moment (field-independent basis, Debye):
    X=             -0.0124    Y=             -1.9454    Z=              0.0000  Tot=              1.9454
 Quadrupole moment (field-independent basis, Debye-Ang):
   XX=             -4.3446   YY=             -6.3305   ZZ=             -7.5662
   XY=             -0.0665   XZ=              0.0000   YZ=              0.0000

 1\1\GINC-NODE10\SP\RB2PLYPD3-FC\def2QZVP\H2O1\BOITTIER\26-Aug-2020\0\\
 #p B2PLYPD3/Def2QZVP\\h2o\\0,1\O,0,-5.326605,-0.763378,0.917903\H,0,-4
 .368927,-0.718933,0.933857\H,0,-5.609308,0.117018,0.784679\\Version=ES
 64L-G09RevD.01\State=1-A'\HF=-76.3349414\MP2=-76.4245257\RMSD=4.523e-0
 9\PG=CS [SG(H2O1)]\\@

 BE NOT THE FIRST BY WHOM THE NEW ARE TRIED,

 Normal termination of Gaussian 09 at Wed Aug 26 11:38:43 2020.
