 Gaussian 09, Revision D.01,
 Gaussian 09:  ES64L-G09RevD.01 24-Apr-2013

 --------------------
 #p B2PLYPD3/Def2QZVP
 --------------------

 ---
 h2o
 ---
 Symbolic Z-matrix:
 Charge =  0 Multiplicity = 1

                         Standard orientation:
 ---------------------------------------------------------------------
 Center     Atomic      Atomic             Coordinates (Angstroms)
 Number     Number       Type             X           Y           Z
 ---------------------------------------------------------------------
      1          8           0        0.000000    0.120374    0.000000
      2          1           0        0.743963   -0.489372    0.000000
      3          1           0       -0.743963   -0.473619    0.000000
 ---------------------------------------------------------------------

 SCF Done:  E(RB2PLYPD3) =  -76.3348577074     A.U. after   10 cycles
 E2(B2PLYPD3) =    -0.9001941576D-01 E(B2PLYPD3) =    -0.76424877123142D+02

 The electronic state is 1-A'.
 Alpha  occ. eigenvalues --  -19.73207  -1.15954  -0.60866  -0.47982  -0.40044
 Alpha virt. eigenvalues --    0.04502   0.10272   0.27546   0.30399   0.30780
 Alpha virt. eigenvalues --    0.36396   0.44038   0.49832   0.56676   0.61444
 Alpha virt. eigenvalues --    0.65640   0.81317   0.94180   0.95857   1.03480

 Mulliken charges:
               1
     1  O   -0.436226
     2  H    0.220320
     3  H    0.215905
 Sum of Mulliken charges =   0.00000

 Dipole moment (field-independent basis, Debye):
    X=             -0.0053    Y=             -1.9995    Z=              0.0000  Tot=              1.9995
 Quadrupole moment (field-independent basis, Debye-Ang):
   XX=             -4.4527   YY=             -6.2483   ZZ=             -7.5848
   XY=             -0.0248   XZ=              0.0000   YZ=              0.0000

 1\1\GINC-NODE30\SP\RB2PLYPD3-FC\def2QZVP\H2O1\BOITTIER\26-Aug-2020\0\\
 #p B2PLYPD3/Def2QZVP\\h2o\\0,1\O,0,-5.326605,-0.766468,0.921341\H,0,-4
 .368927,-0.67642,0.925375\H,0,-5.609308,0.123957,0.738225\\Version=ES6
 4L-G09RevD.01\State=1-A'\HF=-76.3348577\MP2=-76.4248771\RMSD=4.402e-09
 \PG=CS [SG(H2O1)]\\@

 Human beings, who are almost unique in having the

 Normal termination of Gaussian 09 at Wed Aug 26 08:31:34 2020.
