 Gaussian 09, Revision D.01,
 Gaussian 09:  ES64L-G09RevD.01 24-Apr-2013

 --------------------
 #p B2PLYPD3/Def2QZVP
 --------------------

 ---
 h2o
 ---
 Symbolic Z-matrix:
 Charge =  0 Multiplicity = 1

                         Standard orientation:
 ---------------------------------------------------------------------
 Center     Atomic      Atomic             Coordinates (Angstroms)
 Number     Number       Type             X           Y           Z
 ---------------------------------------------------------------------
      1          8           0        0.000000    0.116649    0.000000
      2          1           0        0.763938   -0.462121    0.000000
      3          1           0       -0.763938   -0.471073    0.000000
 ---------------------------------------------------------------------

 SCF Done:  E(RB2PLYPD3) =  -76.3350385173     A.U. after   10 cycles
 E2(B2PLYPD3) =    -0.9005506257D-01 E(B2PLYPD3) =    -0.76425093579833D+02

 The electronic state is 1-A'.
 Alpha  occ. eigenvalues --  -19.73144  -1.15519  -0.61281  -0.47312  -0.39930
 Alpha virt. eigenvalues --    0.04521   0.10175   0.27519   0.30420   0.31001
 Alpha virt. eigenvalues --    0.35696   0.43902   0.50355   0.56136   0.62350
 Alpha virt. eigenvalues --    0.65679   0.81056   0.93702   0.95995   1.03813

 Mulliken charges:
               1
     1  O   -0.446395
     2  H    0.222000
     3  H    0.224395
 Sum of Mulliken charges =   0.00000

 Dipole moment (field-independent basis, Debye):
    X=              0.0027    Y=             -1.9530    Z=              0.0000  Tot=              1.9530
 Quadrupole moment (field-independent basis, Debye-Ang):
   XX=             -4.3049   YY=             -6.3460   ZZ=             -7.6002
   XY=              0.0149   XZ=              0.0000   YZ=              0.0000

 1\1\GINC-NODE27\SP\RB2PLYPD3-FC\def2QZVP\H2O1\BOITTIER\26-Aug-2020\0\\
 #p B2PLYPD3/Def2QZVP\\h2o\\0,1\O,0,-5.326605,-0.764397,0.918335\H,0,-4
 .368927,-0.73149,0.936927\H,0,-5.609308,0.145887,0.775224\\Version=ES6
 4L-G09RevD.01\State=1-A'\HF=-76.3350385\MP2=-76.4250936\RMSD=3.996e-09
 \PG=CS [SG(H2O1)]\\@

 "I COULD HAVE DONE IT IN A MUCH MORE COMPLICATED WAY"

 Normal termination of Gaussian 09 at Wed Aug 26 09:20:03 2020.
