 Gaussian 09, Revision D.01,
 Gaussian 09:  ES64L-G09RevD.01 24-Apr-2013

 --------------------
 #p B2PLYPD3/Def2QZVP
 --------------------

 ---
 h2o
 ---
 Symbolic Z-matrix:
 Charge =  0 Multiplicity = 1

                         Standard orientation:
 ---------------------------------------------------------------------
 Center     Atomic      Atomic             Coordinates (Angstroms)
 Number     Number       Type             X           Y           Z
 ---------------------------------------------------------------------
      1          8           0        0.000000    0.115097    0.000000
      2          1           0        0.765091   -0.461194    0.000000
      3          1           0       -0.765091   -0.459581    0.000000
 ---------------------------------------------------------------------

 SCF Done:  E(RB2PLYPD3) =  -76.3351797599     A.U. after   10 cycles
 E2(B2PLYPD3) =    -0.8990862556D-01 E(B2PLYPD3) =    -0.76425088385498D+02

 The electronic state is 1-A'.
 Alpha  occ. eigenvalues --  -19.73049  -1.15638  -0.61605  -0.47207  -0.39942
 Alpha virt. eigenvalues --    0.04579   0.10196   0.27482   0.30413   0.31158
 Alpha virt. eigenvalues --    0.35722   0.44004   0.50549   0.56060   0.62628
 Alpha virt. eigenvalues --    0.65567   0.81098   0.93740   0.95939   1.04277

 Mulliken charges:
               1
     1  O   -0.445241
     2  H    0.222840
     3  H    0.222401
 Sum of Mulliken charges =   0.00000

 Dipole moment (field-independent basis, Debye):
    X=             -0.0005    Y=             -1.9375    Z=              0.0000  Tot=              1.9375
 Quadrupole moment (field-independent basis, Debye-Ang):
   XX=             -4.2781   YY=             -6.3679   ZZ=             -7.5932
   XY=             -0.0027   XZ=              0.0000   YZ=              0.0000

 1\1\GINC-NODE30\SP\RB2PLYPD3-FC\def2QZVP\H2O1\BOITTIER\26-Aug-2020\0\\
 #p B2PLYPD3/Def2QZVP\\h2o\\0,1\O,0,-5.326605,-0.763098,0.919878\H,0,-4
 .368927,-0.745259,0.916746\H,0,-5.609308,0.138864,0.771008\\Version=ES
 64L-G09RevD.01\State=1-A'\HF=-76.3351798\MP2=-76.4250884\RMSD=3.944e-0
 9\PG=CS [SG(H2O1)]\\@

 Happiness is a conscious choice, not an automatic response.

 Normal termination of Gaussian 09 at Wed Aug 26 09:53:37 2020.
