 Gaussian 09, Revision D.01,
 Gaussian 09:  ES64L-G09RevD.01 24-Apr-2013

 --------------------
 #p B2PLYPD3/Def2QZVP
 --------------------

 ---
 h2o
 ---
 Symbolic Z-matrix:
 Charge =  0 Multiplicity = 1

                         Standard orientation:
 ---------------------------------------------------------------------
 Center     Atomic      Atomic             Coordinates (Angstroms)
 Number     Number       Type             X           Y           Z
 ---------------------------------------------------------------------
      1          8           0        0.000000    0.119803    0.000000
      2          1           0        0.797238   -0.411300    0.000000
      3          1           0       -0.797238   -0.547124    0.000000
 ---------------------------------------------------------------------

 SCF Done:  E(RB2PLYPD3) =  -76.3283668243     A.U. after   10 cycles
 E2(B2PLYPD3) =    -0.9127519794D-01 E(B2PLYPD3) =    -0.76419642022232D+02

 The electronic state is 1-A'.
 Alpha  occ. eigenvalues --  -19.73635  -1.13896  -0.59819  -0.46580  -0.39606
 Alpha virt. eigenvalues --    0.03999   0.09796   0.27677   0.29814   0.30509
 Alpha virt. eigenvalues --    0.34277   0.43066   0.50238   0.55427   0.62408
 Alpha virt. eigenvalues --    0.66478   0.79872   0.91800   0.96723   1.01109

 Mulliken charges:
               1
     1  O   -0.471708
     2  H    0.221256
     3  H    0.250452
 Sum of Mulliken charges =   0.00000

 Dipole moment (field-independent basis, Debye):
    X=              0.0398    Y=             -1.9604    Z=              0.0000  Tot=              1.9608
 Quadrupole moment (field-independent basis, Debye-Ang):
   XX=             -4.1820   YY=             -6.3796   ZZ=             -7.6853
   XY=              0.2333   XZ=              0.0000   YZ=              0.0000

 1\1\GINC-NODE38\SP\RB2PLYPD3-FC\def2QZVP\H2O1\BOITTIER\26-Aug-2020\0\\
 #p B2PLYPD3/Def2QZVP\\h2o\\0,1\O,0,-5.326605,-0.766405,0.919472\H,0,-4
 .368927,-0.773611,0.940897\H,0,-5.609308,0.22013,0.754528\\Version=ES6
 4L-G09RevD.01\State=1-A'\HF=-76.3283668\MP2=-76.419642\RMSD=6.131e-09\
 PG=CS [SG(H2O1)]\\@

     ON THE SURVIVAL OF THE FITTEST -

 Normal termination of Gaussian 09 at Wed Aug 26 09:03:22 2020.
