 Gaussian 09, Revision D.01,
 Gaussian 09:  ES64L-G09RevD.01 24-Apr-2013

 --------------------
 #p B2PLYPD3/Def2QZVP
 --------------------

 ---
 h2o
 ---
 Symbolic Z-matrix:
 Charge =  0 Multiplicity = 1

                         Standard orientation:
 ---------------------------------------------------------------------
 Center     Atomic      Atomic             Coordinates (Angstroms)
 Number     Number       Type             X           Y           Z
 ---------------------------------------------------------------------
      1          8           0        0.000000    0.121136    0.000000
      2          1           0        0.748253   -0.482811    0.000000
      3          1           0       -0.748253   -0.486274    0.000000
 ---------------------------------------------------------------------

 SCF Done:  E(RB2PLYPD3) =  -76.3347153156     A.U. after   10 cycles
 E2(B2PLYPD3) =    -0.9020949020D-01 E(B2PLYPD3) =    -0.76424924805764D+02

 The electronic state is 1-A'.
 Alpha  occ. eigenvalues --  -19.73301  -1.15682  -0.60603  -0.47912  -0.39997
 Alpha virt. eigenvalues --    0.04440   0.10217   0.27586   0.30412   0.30664
 Alpha virt. eigenvalues --    0.36144   0.43875   0.49771   0.56611   0.61386
 Alpha virt. eigenvalues --    0.65786   0.81188   0.94025   0.95974   1.03065

 Mulliken charges:
               1
     1  O   -0.440570
     2  H    0.219816
     3  H    0.220754
 Sum of Mulliken charges =   0.00000

 Dipole moment (field-independent basis, Debye):
    X=              0.0012    Y=             -2.0041    Z=              0.0000  Tot=              2.0041
 Quadrupole moment (field-independent basis, Debye-Ang):
   XX=             -4.4430   YY=             -6.2503   ZZ=             -7.5977
   XY=              0.0055   XZ=              0.0000   YZ=              0.0000

 1\1\GINC-NODE08\SP\RB2PLYPD3-FC\def2QZVP\H2O1\BOITTIER\26-Aug-2020\0\\
 #p B2PLYPD3/Def2QZVP\\h2o\\0,1\O,0,-5.326605,-0.765992,0.92584\H,0,-4.
 368927,-0.688742,0.886855\H,0,-5.609308,0.128651,0.705562\\Version=ES6
 4L-G09RevD.01\State=1-A'\HF=-76.3347153\MP2=-76.4249248\RMSD=4.304e-09
 \PG=CS [SG(H2O1)]\\@

 ADVERTISING--  HE WHO HAS SOMETHING TO SELL AND GOES AND WHISPERS

 Normal termination of Gaussian 09 at Wed Aug 26 09:14:53 2020.
