 Gaussian 09, Revision D.01,
 Gaussian 09:  ES64L-G09RevD.01 24-Apr-2013

 --------------------
 #p B2PLYPD3/Def2QZVP
 --------------------

 ---
 h2o
 ---
 Symbolic Z-matrix:
 Charge =  0 Multiplicity = 1

                         Standard orientation:
 ---------------------------------------------------------------------
 Center     Atomic      Atomic             Coordinates (Angstroms)
 Number     Number       Type             X           Y           Z
 ---------------------------------------------------------------------
      1          8           0        0.000000    0.121664    0.000000
      2          1           0        0.805122   -0.401916    0.000000
      3          1           0       -0.805122   -0.571398    0.000000
 ---------------------------------------------------------------------

 SCF Done:  E(RB2PLYPD3) =  -76.3249108448     A.U. after   10 cycles
 E2(B2PLYPD3) =    -0.9171480065D-01 E(B2PLYPD3) =    -0.76416625645404D+02

 The electronic state is 1-A'.
 Alpha  occ. eigenvalues --  -19.73811  -1.13446  -0.59259  -0.46433  -0.39521
 Alpha virt. eigenvalues --    0.03775   0.09673   0.27713   0.29238   0.30532
 Alpha virt. eigenvalues --    0.34024   0.42837   0.50078   0.55254   0.62269
 Alpha virt. eigenvalues --    0.66724   0.79497   0.91022   0.96862   1.00496

 Mulliken charges:
               1
     1  O   -0.477146
     2  H    0.221592
     3  H    0.255554
 Sum of Mulliken charges =   0.00000

 Dipole moment (field-independent basis, Debye):
    X=              0.0502    Y=             -1.9713    Z=              0.0000  Tot=              1.9720
 Quadrupole moment (field-independent basis, Debye-Ang):
   XX=             -4.1676   YY=             -6.3685   ZZ=             -7.7119
   XY=              0.2917   XZ=              0.0000   YZ=              0.0000

 1\1\GINC-NODE29\SP\RB2PLYPD3-FC\def2QZVP\H2O1\BOITTIER\26-Aug-2020\0\\
 #p B2PLYPD3/Def2QZVP\\h2o\\0,1\O,0,-5.326605,-0.768123,0.915004\H,0,-4
 .368927,-0.772905,0.987035\H,0,-5.609308,0.24691,0.779561\\Version=ES6
 4L-G09RevD.01\State=1-A'\HF=-76.3249108\MP2=-76.4166256\RMSD=6.882e-09
 \PG=CS [SG(H2O1)]\\@

 FROM AN ANONYMOUS WRITER, ON PERSPECTIVE:

 Normal termination of Gaussian 09 at Wed Aug 26 09:24:33 2020.
