 Gaussian 09, Revision D.01,
 Gaussian 09:  ES64L-G09RevD.01 24-Apr-2013

 --------------------
 #p B2PLYPD3/Def2QZVP
 --------------------

 ---
 h2o
 ---
 Symbolic Z-matrix:
 Charge =  0 Multiplicity = 1

                         Standard orientation:
 ---------------------------------------------------------------------
 Center     Atomic      Atomic             Coordinates (Angstroms)
 Number     Number       Type             X           Y           Z
 ---------------------------------------------------------------------
      1          8           0        0.000000    0.115990    0.000000
      2          1           0        0.755885   -0.473667    0.000000
      3          1           0       -0.755885   -0.454252    0.000000
 ---------------------------------------------------------------------

 SCF Done:  E(RB2PLYPD3) =  -76.3352038215     A.U. after   10 cycles
 E2(B2PLYPD3) =    -0.8978935827D-01 E(B2PLYPD3) =    -0.76424993179798D+02

 The electronic state is 1-A'.
 Alpha  occ. eigenvalues --  -19.73020  -1.15939  -0.61618  -0.47474  -0.40009
 Alpha virt. eigenvalues --    0.04608   0.10258   0.27469   0.30398   0.31133
 Alpha virt. eigenvalues --    0.36113   0.44146   0.50379   0.56279   0.62340
 Alpha virt. eigenvalues --    0.65474   0.81285   0.93964   0.95818   1.04355

 Mulliken charges:
               1
     1  O   -0.439026
     2  H    0.222248
     3  H    0.216777
 Sum of Mulliken charges =   0.00000

 Dipole moment (field-independent basis, Debye):
    X=             -0.0060    Y=             -1.9514    Z=              0.0000  Tot=              1.9514
 Quadrupole moment (field-independent basis, Debye-Ang):
   XX=             -4.3350   YY=             -6.3327   ZZ=             -7.5805
   XY=             -0.0319   XZ=              0.0000   YZ=              0.0000

 1\1\GINC-NODE24\SP\RB2PLYPD3-FC\def2QZVP\H2O1\BOITTIER\26-Aug-2020\0\\
 #p B2PLYPD3/Def2QZVP\\h2o\\0,1\O,0,-5.326605,-0.763218,0.922508\H,0,-4
 .368927,-0.728144,0.896444\H,0,-5.609308,0.12368,0.749223\\Version=ES6
 4L-G09RevD.01\State=1-A'\HF=-76.3352038\MP2=-76.4249932\RMSD=4.177e-09
 \PG=CS [SG(H2O1)]\\@

 THERE IS AN OLD, OLD RECIPE IN MAINE FOR STEWING COOT. PLACE THE

 Normal termination of Gaussian 09 at Wed Aug 26 10:04:38 2020.
