 Gaussian 09, Revision D.01,
 Gaussian 09:  ES64L-G09RevD.01 24-Apr-2013

 --------------------
 #p B2PLYPD3/Def2QZVP
 --------------------

 ---
 h2o
 ---
 Symbolic Z-matrix:
 Charge =  0 Multiplicity = 1

                         Standard orientation:
 ---------------------------------------------------------------------
 Center     Atomic      Atomic             Coordinates (Angstroms)
 Number     Number       Type             X           Y           Z
 ---------------------------------------------------------------------
      1          8           0        0.000000    0.121326    0.000000
      2          1           0        0.741257   -0.492976    0.000000
      3          1           0       -0.741257   -0.477635    0.000000
 ---------------------------------------------------------------------

 SCF Done:  E(RB2PLYPD3) =  -76.3347161369     A.U. after   10 cycles
 E2(B2PLYPD3) =    -0.9007183164D-01 E(B2PLYPD3) =    -0.76424787968526D+02

 The electronic state is 1-A'.
 Alpha  occ. eigenvalues --  -19.73248  -1.15959  -0.60701  -0.48094  -0.40052
 Alpha virt. eigenvalues --    0.04478   0.10275   0.27563   0.30399   0.30704
 Alpha virt. eigenvalues --    0.36450   0.44016   0.49724   0.56764   0.61252
 Alpha virt. eigenvalues --    0.65674   0.81316   0.94239   0.95869   1.03302

 Mulliken charges:
               1
     1  O   -0.435606
     2  H    0.219950
     3  H    0.215656
 Sum of Mulliken charges =   0.00000

 Dipole moment (field-independent basis, Debye):
    X=             -0.0053    Y=             -2.0099    Z=              0.0000  Tot=              2.0099
 Quadrupole moment (field-independent basis, Debye-Ang):
   XX=             -4.4789   YY=             -6.2296   ZZ=             -7.5857
   XY=             -0.0240   XZ=              0.0000   YZ=              0.0000

 1\1\GINC-NODE20\SP\RB2PLYPD3-FC\def2QZVP\H2O1\BOITTIER\26-Aug-2020\0\\
 #p B2PLYPD3/Def2QZVP\\h2o\\0,1\O,0,-5.326605,-0.766286,0.925194\H,0,-4
 .368927,-0.673086,0.893632\H,0,-5.609308,0.117703,0.708723\\Version=ES
 64L-G09RevD.01\State=1-A'\HF=-76.3347161\MP2=-76.424788\RMSD=4.472e-09
 \PG=CS [SG(H2O1)]\\@

      TO SUSPECT YOUR OWN MORTALITY IS TO KNOW THE BEGINNING OF TERROR.

 Normal termination of Gaussian 09 at Wed Aug 26 08:29:52 2020.
