 Gaussian 09, Revision D.01,
 Gaussian 09:  ES64L-G09RevD.01 24-Apr-2013

 --------------------
 #p B2PLYPD3/Def2QZVP
 --------------------

 ---
 h2o
 ---
 Symbolic Z-matrix:
 Charge =  0 Multiplicity = 1

                         Standard orientation:
 ---------------------------------------------------------------------
 Center     Atomic      Atomic             Coordinates (Angstroms)
 Number     Number       Type             X           Y           Z
 ---------------------------------------------------------------------
      1          8           0        0.000000    0.120230    0.000000
      2          1           0        0.762750   -0.461892    0.000000
      3          1           0       -0.762750   -0.499944    0.000000
 ---------------------------------------------------------------------

 SCF Done:  E(RB2PLYPD3) =  -76.3341258176     A.U. after   10 cycles
 E2(B2PLYPD3) =    -0.9044445061D-01 E(B2PLYPD3) =    -0.76424570268225D+02

 The electronic state is 1-A'.
 Alpha  occ. eigenvalues --  -19.73374  -1.15182  -0.60504  -0.47506  -0.39890
 Alpha virt. eigenvalues --    0.04368   0.10107   0.27613   0.30438   0.30590
 Alpha virt. eigenvalues --    0.35548   0.43647   0.49939   0.56266   0.61755
 Alpha virt. eigenvalues --    0.65963   0.80903   0.93528   0.96172   1.02675

 Mulliken charges:
               1
     1  O   -0.449797
     2  H    0.220050
     3  H    0.229747
 Sum of Mulliken charges =   0.00000

 Dipole moment (field-independent basis, Debye):
    X=              0.0123    Y=             -1.9871    Z=              0.0000  Tot=              1.9871
 Quadrupole moment (field-independent basis, Debye-Ang):
   XX=             -4.3603   YY=             -6.2980   ZZ=             -7.6198
   XY=              0.0619   XZ=              0.0000   YZ=              0.0000

 1\1\GINC-NODE22\SP\RB2PLYPD3-FC\def2QZVP\H2O1\BOITTIER\26-Aug-2020\0\\
 #p B2PLYPD3/Def2QZVP\\h2o\\0,1\O,0,-5.326605,-0.765494,0.925375\H,0,-4
 .368927,-0.719735,0.887784\H,0,-5.609308,0.151682,0.712605\\Version=ES
 64L-G09RevD.01\State=1-A'\HF=-76.3341258\MP2=-76.4245703\RMSD=4.312e-0
 9\PG=CS [SG(H2O1)]\\@

 BUT 'GLORY' DOESN'T MEAN 'A NICE KNOCK DOWN ARGUMENT', ALICE OBJECTED.

 Normal termination of Gaussian 09 at Wed Aug 26 11:49:34 2020.
