 Gaussian 09, Revision D.01,
 Gaussian 09:  ES64L-G09RevD.01 24-Apr-2013

 --------------------
 #p B2PLYPD3/Def2QZVP
 --------------------

 ---
 h2o
 ---
 Symbolic Z-matrix:
 Charge =  0 Multiplicity = 1

                         Standard orientation:
 ---------------------------------------------------------------------
 Center     Atomic      Atomic             Coordinates (Angstroms)
 Number     Number       Type             X           Y           Z
 ---------------------------------------------------------------------
      1          8           0        0.000000    0.118319    0.000000
      2          1           0        0.758886   -0.469498    0.000000
      3          1           0       -0.758886   -0.477055    0.000000
 ---------------------------------------------------------------------

 SCF Done:  E(RB2PLYPD3) =  -76.3349596291     A.U. after   10 cycles
 E2(B2PLYPD3) =    -0.9012588593D-01 E(B2PLYPD3) =    -0.76425085514991D+02

 The electronic state is 1-A'.
 Alpha  occ. eigenvalues --  -19.73209  -1.15550  -0.61018  -0.47517  -0.39949
 Alpha virt. eigenvalues --    0.04488   0.10184   0.27546   0.30419   0.30868
 Alpha virt. eigenvalues --    0.35838   0.43877   0.50129   0.56296   0.61999
 Alpha virt. eigenvalues --    0.65732   0.81099   0.93788   0.95994   1.03494

 Mulliken charges:
               1
     1  O   -0.444712
     2  H    0.221344
     3  H    0.223368
 Sum of Mulliken charges =   0.00000

 Dipole moment (field-independent basis, Debye):
    X=              0.0024    Y=             -1.9717    Z=              0.0000  Tot=              1.9717
 Quadrupole moment (field-independent basis, Debye-Ang):
   XX=             -4.3526   YY=             -6.3125   ZZ=             -7.6005
   XY=              0.0123   XZ=              0.0000   YZ=              0.0000

 1\1\GINC-NODE34\SP\RB2PLYPD3-FC\def2QZVP\H2O1\BOITTIER\26-Aug-2020\0\\
 #p B2PLYPD3/Def2QZVP\\h2o\\0,1\O,0,-5.326605,-0.765667,0.917252\H,0,-4
 .368927,-0.710928,0.953205\H,0,-5.609308,0.145638,0.775903\\Version=ES
 64L-G09RevD.01\State=1-A'\HF=-76.3349596\MP2=-76.4250855\RMSD=4.088e-0
 9\PG=CS [SG(H2O1)]\\@

 ALL OUR THINKING ABOUT NATURE MUST NECESSARILY MOVE IN CIRCLES OR SPIRALS;

 Normal termination of Gaussian 09 at Wed Aug 26 08:29:50 2020.
