 Gaussian 09, Revision D.01,
 Gaussian 09:  ES64L-G09RevD.01 24-Apr-2013

 --------------------
 #p B2PLYPD3/Def2QZVP
 --------------------

 ---
 h2o
 ---
 Symbolic Z-matrix:
 Charge =  0 Multiplicity = 1

                         Standard orientation:
 ---------------------------------------------------------------------
 Center     Atomic      Atomic             Coordinates (Angstroms)
 Number     Number       Type             X           Y           Z
 ---------------------------------------------------------------------
      1          8           0        0.000000    0.115080    0.000000
      2          1           0        0.770801   -0.453384    0.000000
      3          1           0       -0.770801   -0.467256    0.000000
 ---------------------------------------------------------------------

 SCF Done:  E(RB2PLYPD3) =  -76.3349473974     A.U. after   10 cycles
 E2(B2PLYPD3) =    -0.9004528463D-01 E(B2PLYPD3) =    -0.76424992682026D+02

 The electronic state is 1-A'.
 Alpha  occ. eigenvalues --  -19.73103  -1.15397  -0.61471  -0.47067  -0.39893
 Alpha virt. eigenvalues --    0.04534   0.10146   0.27503   0.30426   0.31107
 Alpha virt. eigenvalues --    0.35454   0.43876   0.50594   0.55940   0.62717
 Alpha virt. eigenvalues --    0.65671   0.80943   0.93563   0.96045   1.04019

 Mulliken charges:
               1
     1  O   -0.449752
     2  H    0.223044
     3  H    0.226709
 Sum of Mulliken charges =   0.00000

 Dipole moment (field-independent basis, Debye):
    X=              0.0040    Y=             -1.9339    Z=              0.0000  Tot=              1.9339
 Quadrupole moment (field-independent basis, Debye-Ang):
   XX=             -4.2498   YY=             -6.3829   ZZ=             -7.6043
   XY=              0.0235   XZ=              0.0000   YZ=              0.0000

 1\1\GINC-NODE01\SP\RB2PLYPD3-FC\def2QZVP\H2O1\BOITTIER\26-Aug-2020\0\\
 #p B2PLYPD3/Def2QZVP\\h2o\\0,1\O,0,-5.326605,-0.762977,0.920531\H,0,-4
 .368927,-0.756209,0.910929\H,0,-5.609308,0.147878,0.766678\\Version=ES
 64L-G09RevD.01\State=1-A'\HF=-76.3349474\MP2=-76.4249927\RMSD=3.916e-0
 9\PG=CS [SG(H2O1)]\\@

 The juvenile sea squirt wanders through the sea searching

 Normal termination of Gaussian 09 at Wed Aug 26 09:31:41 2020.
