 Gaussian 09, Revision D.01,
 Gaussian 09:  ES64L-G09RevD.01 24-Apr-2013

 --------------------
 #p B2PLYPD3/Def2QZVP
 --------------------

 ---
 h2o
 ---
 Symbolic Z-matrix:
 Charge =  0 Multiplicity = 1

                         Standard orientation:
 ---------------------------------------------------------------------
 Center     Atomic      Atomic             Coordinates (Angstroms)
 Number     Number       Type             X           Y           Z
 ---------------------------------------------------------------------
      1          8           0        0.000000    0.116380    0.000000
      2          1           0        0.748694   -0.484134    0.000000
      3          1           0       -0.748694   -0.446908    0.000000
 ---------------------------------------------------------------------

 SCF Done:  E(RB2PLYPD3) =  -76.3349660753     A.U. after   10 cycles
 E2(B2PLYPD3) =    -0.8966639506D-01 E(B2PLYPD3) =    -0.76424632470391D+02

 The electronic state is 1-A'.
 Alpha  occ. eigenvalues --  -19.72975  -1.16213  -0.61691  -0.47666  -0.40065
 Alpha virt. eigenvalues --    0.04637   0.10312   0.27448   0.30384   0.31132
 Alpha virt. eigenvalues --    0.36431   0.44290   0.50290   0.56434   0.62170
 Alpha virt. eigenvalues --    0.65373   0.81427   0.94127   0.95719   1.04470

 Mulliken charges:
               1
     1  O   -0.433603
     2  H    0.222217
     3  H    0.211387
 Sum of Mulliken charges =   0.00000

 Dipole moment (field-independent basis, Debye):
    X=             -0.0117    Y=             -1.9592    Z=              0.0000  Tot=              1.9592
 Quadrupole moment (field-independent basis, Debye-Ang):
   XX=             -4.3748   YY=             -6.3084   ZZ=             -7.5690
   XY=             -0.0604   XZ=              0.0000   YZ=              0.0000

 1\1\GINC-NODE20\SP\RB2PLYPD3-FC\def2QZVP\H2O1\BOITTIER\26-Aug-2020\0\\
 #p B2PLYPD3/Def2QZVP\\h2o\\0,1\O,0,-5.326605,-0.763064,0.924331\H,0,-4
 .368927,-0.716954,0.88089\H,0,-5.609308,0.110024,0.735563\\Version=ES6
 4L-G09RevD.01\State=1-A'\HF=-76.3349661\MP2=-76.4246325\RMSD=4.507e-09
 \PG=CS [SG(H2O1)]\\@

 I DON'T EXACTLY UNDERSTAND WHAT YOU ARE SAYING,

 Normal termination of Gaussian 09 at Wed Aug 26 10:17:30 2020.
