 Gaussian 09, Revision D.01,
 Gaussian 09:  ES64L-G09RevD.01 24-Apr-2013

 --------------------
 #p B2PLYPD3/Def2QZVP
 --------------------

 ---
 h2o
 ---
 Symbolic Z-matrix:
 Charge =  0 Multiplicity = 1

                         Standard orientation:
 ---------------------------------------------------------------------
 Center     Atomic      Atomic             Coordinates (Angstroms)
 Number     Number       Type             X           Y           Z
 ---------------------------------------------------------------------
      1          8           0        0.000000    0.113638    0.000000
      2          1           0        0.766586   -0.460504    0.000000
      3          1           0       -0.766586   -0.448604    0.000000
 ---------------------------------------------------------------------

 SCF Done:  E(RB2PLYPD3) =  -76.3351945783     A.U. after   10 cycles
 E2(B2PLYPD3) =    -0.8978492073D-01 E(B2PLYPD3) =    -0.76424979499049D+02

 The electronic state is 1-A'.
 Alpha  occ. eigenvalues --  -19.72965  -1.15731  -0.61899  -0.47096  -0.39949
 Alpha virt. eigenvalues --    0.04628   0.10211   0.27449   0.30407   0.31296
 Alpha virt. eigenvalues --    0.35720   0.44092   0.50740   0.55978   0.62899
 Alpha virt. eigenvalues --    0.65471   0.81120   0.93759   0.95900   1.04682

 Mulliken charges:
               1
     1  O   -0.444428
     2  H    0.223855
     3  H    0.220574
 Sum of Mulliken charges =   0.00000

 Dipole moment (field-independent basis, Debye):
    X=             -0.0034    Y=             -1.9226    Z=              0.0000  Tot=              1.9226
 Quadrupole moment (field-independent basis, Debye-Ang):
   XX=             -4.2509   YY=             -6.3892   ZZ=             -7.5875
   XY=             -0.0202   XZ=              0.0000   YZ=              0.0000

 1\1\GINC-NODE22\SP\RB2PLYPD3-FC\def2QZVP\H2O1\BOITTIER\26-Aug-2020\0\\
 #p B2PLYPD3/Def2QZVP\\h2o\\0,1\O,0,-5.326605,-0.762052,0.920051\H,0,-4
 .368927,-0.757254,0.908988\H,0,-5.609308,0.134122,0.776101\\Version=ES
 64L-G09RevD.01\State=1-A'\HF=-76.3351946\MP2=-76.4249795\RMSD=3.947e-0
 9\PG=CS [SG(H2O1)]\\@

 THE MEEK SHALL INHERIT THE EARTH.

 Normal termination of Gaussian 09 at Wed Aug 26 08:29:57 2020.
