 Gaussian 09, Revision D.01,
 Gaussian 09:  ES64L-G09RevD.01 24-Apr-2013

 --------------------
 #p B2PLYPD3/Def2QZVP
 --------------------

 ---
 h2o
 ---
 Symbolic Z-matrix:
 Charge =  0 Multiplicity = 1

                         Standard orientation:
 ---------------------------------------------------------------------
 Center     Atomic      Atomic             Coordinates (Angstroms)
 Number     Number       Type             X           Y           Z
 ---------------------------------------------------------------------
      1          8           0        0.000000    0.119163    0.000000
      2          1           0        0.745921   -0.486424    0.000000
      3          1           0       -0.745921   -0.466877    0.000000
 ---------------------------------------------------------------------

 SCF Done:  E(RB2PLYPD3) =  -76.3349838947     A.U. after   10 cycles
 E2(B2PLYPD3) =    -0.8992122378D-01 E(B2PLYPD3) =    -0.76424905118462D+02

 The electronic state is 1-A'.
 Alpha  occ. eigenvalues --  -19.73142  -1.16011  -0.61106  -0.47875  -0.40046
 Alpha virt. eigenvalues --    0.04541   0.10280   0.27518   0.30396   0.30888
 Alpha virt. eigenvalues --    0.36389   0.44101   0.49967   0.56594   0.61668
 Alpha virt. eigenvalues --    0.65569   0.81343   0.94152   0.95819   1.03770

 Mulliken charges:
               1
     1  O   -0.435888
     2  H    0.220708
     3  H    0.215180
 Sum of Mulliken charges =   0.00000

 Dipole moment (field-independent basis, Debye):
    X=             -0.0065    Y=             -1.9871    Z=              0.0000  Tot=              1.9871
 Quadrupole moment (field-independent basis, Debye-Ang):
   XX=             -4.4265   YY=             -6.2682   ZZ=             -7.5809
   XY=             -0.0311   XZ=              0.0000   YZ=              0.0000

 1\1\GINC-NODE28\SP\RB2PLYPD3-FC\def2QZVP\H2O1\BOITTIER\26-Aug-2020\0\\
 #p B2PLYPD3/Def2QZVP\\h2o\\0,1\O,0,-5.326605,-0.765592,0.921602\H,0,-4
 .368927,-0.688307,0.917975\H,0,-5.609308,0.121828,0.741587\\Version=ES
 64L-G09RevD.01\State=1-A'\HF=-76.3349839\MP2=-76.4249051\RMSD=4.373e-0
 9\PG=CS [SG(H2O1)]\\@

 CONFIDENCE: THAT QUIET ASSURED FEELING YOU HAVE

 Normal termination of Gaussian 09 at Wed Aug 26 11:45:13 2020.
