 Gaussian 09, Revision D.01,
 Gaussian 09:  ES64L-G09RevD.01 24-Apr-2013

 --------------------
 #p B2PLYPD3/Def2QZVP
 --------------------

 ---
 h2o
 ---
 Symbolic Z-matrix:
 Charge =  0 Multiplicity = 1

                         Standard orientation:
 ---------------------------------------------------------------------
 Center     Atomic      Atomic             Coordinates (Angstroms)
 Number     Number       Type             X           Y           Z
 ---------------------------------------------------------------------
      1          8           0        0.000000    0.118025    0.000000
      2          1           0        0.748537   -0.482918    0.000000
      3          1           0       -0.748537   -0.461280    0.000000
 ---------------------------------------------------------------------

 SCF Done:  E(RB2PLYPD3) =  -76.3350755309     A.U. after   10 cycles
 E2(B2PLYPD3) =    -0.8984930422D-01 E(B2PLYPD3) =    -0.76424924835114D+02

 The electronic state is 1-A'.
 Alpha  occ. eigenvalues --  -19.73088  -1.16029  -0.61313  -0.47755  -0.40041
 Alpha virt. eigenvalues --    0.04572   0.10281   0.27496   0.30394   0.30982
 Alpha virt. eigenvalues --    0.36340   0.44141   0.50104   0.56500   0.61892
 Alpha virt. eigenvalues --    0.65517   0.81348   0.94107   0.95800   1.04013

 Mulliken charges:
               1
     1  O   -0.436195
     2  H    0.221169
     3  H    0.215025
 Sum of Mulliken charges =   0.00000

 Dipole moment (field-independent basis, Debye):
    X=             -0.0070    Y=             -1.9749    Z=              0.0000  Tot=              1.9749
 Quadrupole moment (field-independent basis, Debye-Ang):
   XX=             -4.3983   YY=             -6.2888   ZZ=             -7.5788
   XY=             -0.0348   XZ=              0.0000   YZ=              0.0000

 1\1\GINC-NODE34\SP\RB2PLYPD3-FC\def2QZVP\H2O1\BOITTIER\26-Aug-2020\0\\
 #p B2PLYPD3/Def2QZVP\\h2o\\0,1\O,0,-5.326605,-0.764524,0.922999\H,0,-4
 .368927,-0.703029,0.900405\H,0,-5.609308,0.119464,0.737136\\Version=ES
 64L-G09RevD.01\State=1-A'\HF=-76.3350755\MP2=-76.4249248\RMSD=4.333e-0
 9\PG=CS [SG(H2O1)]\\@

 MICRO CREDO - NEVER TRUST A COMPUTER BIGGER

 Normal termination of Gaussian 09 at Wed Aug 26 11:13:53 2020.
