 Gaussian 09, Revision D.01,
 Gaussian 09:  ES64L-G09RevD.01 24-Apr-2013

 --------------------
 #p B2PLYPD3/Def2QZVP
 --------------------

 ---
 h2o
 ---
 Symbolic Z-matrix:
 Charge =  0 Multiplicity = 1

                         Standard orientation:
 ---------------------------------------------------------------------
 Center     Atomic      Atomic             Coordinates (Angstroms)
 Number     Number       Type             X           Y           Z
 ---------------------------------------------------------------------
      1          8           0        0.000000    0.118054    0.000000
      2          1           0        0.764552   -0.460593    0.000000
      3          1           0       -0.764552   -0.483842    0.000000
 ---------------------------------------------------------------------

 SCF Done:  E(RB2PLYPD3) =  -76.3347015039     A.U. after   10 cycles
 E2(B2PLYPD3) =    -0.9023129336D-01 E(B2PLYPD3) =    -0.76424932797236D+02

 The electronic state is 1-A'.
 Alpha  occ. eigenvalues --  -19.73244  -1.15342  -0.60950  -0.47363  -0.39905
 Alpha virt. eigenvalues --    0.04454   0.10139   0.27560   0.30430   0.30833
 Alpha virt. eigenvalues --    0.35592   0.43777   0.50195   0.56166   0.62130
 Alpha virt. eigenvalues --    0.65810   0.80971   0.93603   0.96081   1.03310

 Mulliken charges:
               1
     1  O   -0.448603
     2  H    0.221266
     3  H    0.227337
 Sum of Mulliken charges =   0.00000

 Dipole moment (field-independent basis, Debye):
    X=              0.0072    Y=             -1.9658    Z=              0.0000  Tot=              1.9658
 Quadrupole moment (field-independent basis, Debye-Ang):
   XX=             -4.3213   YY=             -6.3301   ZZ=             -7.6099
   XY=              0.0384   XZ=              0.0000   YZ=              0.0000

 1\1\GINC-NODE34\SP\RB2PLYPD3-FC\def2QZVP\H2O1\BOITTIER\26-Aug-2020\0\\
 #p B2PLYPD3/Def2QZVP\\h2o\\0,1\O,0,-5.326605,-0.764234,0.924376\H,0,-4
 .368927,-0.734177,0.888022\H,0,-5.609308,0.145964,0.728323\\Version=ES
 64L-G09RevD.01\State=1-A'\HF=-76.3347015\MP2=-76.4249328\RMSD=4.102e-0
 9\PG=CS [SG(H2O1)]\\@

 "THE TIME HAS COME", THE WALRUS SAID,

 Normal termination of Gaussian 09 at Wed Aug 26 11:50:10 2020.
