 Gaussian 09, Revision D.01,
 Gaussian 09:  ES64L-G09RevD.01 24-Apr-2013

 --------------------
 #p B2PLYPD3/Def2QZVP
 --------------------

 ---
 h2o
 ---
 Symbolic Z-matrix:
 Charge =  0 Multiplicity = 1

                         Standard orientation:
 ---------------------------------------------------------------------
 Center     Atomic      Atomic             Coordinates (Angstroms)
 Number     Number       Type             X           Y           Z
 ---------------------------------------------------------------------
      1          8           0        0.000000    0.124525    0.000000
      2          1           0        0.758945   -0.466167    0.000000
      3          1           0       -0.758945   -0.530030    0.000000
 ---------------------------------------------------------------------

 SCF Done:  E(RB2PLYPD3) =  -76.3324327571     A.U. after   10 cycles
 E2(B2PLYPD3) =    -0.9088216098D-01 E(B2PLYPD3) =    -0.76423314918084D+02

 The electronic state is 1-A'.
 Alpha  occ. eigenvalues --  -19.73627  -1.14873  -0.59633  -0.47778  -0.39861
 Alpha virt. eigenvalues --    0.04187   0.10036   0.27720   0.30082   0.30452
 Alpha virt. eigenvalues --    0.35438   0.43407   0.49467   0.56451   0.61042
 Alpha virt. eigenvalues --    0.66252   0.80751   0.93347   0.96371   1.01543

 Mulliken charges:
               1
     1  O   -0.451680
     2  H    0.218102
     3  H    0.233578
 Sum of Mulliken charges =   0.00000

 Dipole moment (field-independent basis, Debye):
    X=              0.0222    Y=             -2.0282    Z=              0.0000  Tot=              2.0283
 Quadrupole moment (field-independent basis, Debye-Ang):
   XX=             -4.4391   YY=             -6.2326   ZZ=             -7.6394
   XY=              0.1009   XZ=              0.0000   YZ=              0.0000

 1\1\GINC-NODE28\SP\RB2PLYPD3-FC\def2QZVP\H2O1\BOITTIER\26-Aug-2020\0\\
 #p B2PLYPD3/Def2QZVP\\h2o\\0,1\O,0,-5.326605,-0.767782,0.92784\H,0,-4.
 368927,-0.692393,0.882189\H,0,-5.609308,0.160952,0.678897\\Version=ES6
 4L-G09RevD.01\State=1-A'\HF=-76.3324328\MP2=-76.4233149\RMSD=4.735e-09
 \PG=CS [SG(H2O1)]\\@

 IF YOU'RE NOT PART OF THE SOLUTION,

 Normal termination of Gaussian 09 at Wed Aug 26 08:39:53 2020.
