 Gaussian 09, Revision D.01,
 Gaussian 09:  ES64L-G09RevD.01 24-Apr-2013

 --------------------
 #p B2PLYPD3/Def2QZVP
 --------------------

 ---
 h2o
 ---
 Symbolic Z-matrix:
 Charge =  0 Multiplicity = 1

                         Standard orientation:
 ---------------------------------------------------------------------
 Center     Atomic      Atomic             Coordinates (Angstroms)
 Number     Number       Type             X           Y           Z
 ---------------------------------------------------------------------
      1          8           0        0.000000    0.114776    0.000000
      2          1           0        0.772423   -0.451375    0.000000
      3          1           0       -0.772423   -0.466833    0.000000
 ---------------------------------------------------------------------

 SCF Done:  E(RB2PLYPD3) =  -76.3349022305     A.U. after   10 cycles
 E2(B2PLYPD3) =    -0.9005132080D-01 E(B2PLYPD3) =    -0.76424953551295D+02

 The electronic state is 1-A'.
 Alpha  occ. eigenvalues --  -19.73098  -1.15360  -0.61499  -0.47012  -0.39883
 Alpha virt. eigenvalues --    0.04534   0.10138   0.27501   0.30428   0.31125
 Alpha virt. eigenvalues --    0.35392   0.43864   0.50645   0.55897   0.62793
 Alpha virt. eigenvalues --    0.65675   0.80911   0.93528   0.96062   1.04044

 Mulliken charges:
               1
     1  O   -0.450652
     2  H    0.223292
     3  H    0.227360
 Sum of Mulliken charges =   0.00000

 Dipole moment (field-independent basis, Debye):
    X=              0.0045    Y=             -1.9301    Z=              0.0000  Tot=              1.9301
 Quadrupole moment (field-independent basis, Debye-Ang):
   XX=             -4.2376   YY=             -6.3908   ZZ=             -7.6058
   XY=              0.0263   XZ=              0.0000   YZ=              0.0000

 1\1\GINC-NODE14\SP\RB2PLYPD3-FC\def2QZVP\H2O1\BOITTIER\26-Aug-2020\0\\
 #p B2PLYPD3/Def2QZVP\\h2o\\0,1\O,0,-5.326605,-0.76297,0.919291\H,0,-4.
 368927,-0.759041,0.920759\H,0,-5.609308,0.150606,0.776587\\Version=ES6
 4L-G09RevD.01\State=1-A'\HF=-76.3349022\MP2=-76.4249536\RMSD=3.905e-09
 \PG=CS [SG(H2O1)]\\@

 DEFINE YOUR TERMS, YOU WILL PERMIT ME AGAIN TO SAY,

 Normal termination of Gaussian 09 at Wed Aug 26 10:08:03 2020.
