 Gaussian 09, Revision D.01,
 Gaussian 09:  ES64L-G09RevD.01 24-Apr-2013

 --------------------
 #p B2PLYPD3/Def2QZVP
 --------------------

 ---
 h2o
 ---
 Symbolic Z-matrix:
 Charge =  0 Multiplicity = 1

                         Standard orientation:
 ---------------------------------------------------------------------
 Center     Atomic      Atomic             Coordinates (Angstroms)
 Number     Number       Type             X           Y           Z
 ---------------------------------------------------------------------
      1          8           0        0.000000    0.112974    0.000000
      2          1           0        0.771627   -0.455417    0.000000
      3          1           0       -0.771627   -0.448372    0.000000
 ---------------------------------------------------------------------

 SCF Done:  E(RB2PLYPD3) =  -76.3351033916     A.U. after   10 cycles
 E2(B2PLYPD3) =    -0.8983536058D-01 E(B2PLYPD3) =    -0.76424938752132D+02

 The electronic state is 1-A'.
 Alpha  occ. eigenvalues --  -19.72969  -1.15584  -0.61924  -0.46940  -0.39914
 Alpha virt. eigenvalues --    0.04616   0.10180   0.27452   0.30415   0.31327
 Alpha virt. eigenvalues --    0.35509   0.44028   0.50865   0.55852   0.63089
 Alpha virt. eigenvalues --    0.65510   0.81007   0.93648   0.95968   1.04693

 Mulliken charges:
               1
     1  O   -0.447704
     2  H    0.224807
     3  H    0.222897
 Sum of Mulliken charges =   0.00000

 Dipole moment (field-independent basis, Debye):
    X=             -0.0020    Y=             -1.9132    Z=              0.0000  Tot=              1.9132
 Quadrupole moment (field-independent basis, Debye-Ang):
   XX=             -4.2171   YY=             -6.4105   ZZ=             -7.5936
   XY=             -0.0121   XZ=              0.0000   YZ=              0.0000

 1\1\GINC-NODE15\SP\RB2PLYPD3-FC\def2QZVP\H2O1\BOITTIER\26-Aug-2020\0\\
 #p B2PLYPD3/Def2QZVP\\h2o\\0,1\O,0,-5.326605,-0.762209,0.914859\H,0,-4
 .368927,-0.764444,0.951233\H,0,-5.609308,0.143829,0.816414\\Version=ES
 64L-G09RevD.01\State=1-A'\HF=-76.3351034\MP2=-76.4249388\RMSD=3.855e-0
 9\PG=CS [SG(H2O1)]\\@

 WE LEARN WISDOM FROM FAILURE MUCH MORE THAN FROM SUCCESS.

 Normal termination of Gaussian 09 at Wed Aug 26 08:30:39 2020.
