 Gaussian 09, Revision D.01,
 Gaussian 09:  ES64L-G09RevD.01 24-Apr-2013

 --------------------
 #p B2PLYPD3/Def2QZVP
 --------------------

 ---
 h2o
 ---
 Symbolic Z-matrix:
 Charge =  0 Multiplicity = 1

                         Standard orientation:
 ---------------------------------------------------------------------
 Center     Atomic      Atomic             Coordinates (Angstroms)
 Number     Number       Type             X           Y           Z
 ---------------------------------------------------------------------
      1          8           0        0.000000    0.118046    0.000000
      2          1           0        0.759265   -0.467592    0.000000
      3          1           0       -0.759265   -0.476774    0.000000
 ---------------------------------------------------------------------

 SCF Done:  E(RB2PLYPD3) =  -76.3349871618     A.U. after   10 cycles
 E2(B2PLYPD3) =    -0.9010332438D-01 E(B2PLYPD3) =    -0.76425090486206D+02

 The electronic state is 1-A'.
 Alpha  occ. eigenvalues --  -19.73194  -1.15564  -0.61071  -0.47494  -0.39950
 Alpha virt. eigenvalues --    0.04496   0.10187   0.27540   0.30418   0.30893
 Alpha virt. eigenvalues --    0.35836   0.43892   0.50163   0.56279   0.62050
 Alpha virt. eigenvalues --    0.65715   0.81104   0.93787   0.95986   1.03563

 Mulliken charges:
               1
     1  O   -0.444633
     2  H    0.221084
     3  H    0.223549
 Sum of Mulliken charges =   0.00000

 Dipole moment (field-independent basis, Debye):
    X=              0.0029    Y=             -1.9689    Z=              0.0000  Tot=              1.9689
 Quadrupole moment (field-independent basis, Debye-Ang):
   XX=             -4.3469   YY=             -6.3168   ZZ=             -7.5996
   XY=              0.0150   XZ=              0.0000   YZ=              0.0000

 1\1\GINC-NODE33\SP\RB2PLYPD3-FC\def2QZVP\H2O1\BOITTIER\26-Aug-2020\0\\
 #p B2PLYPD3/Def2QZVP\\h2o\\0,1\O,0,-5.326605,-0.765056,0.920337\H,0,-4
 .368927,-0.717248,0.924996\H,0,-5.609308,0.142193,0.755193\\Version=ES
 64L-G09RevD.01\State=1-A'\HF=-76.3349872\MP2=-76.4250905\RMSD=4.084e-0
 9\PG=CS [SG(H2O1)]\\@

 ALL MEN WHO EXPLORE

 Normal termination of Gaussian 09 at Wed Aug 26 09:31:15 2020.
