 Gaussian 09, Revision D.01,
 Gaussian 09:  ES64L-G09RevD.01 24-Apr-2013

 --------------------
 #p B2PLYPD3/Def2QZVP
 --------------------

 ---
 h2o
 ---
 Symbolic Z-matrix:
 Charge =  0 Multiplicity = 1

                         Standard orientation:
 ---------------------------------------------------------------------
 Center     Atomic      Atomic             Coordinates (Angstroms)
 Number     Number       Type             X           Y           Z
 ---------------------------------------------------------------------
      1          8           0        0.000000    0.118893    0.000000
      2          1           0        0.769977   -0.456048    0.000000
      3          1           0       -0.769977   -0.495099    0.000000
 ---------------------------------------------------------------------

 SCF Done:  E(RB2PLYPD3) =  -76.3340367712     A.U. after   10 cycles
 E2(B2PLYPD3) =    -0.9046079980D-01 E(B2PLYPD3) =    -0.76424497570986D+02

 The electronic state is 1-A'.
 Alpha  occ. eigenvalues --  -19.73350  -1.15028  -0.60641  -0.47267  -0.39848
 Alpha virt. eigenvalues --    0.04370   0.10072   0.27601   0.30446   0.30666
 Alpha virt. eigenvalues --    0.35300   0.43598   0.50133   0.56072   0.62078
 Alpha virt. eigenvalues --    0.65978   0.80786   0.93352   0.96219   1.02781

 Mulliken charges:
               1
     1  O   -0.453511
     2  H    0.221861
     3  H    0.231650
 Sum of Mulliken charges =   0.00000

 Dipole moment (field-independent basis, Debye):
    X=              0.0121    Y=             -1.9703    Z=              0.0000  Tot=              1.9704
 Quadrupole moment (field-independent basis, Debye-Ang):
   XX=             -4.3063   YY=             -6.3332   ZZ=             -7.6256
   XY=              0.0647   XZ=              0.0000   YZ=              0.0000

 1\1\GINC-NODE02\SP\RB2PLYPD3-FC\def2QZVP\H2O1\BOITTIER\26-Aug-2020\0\\
 #p B2PLYPD3/Def2QZVP\\h2o\\0,1\O,0,-5.326605,-0.766302,0.914182\H,0,-4
 .368927,-0.724826,0.981666\H,0,-5.609308,0.169698,0.796562\\Version=ES
 64L-G09RevD.01\State=1-A'\HF=-76.3340368\MP2=-76.4244976\RMSD=4.229e-0
 9\PG=CS [SG(H2O1)]\\@

 BETTER TO HUNT IN FIELDS, FOR HEALTH UNBOUGHT

 Normal termination of Gaussian 09 at Wed Aug 26 08:32:06 2020.
