 Gaussian 09, Revision D.01,
 Gaussian 09:  ES64L-G09RevD.01 24-Apr-2013

 --------------------
 #p B2PLYPD3/Def2QZVP
 --------------------

 ---
 h2o
 ---
 Symbolic Z-matrix:
 Charge =  0 Multiplicity = 1

                         Standard orientation:
 ---------------------------------------------------------------------
 Center     Atomic      Atomic             Coordinates (Angstroms)
 Number     Number       Type             X           Y           Z
 ---------------------------------------------------------------------
      1          8           0        0.000000    0.117241    0.000000
      2          1           0        0.801144   -0.413611    0.000000
      3          1           0       -0.801144   -0.524313    0.000000
 ---------------------------------------------------------------------

 SCF Done:  E(RB2PLYPD3) =  -76.3298141817     A.U. after   10 cycles
 E2(B2PLYPD3) =    -0.9106759756D-01 E(B2PLYPD3) =    -0.76420881779277D+02

 The electronic state is 1-A'.
 Alpha  occ. eigenvalues --  -19.73511  -1.13973  -0.60257  -0.46398  -0.39604
 Alpha virt. eigenvalues --    0.04112   0.09821   0.27630   0.30227   0.30506
 Alpha virt. eigenvalues --    0.34153   0.43123   0.50587   0.55314   0.62848
 Alpha virt. eigenvalues --    0.66375   0.79873   0.92080   0.96674   1.01658

 Mulliken charges:
               1
     1  O   -0.473249
     2  H    0.224498
     3  H    0.248751
 Sum of Mulliken charges =   0.00000

 Dipole moment (field-independent basis, Debye):
    X=              0.0308    Y=             -1.9348    Z=              0.0000  Tot=              1.9350
 Quadrupole moment (field-independent basis, Debye-Ang):
   XX=             -4.1267   YY=             -6.4261   ZZ=             -7.6778
   XY=              0.1937   XZ=              0.0000   YZ=              0.0000

 1\1\GINC-NODE22\SP\RB2PLYPD3-FC\def2QZVP\H2O1\BOITTIER\26-Aug-2020\0\\
 #p B2PLYPD3/Def2QZVP\\h2o\\0,1\O,0,-5.326605,-0.765244,0.912459\H,0,-4
 .368927,-0.788867,0.989466\H,0,-5.609308,0.216823,0.817351\\Version=ES
 64L-G09RevD.01\State=1-A'\HF=-76.3298142\MP2=-76.4208818\RMSD=5.623e-0
 9\PG=CS [SG(H2O1)]\\@

 HE THAT FOLLOWS NATURE IS NEVER LOST.

 Normal termination of Gaussian 09 at Wed Aug 26 09:04:09 2020.
