 Gaussian 09, Revision D.01,
 Gaussian 09:  ES64L-G09RevD.01 24-Apr-2013

 --------------------
 #p B2PLYPD3/Def2QZVP
 --------------------

 ---
 h2o
 ---
 Symbolic Z-matrix:
 Charge =  0 Multiplicity = 1

                         Standard orientation:
 ---------------------------------------------------------------------
 Center     Atomic      Atomic             Coordinates (Angstroms)
 Number     Number       Type             X           Y           Z
 ---------------------------------------------------------------------
      1          8           0        0.000000    0.118999    0.000000
      2          1           0        0.744586   -0.488284    0.000000
      3          1           0       -0.744586   -0.463707    0.000000
 ---------------------------------------------------------------------

 SCF Done:  E(RB2PLYPD3) =  -76.3349522682     A.U. after   10 cycles
 E2(B2PLYPD3) =    -0.8987152007D-01 E(B2PLYPD3) =    -0.76424823788234D+02

 The electronic state is 1-A'.
 Alpha  occ. eigenvalues --  -19.73117  -1.16089  -0.61172  -0.47900  -0.40060
 Alpha virt. eigenvalues --    0.04557   0.10295   0.27507   0.30392   0.30912
 Alpha virt. eigenvalues --    0.36462   0.44148   0.49978   0.56615   0.61675
 Alpha virt. eigenvalues --    0.65530   0.81379   0.94191   0.95788   1.03869

 Mulliken charges:
               1
     1  O   -0.434560
     2  H    0.220788
     3  H    0.213772
 Sum of Mulliken charges =   0.00000

 Dipole moment (field-independent basis, Debye):
    X=             -0.0081    Y=             -1.9863    Z=              0.0000  Tot=              1.9863
 Quadrupole moment (field-independent basis, Debye-Ang):
   XX=             -4.4306   YY=             -6.2665   ZZ=             -7.5773
   XY=             -0.0391   XZ=              0.0000   YZ=              0.0000

 1\1\GINC-NODE36\SP\RB2PLYPD3-FC\def2QZVP\H2O1\BOITTIER\26-Aug-2020\0\\
 #p B2PLYPD3/Def2QZVP\\h2o\\0,1\O,0,-5.326605,-0.765242,0.922786\H,0,-4
 .368927,-0.689181,0.906413\H,0,-5.609308,0.117095,0.734331\\Version=ES
 64L-G09RevD.01\State=1-A'\HF=-76.3349523\MP2=-76.4248238\RMSD=4.441e-0
 9\PG=CS [SG(H2O1)]\\@

 SATCHEL PAIGE'S GUIDE TO LONGEVITY

 Normal termination of Gaussian 09 at Wed Aug 26 09:44:24 2020.
