 Gaussian 09, Revision D.01,
 Gaussian 09:  ES64L-G09RevD.01 24-Apr-2013

 --------------------
 #p B2PLYPD3/Def2QZVP
 --------------------

 ---
 h2o
 ---
 Symbolic Z-matrix:
 Charge =  0 Multiplicity = 1

                         Standard orientation:
 ---------------------------------------------------------------------
 Center     Atomic      Atomic             Coordinates (Angstroms)
 Number     Number       Type             X           Y           Z
 ---------------------------------------------------------------------
      1          8           0        0.000000    0.114294    0.000000
      2          1           0        0.733686   -0.505417    0.000000
      3          1           0       -0.733686   -0.408937    0.000000
 ---------------------------------------------------------------------

 SCF Done:  E(RB2PLYPD3) =  -76.3323275056     A.U. after   10 cycles
 E2(B2PLYPD3) =    -0.8910237114D-01 E(B2PLYPD3) =    -0.76421429876706D+02

 The electronic state is 1-A'.
 Alpha  occ. eigenvalues --  -19.72667  -1.17159  -0.62522  -0.47892  -0.40226
 Alpha virt. eigenvalues --    0.04788   0.10472   0.27309   0.30337   0.31319
 Alpha virt. eigenvalues --    0.37216   0.44914   0.50448   0.56612   0.62323
 Alpha virt. eigenvalues --    0.64903   0.81811   0.94318   0.95451   1.05201

 Mulliken charges:
               1
     1  O   -0.415415
     2  H    0.223403
     3  H    0.192012
 Sum of Mulliken charges =   0.00000

 Dipole moment (field-independent basis, Debye):
    X=             -0.0305    Y=             -1.9471    Z=              0.0000  Tot=              1.9473
 Quadrupole moment (field-independent basis, Debye-Ang):
   XX=             -4.4168   YY=             -6.2877   ZZ=             -7.5274
   XY=             -0.1547   XZ=              0.0000   YZ=              0.0000

 1\1\GINC-NODE17\SP\RB2PLYPD3-FC\def2QZVP\H2O1\BOITTIER\26-Aug-2020\0\\
 #p B2PLYPD3/Def2QZVP\\h2o\\0,1\O,0,-5.326605,-0.761861,0.923197\H,0,-4
 .368927,-0.702611,0.882223\H,0,-5.609308,0.076427,0.75168\\Version=ES6
 4L-G09RevD.01\State=1-A'\HF=-76.3323275\MP2=-76.4214299\RMSD=6.029e-09
 \PG=CS [SG(H2O1)]\\@

 PATIENCE IS THE ABILITY TO IDLE YOUR MOTOR WHEN

 Normal termination of Gaussian 09 at Wed Aug 26 12:47:50 2020.
