 Gaussian 09, Revision D.01,
 Gaussian 09:  ES64L-G09RevD.01 24-Apr-2013

 --------------------
 #p B2PLYPD3/Def2QZVP
 --------------------

 ---
 h2o
 ---
 Symbolic Z-matrix:
 Charge =  0 Multiplicity = 1

                         Standard orientation:
 ---------------------------------------------------------------------
 Center     Atomic      Atomic             Coordinates (Angstroms)
 Number     Number       Type             X           Y           Z
 ---------------------------------------------------------------------
      1          8           0        0.000000    0.113050    0.000000
      2          1           0        0.765544   -0.464185    0.000000
      3          1           0       -0.765544   -0.440216    0.000000
 ---------------------------------------------------------------------

 SCF Done:  E(RB2PLYPD3) =  -76.3351385333     A.U. after   10 cycles
 E2(B2PLYPD3) =    -0.8969707932D-01 E(B2PLYPD3) =    -0.76424835612589D+02

 The electronic state is 1-A'.
 Alpha  occ. eigenvalues --  -19.72914  -1.15841  -0.62059  -0.47088  -0.39967
 Alpha virt. eigenvalues --    0.04658   0.10230   0.27429   0.30401   0.31355
 Alpha virt. eigenvalues --    0.35798   0.44169   0.50807   0.55975   0.62987
 Alpha virt. eigenvalues --    0.65401   0.81171   0.93803   0.95857   1.04874

 Mulliken charges:
               1
     1  O   -0.442661
     2  H    0.224681
     3  H    0.217980
 Sum of Mulliken charges =   0.00000

 Dipole moment (field-independent basis, Debye):
    X=             -0.0068    Y=             -1.9175    Z=              0.0000  Tot=              1.9175
 Quadrupole moment (field-independent basis, Debye-Ang):
   XX=             -4.2481   YY=             -6.3932   ZZ=             -7.5820
   XY=             -0.0407   XZ=              0.0000   YZ=              0.0000

 1\1\GINC-NODE06\SP\RB2PLYPD3-FC\def2QZVP\H2O1\BOITTIER\26-Aug-2020\0\\
 #p B2PLYPD3/Def2QZVP\\h2o\\0,1\O,0,-5.326605,-0.762315,0.913949\H,0,-4
 .368927,-0.753227,0.958989\H,0,-5.609308,0.134314,0.822863\\Version=ES
 64L-G09RevD.01\State=1-A'\HF=-76.3351385\MP2=-76.4248356\RMSD=4.071e-0
 9\PG=CS [SG(H2O1)]\\@

 At the touch of love, everyone becomves a poet.

 Normal termination of Gaussian 09 at Wed Aug 26 12:25:43 2020.
