 Gaussian 09, Revision D.01,
 Gaussian 09:  ES64L-G09RevD.01 24-Apr-2013

 --------------------
 #p B2PLYPD3/Def2QZVP
 --------------------

 ---
 h2o
 ---
 Symbolic Z-matrix:
 Charge =  0 Multiplicity = 1

                         Standard orientation:
 ---------------------------------------------------------------------
 Center     Atomic      Atomic             Coordinates (Angstroms)
 Number     Number       Type             X           Y           Z
 ---------------------------------------------------------------------
      1          8           0        0.000000    0.115182    0.000000
      2          1           0        0.749294   -0.485497    0.000000
      3          1           0       -0.749294   -0.435963    0.000000
 ---------------------------------------------------------------------

 SCF Done:  E(RB2PLYPD3) =  -76.3347440422     A.U. after   10 cycles
 E2(B2PLYPD3) =    -0.8954807053D-01 E(B2PLYPD3) =    -0.76424292112753D+02

 The electronic state is 1-A'.
 Alpha  occ. eigenvalues --  -19.72897  -1.16326  -0.61957  -0.47585  -0.40077
 Alpha virt. eigenvalues --    0.04679   0.10329   0.27416   0.30378   0.31228
 Alpha virt. eigenvalues --    0.36468   0.44389   0.50433   0.56372   0.62384
 Alpha virt. eigenvalues --    0.65277   0.81469   0.94116   0.95677   1.04738

 Mulliken charges:
               1
     1  O   -0.431977
     2  H    0.223302
     3  H    0.208675
 Sum of Mulliken charges =   0.00000

 Dipole moment (field-independent basis, Debye):
    X=             -0.0153    Y=             -1.9473    Z=              0.0000  Tot=              1.9474
 Quadrupole moment (field-independent basis, Debye-Ang):
   XX=             -4.3555   YY=             -6.3235   ZZ=             -7.5629
   XY=             -0.0810   XZ=              0.0000   YZ=              0.0000

 1\1\GINC-NODE23\SP\RB2PLYPD3-FC\def2QZVP\H2O1\BOITTIER\26-Aug-2020\0\\
 #p B2PLYPD3/Def2QZVP\\h2o\\0,1\O,0,-5.326605,-0.761834,0.92576\H,0,-4.
 368927,-0.729455,0.862027\H,0,-5.609308,0.102843,0.731813\\Version=ES6
 4L-G09RevD.01\State=1-A'\HF=-76.334744\MP2=-76.4242921\RMSD=4.719e-09\
 PG=CS [SG(H2O1)]\\@

 NOTHING PUZZLES ME MORE THAN TIME AND SPACE; AND YET NOTHING TROUBLES ME LESS

 Normal termination of Gaussian 09 at Wed Aug 26 11:45:47 2020.
