 Gaussian 09, Revision D.01,
 Gaussian 09:  ES64L-G09RevD.01 24-Apr-2013

 --------------------
 #p B2PLYPD3/Def2QZVP
 --------------------

 ---
 h2o
 ---
 Symbolic Z-matrix:
 Charge =  0 Multiplicity = 1

                         Standard orientation:
 ---------------------------------------------------------------------
 Center     Atomic      Atomic             Coordinates (Angstroms)
 Number     Number       Type             X           Y           Z
 ---------------------------------------------------------------------
      1          8           0        0.000000    0.114298    0.000000
      2          1           0        0.762909   -0.465245    0.000000
      3          1           0       -0.762909   -0.449142    0.000000
 ---------------------------------------------------------------------

 SCF Done:  E(RB2PLYPD3) =  -76.3352185823     A.U. after   10 cycles
 E2(B2PLYPD3) =    -0.8976862961D-01 E(B2PLYPD3) =    -0.76424987211952D+02

 The electronic state is 1-A'.
 Alpha  occ. eigenvalues --  -19.72974  -1.15820  -0.61839  -0.47218  -0.39972
 Alpha virt. eigenvalues --    0.04628   0.10230   0.27452   0.30403   0.31254
 Alpha virt. eigenvalues --    0.35865   0.44124   0.50630   0.56075   0.62731
 Alpha virt. eigenvalues --    0.65458   0.81189   0.93832   0.95862   1.04612

 Mulliken charges:
               1
     1  O   -0.442310
     2  H    0.223397
     3  H    0.218913
 Sum of Mulliken charges =   0.00000

 Dipole moment (field-independent basis, Debye):
    X=             -0.0047    Y=             -1.9311    Z=              0.0000  Tot=              1.9311
 Quadrupole moment (field-independent basis, Debye-Ang):
   XX=             -4.2778   YY=             -6.3716   ZZ=             -7.5841
   XY=             -0.0270   XZ=              0.0000   YZ=              0.0000

 1\1\GINC-NODE36\SP\RB2PLYPD3-FC\def2QZVP\H2O1\BOITTIER\26-Aug-2020\0\\
 #p B2PLYPD3/Def2QZVP\\h2o\\0,1\O,0,-5.326605,-0.762908,0.917248\H,0,-4
 .368927,-0.743251,0.936407\H,0,-5.609308,0.133828,0.792994\\Version=ES
 64L-G09RevD.01\State=1-A'\HF=-76.3352186\MP2=-76.4249872\RMSD=4.032e-0
 9\PG=CS [SG(H2O1)]\\@

 I WANT IT ALL - RICH, THIN, AND CHOCOLATE.

 Normal termination of Gaussian 09 at Wed Aug 26 10:47:41 2020.
