 Gaussian 09, Revision D.01,
 Gaussian 09:  ES64L-G09RevD.01 24-Apr-2013

 --------------------
 #p B2PLYPD3/Def2QZVP
 --------------------

 ---
 h2o
 ---
 Symbolic Z-matrix:
 Charge =  0 Multiplicity = 1

                         Standard orientation:
 ---------------------------------------------------------------------
 Center     Atomic      Atomic             Coordinates (Angstroms)
 Number     Number       Type             X           Y           Z
 ---------------------------------------------------------------------
      1          8           0        0.000000    0.115105    0.000000
      2          1           0        0.766883   -0.459161    0.000000
      3          1           0       -0.766883   -0.461675    0.000000
 ---------------------------------------------------------------------

 SCF Done:  E(RB2PLYPD3) =  -76.3351256806     A.U. after   10 cycles
 E2(B2PLYPD3) =    -0.8995270453D-01 E(B2PLYPD3) =    -0.76425078385166D+02

 The electronic state is 1-A'.
 Alpha  occ. eigenvalues --  -19.73067  -1.15560  -0.61560  -0.47164  -0.39926
 Alpha virt. eigenvalues --    0.04565   0.10180   0.27489   0.30417   0.31142
 Alpha virt. eigenvalues --    0.35636   0.43962   0.50561   0.56023   0.62653
 Alpha virt. eigenvalues --    0.65601   0.81050   0.93686   0.95973   1.04196

 Mulliken charges:
               1
     1  O   -0.446689
     2  H    0.223006
     3  H    0.223684
 Sum of Mulliken charges =   0.00000

 Dipole moment (field-independent basis, Debye):
    X=              0.0007    Y=             -1.9365    Z=              0.0000  Tot=              1.9365
 Quadrupole moment (field-independent basis, Debye-Ang):
   XX=             -4.2694   YY=             -6.3725   ZZ=             -7.5967
   XY=              0.0042   XZ=              0.0000   YZ=              0.0000

 1\1\GINC-NODE21\SP\RB2PLYPD3-FC\def2QZVP\H2O1\BOITTIER\26-Aug-2020\0\\
 #p B2PLYPD3/Def2QZVP\\h2o\\0,1\O,0,-5.326605,-0.763439,0.917487\H,0,-4
 .368927,-0.745273,0.937838\H,0,-5.609308,0.144345,0.787902\\Version=ES
 64L-G09RevD.01\State=1-A'\HF=-76.3351257\MP2=-76.4250784\RMSD=3.920e-0
 9\PG=CS [SG(H2O1)]\\@

 A leading authority is anyone who has guessed right more than once.

 Normal termination of Gaussian 09 at Wed Aug 26 11:10:38 2020.
