 Gaussian 09, Revision D.01,
 Gaussian 09:  ES64L-G09RevD.01 24-Apr-2013

 --------------------
 #p B2PLYPD3/Def2QZVP
 --------------------

 ---
 h2o
 ---
 Symbolic Z-matrix:
 Charge =  0 Multiplicity = 1

                         Standard orientation:
 ---------------------------------------------------------------------
 Center     Atomic      Atomic             Coordinates (Angstroms)
 Number     Number       Type             X           Y           Z
 ---------------------------------------------------------------------
      1          8           0        0.000000    0.119289    0.000000
      2          1           0        0.744795   -0.487926    0.000000
      3          1           0       -0.744795   -0.466385    0.000000
 ---------------------------------------------------------------------

 SCF Done:  E(RB2PLYPD3) =  -76.3349523500     A.U. after   10 cycles
 E2(B2PLYPD3) =    -0.8991022004D-01 E(B2PLYPD3) =    -0.76424862570065D+02

 The electronic state is 1-A'.
 Alpha  occ. eigenvalues --  -19.73140  -1.16045  -0.61100  -0.47909  -0.40054
 Alpha virt. eigenvalues --    0.04543   0.10288   0.27517   0.30394   0.30883
 Alpha virt. eigenvalues --    0.36433   0.44117   0.49949   0.56621   0.61631
 Alpha virt. eigenvalues --    0.65559   0.81359   0.94180   0.95808   1.03775

 Mulliken charges:
               1
     1  O   -0.435192
     2  H    0.220654
     3  H    0.214539
 Sum of Mulliken charges =   0.00000

 Dipole moment (field-independent basis, Debye):
    X=             -0.0072    Y=             -1.9889    Z=              0.0000  Tot=              1.9889
 Quadrupole moment (field-independent basis, Debye-Ang):
   XX=             -4.4336   YY=             -6.2636   ZZ=             -7.5795
   XY=             -0.0342   XZ=              0.0000   YZ=              0.0000

 1\1\GINC-NODE05\SP\RB2PLYPD3-FC\def2QZVP\H2O1\BOITTIER\26-Aug-2020\0\\
 #p B2PLYPD3/Def2QZVP\\h2o\\0,1\O,0,-5.326605,-0.765355,0.923191\H,0,-4
 .368927,-0.688473,0.903895\H,0,-5.609308,0.118192,0.730426\\Version=ES
 64L-G09RevD.01\State=1-A'\HF=-76.3349524\MP2=-76.4248626\RMSD=4.413e-0
 9\PG=CS [SG(H2O1)]\\@

 YOU ARE IN A MAZE OF TWISTY LITTLE PASSAGES.

 Normal termination of Gaussian 09 at Wed Aug 26 10:17:34 2020.
