 Gaussian 09, Revision D.01,
 Gaussian 09:  ES64L-G09RevD.01 24-Apr-2013

 --------------------
 #p B2PLYPD3/Def2QZVP
 --------------------

 ---
 h2o
 ---
 Symbolic Z-matrix:
 Charge =  0 Multiplicity = 1

                         Standard orientation:
 ---------------------------------------------------------------------
 Center     Atomic      Atomic             Coordinates (Angstroms)
 Number     Number       Type             X           Y           Z
 ---------------------------------------------------------------------
      1          8           0        0.000000    0.115830    0.000000
      2          1           0        0.756550   -0.472738    0.000000
      3          1           0       -0.756550   -0.453904    0.000000
 ---------------------------------------------------------------------

 SCF Done:  E(RB2PLYPD3) =  -76.3352112818     A.U. after   10 cycles
 E2(B2PLYPD3) =    -0.8978713450D-01 E(B2PLYPD3) =    -0.76424998416278D+02

 The electronic state is 1-A'.
 Alpha  occ. eigenvalues --  -19.73016  -1.15928  -0.61639  -0.47450  -0.40005
 Alpha virt. eigenvalues --    0.04610   0.10256   0.27467   0.30398   0.31145
 Alpha virt. eigenvalues --    0.36090   0.44144   0.50402   0.56259   0.62376
 Alpha virt. eigenvalues --    0.65472   0.81277   0.93951   0.95822   1.04380

 Mulliken charges:
               1
     1  O   -0.439332
     2  H    0.222316
     3  H    0.217015
 Sum of Mulliken charges =   0.00000

 Dipole moment (field-independent basis, Debye):
    X=             -0.0058    Y=             -1.9495    Z=              0.0000  Tot=              1.9495
 Quadrupole moment (field-independent basis, Debye-Ang):
   XX=             -4.3296   YY=             -6.3364   ZZ=             -7.5808
   XY=             -0.0310   XZ=              0.0000   YZ=              0.0000

 1\1\GINC-NODE17\SP\RB2PLYPD3-FC\def2QZVP\H2O1\BOITTIER\26-Aug-2020\0\\
 #p B2PLYPD3/Def2QZVP\\h2o\\0,1\O,0,-5.326605,-0.763753,0.9189\H,0,-4.3
 68927,-0.72446,0.928352\H,0,-5.609308,0.128553,0.774561\\Version=ES64L
 -G09RevD.01\State=1-A'\HF=-76.3352113\MP2=-76.4249984\RMSD=4.160e-09\P
 G=CS [SG(H2O1)]\\@

 ALL PAPERS THAT YOU SAVE WILL NEVER BE NEEDED UNTIL

 Normal termination of Gaussian 09 at Wed Aug 26 10:41:26 2020.
