 Gaussian 09, Revision D.01,
 Gaussian 09:  ES64L-G09RevD.01 24-Apr-2013

 --------------------
 #p B2PLYPD3/Def2QZVP
 --------------------

 ---
 h2o
 ---
 Symbolic Z-matrix:
 Charge =  0 Multiplicity = 1

                         Standard orientation:
 ---------------------------------------------------------------------
 Center     Atomic      Atomic             Coordinates (Angstroms)
 Number     Number       Type             X           Y           Z
 ---------------------------------------------------------------------
      1          8           0        0.000000    0.113665    0.000000
      2          1           0        0.778180   -0.444774    0.000000
      3          1           0       -0.778180   -0.464544    0.000000
 ---------------------------------------------------------------------

 SCF Done:  E(RB2PLYPD3) =  -76.3347124079     A.U. after   10 cycles
 E2(B2PLYPD3) =    -0.9007138363D-01 E(B2PLYPD3) =    -0.76424783791540D+02

 The electronic state is 1-A'.
 Alpha  occ. eigenvalues --  -19.73078  -1.15233  -0.61603  -0.46817  -0.39848
 Alpha virt. eigenvalues --    0.04532   0.10109   0.27493   0.30435   0.31191
 Alpha virt. eigenvalues --    0.35172   0.43822   0.50833   0.55740   0.63069
 Alpha virt. eigenvalues --    0.65690   0.80787   0.93409   0.96124   1.04143

 Mulliken charges:
               1
     1  O   -0.453868
     2  H    0.224369
     3  H    0.229500
 Sum of Mulliken charges =   0.00000

 Dipole moment (field-independent basis, Debye):
    X=              0.0055    Y=             -1.9159    Z=              0.0000  Tot=              1.9159
 Quadrupole moment (field-independent basis, Debye-Ang):
   XX=             -4.1939   YY=             -6.4192   ZZ=             -7.6108
   XY=              0.0341   XZ=              0.0000   YZ=              0.0000

 1\1\GINC-NODE26\SP\RB2PLYPD3-FC\def2QZVP\H2O1\BOITTIER\26-Aug-2020\0\\
 #p B2PLYPD3/Def2QZVP\\h2o\\0,1\O,0,-5.326605,-0.762117,0.919793\H,0,-4
 .368927,-0.776395,0.911655\H,0,-5.609308,0.154317,0.777959\\Version=ES
 64L-G09RevD.01\State=1-A'\HF=-76.3347124\MP2=-76.4247838\RMSD=3.874e-0
 9\PG=CS [SG(H2O1)]\\@

 I CLAIM NOT TO HAVE CONTROLLED EVENTS,

 Normal termination of Gaussian 09 at Wed Aug 26 12:41:10 2020.
