 Gaussian 09, Revision D.01,
 Gaussian 09:  ES64L-G09RevD.01 24-Apr-2013

 --------------------
 #p B2PLYPD3/Def2QZVP
 --------------------

 ---
 h2o
 ---
 Symbolic Z-matrix:
 Charge =  0 Multiplicity = 1

                         Standard orientation:
 ---------------------------------------------------------------------
 Center     Atomic      Atomic             Coordinates (Angstroms)
 Number     Number       Type             X           Y           Z
 ---------------------------------------------------------------------
      1          8           0        0.000000    0.115808    0.000000
      2          1           0        0.763710   -0.464279    0.000000
      3          1           0       -0.763710   -0.462187    0.000000
 ---------------------------------------------------------------------

 SCF Done:  E(RB2PLYPD3) =  -76.3351556386     A.U. after   10 cycles
 E2(B2PLYPD3) =    -0.8995473121D-01 E(B2PLYPD3) =    -0.76425110369807D+02

 The electronic state is 1-A'.
 Alpha  occ. eigenvalues --  -19.73084  -1.15620  -0.61477  -0.47276  -0.39944
 Alpha virt. eigenvalues --    0.04559   0.10194   0.27496   0.30414   0.31095
 Alpha virt. eigenvalues --    0.35751   0.43977   0.50453   0.56113   0.62487
 Alpha virt. eigenvalues --    0.65603   0.81101   0.93749   0.95949   1.04102

 Mulliken charges:
               1
     1  O   -0.445103
     2  H    0.222835
     3  H    0.222268
 Sum of Mulliken charges =   0.00000

 Dipole moment (field-independent basis, Debye):
    X=             -0.0006    Y=             -1.9451    Z=              0.0000  Tot=              1.9451
 Quadrupole moment (field-independent basis, Debye-Ang):
   XX=             -4.2945   YY=             -6.3557   ZZ=             -7.5947
   XY=             -0.0035   XZ=              0.0000   YZ=              0.0000

 1\1\GINC-NODE09\SP\RB2PLYPD3-FC\def2QZVP\H2O1\BOITTIER\26-Aug-2020\0\\
 #p B2PLYPD3/Def2QZVP\\h2o\\0,1\O,0,-5.326605,-0.762592,0.924635\H,0,-4
 .368927,-0.747413,0.875881\H,0,-5.609308,0.132931,0.736353\\Version=ES
 64L-G09RevD.01\State=1-A'\HF=-76.3351556\MP2=-76.4251104\RMSD=3.971e-0
 9\PG=CS [SG(H2O1)]\\@

 BOOKS ARE LIGHTHOUSES ERECTED IN THE GREAT SEA OF TIME.

 Normal termination of Gaussian 09 at Wed Aug 26 11:40:42 2020.
