 Gaussian 09, Revision D.01,
 Gaussian 09:  ES64L-G09RevD.01 24-Apr-2013

 --------------------
 #p B2PLYPD3/Def2QZVP
 --------------------

 ---
 h2o
 ---
 Symbolic Z-matrix:
 Charge =  0 Multiplicity = 1

                         Standard orientation:
 ---------------------------------------------------------------------
 Center     Atomic      Atomic             Coordinates (Angstroms)
 Number     Number       Type             X           Y           Z
 ---------------------------------------------------------------------
      1          8           0        0.000000    0.119495    0.000000
      2          1           0        0.755294   -0.474453    0.000000
      3          1           0       -0.755294   -0.481505    0.000000
 ---------------------------------------------------------------------

 SCF Done:  E(RB2PLYPD3) =  -76.3348605748     A.U. after   10 cycles
 E2(B2PLYPD3) =    -0.9017843101D-01 E(B2PLYPD3) =    -0.76425039005822D+02

 The electronic state is 1-A'.
 Alpha  occ. eigenvalues --  -19.73255  -1.15571  -0.60830  -0.47661  -0.39963
 Alpha virt. eigenvalues --    0.04463   0.10191   0.27566   0.30418   0.30774
 Alpha virt. eigenvalues --    0.35931   0.43859   0.49979   0.56410   0.61754
 Alpha virt. eigenvalues --    0.65770   0.81123   0.93856   0.95997   1.03275

 Mulliken charges:
               1
     1  O   -0.443566
     2  H    0.220839
     3  H    0.222728
 Sum of Mulliken charges =   0.00000

 Dipole moment (field-independent basis, Debye):
    X=              0.0023    Y=             -1.9848    Z=              0.0000  Tot=              1.9848
 Quadrupole moment (field-independent basis, Debye-Ang):
   XX=             -4.3863   YY=             -6.2887   ZZ=             -7.6009
   XY=              0.0114   XZ=              0.0000   YZ=              0.0000

 1\1\GINC-NODE21\SP\RB2PLYPD3-FC\def2QZVP\H2O1\BOITTIER\26-Aug-2020\0\\
 #p B2PLYPD3/Def2QZVP\\h2o\\0,1\O,0,-5.326605,-0.766417,0.917671\H,0,-4
 .368927,-0.697528,0.954409\H,0,-5.609308,0.144249,0.767885\\Version=ES
 64L-G09RevD.01\State=1-A'\HF=-76.3348606\MP2=-76.425039\RMSD=4.162e-09
 \PG=CS [SG(H2O1)]\\@

 MEMORIES ARE LIKE AN ENGLISH GRAMMER LESSON -

 Normal termination of Gaussian 09 at Wed Aug 26 12:45:12 2020.
