 Gaussian 09, Revision D.01,
 Gaussian 09:  ES64L-G09RevD.01 24-Apr-2013

 --------------------
 #p B2PLYPD3/Def2QZVP
 --------------------

 ---
 h2o
 ---
 Symbolic Z-matrix:
 Charge =  0 Multiplicity = 1

                         Standard orientation:
 ---------------------------------------------------------------------
 Center     Atomic      Atomic             Coordinates (Angstroms)
 Number     Number       Type             X           Y           Z
 ---------------------------------------------------------------------
      1          8           0        0.000000    0.117021    0.000000
      2          1           0        0.757043   -0.471870    0.000000
      3          1           0       -0.757043   -0.464294    0.000000
 ---------------------------------------------------------------------

 SCF Done:  E(RB2PLYPD3) =  -76.3351767657     A.U. after   10 cycles
 E2(B2PLYPD3) =    -0.8993290048D-01 E(B2PLYPD3) =    -0.76425109666194D+02

 The electronic state is 1-A'.
 Alpha  occ. eigenvalues --  -19.73102  -1.15773  -0.61355  -0.47499  -0.39984
 Alpha virt. eigenvalues --    0.04557   0.10228   0.27503   0.30407   0.31023
 Alpha virt. eigenvalues --    0.36000   0.44028   0.50266   0.56292   0.62185
 Alpha virt. eigenvalues --    0.65586   0.81208   0.93899   0.95891   1.03992

 Mulliken charges:
               1
     1  O   -0.441497
     2  H    0.221793
     3  H    0.219704
 Sum of Mulliken charges =   0.00000

 Dipole moment (field-independent basis, Debye):
    X=             -0.0024    Y=             -1.9605    Z=              0.0000  Tot=              1.9605
 Quadrupole moment (field-independent basis, Debye-Ang):
   XX=             -4.3436   YY=             -6.3235   ZZ=             -7.5890
   XY=             -0.0124   XZ=              0.0000   YZ=              0.0000

 1\1\GINC-NODE32\SP\RB2PLYPD3-FC\def2QZVP\H2O1\BOITTIER\26-Aug-2020\0\\
 #p B2PLYPD3/Def2QZVP\\h2o\\0,1\O,0,-5.326605,-0.763591,0.924035\H,0,-4
 .368927,-0.726723,0.886632\H,0,-5.609308,0.128218,0.734836\\Version=ES
 64L-G09RevD.01\State=1-A'\HF=-76.3351768\MP2=-76.4251097\RMSD=4.099e-0
 9\PG=CS [SG(H2O1)]\\@

 I HAVE NOT FAILED, I HAVE ONLY DISCOVERED 10,000

 Normal termination of Gaussian 09 at Wed Aug 26 10:42:24 2020.
