 Gaussian 09, Revision D.01,
 Gaussian 09:  ES64L-G09RevD.01 24-Apr-2013

 --------------------
 #p B2PLYPD3/Def2QZVP
 --------------------

 ---
 h2o
 ---
 Symbolic Z-matrix:
 Charge =  0 Multiplicity = 1

                         Standard orientation:
 ---------------------------------------------------------------------
 Center     Atomic      Atomic             Coordinates (Angstroms)
 Number     Number       Type             X           Y           Z
 ---------------------------------------------------------------------
      1          8           0        0.000000    0.116328    0.000000
      2          1           0        0.759048   -0.469334    0.000000
      3          1           0       -0.759048   -0.461293    0.000000
 ---------------------------------------------------------------------

 SCF Done:  E(RB2PLYPD3) =  -76.3352039019     A.U. after   10 cycles
 E2(B2PLYPD3) =    -0.8990195174D-01 E(B2PLYPD3) =    -0.76425105853611D+02

 The electronic state is 1-A'.
 Alpha  occ. eigenvalues --  -19.73075  -1.15763  -0.61467  -0.47415  -0.39977
 Alpha virt. eigenvalues --    0.04572   0.10224   0.27492   0.30407   0.31078
 Alpha virt. eigenvalues --    0.35944   0.44041   0.50359   0.56227   0.62330
 Alpha virt. eigenvalues --    0.65562   0.81194   0.93866   0.95891   1.04130

 Mulliken charges:
               1
     1  O   -0.442104
     2  H    0.222161
     3  H    0.219943
 Sum of Mulliken charges =   0.00000

 Dipole moment (field-independent basis, Debye):
    X=             -0.0025    Y=             -1.9528    Z=              0.0000  Tot=              1.9528
 Quadrupole moment (field-independent basis, Debye-Ang):
   XX=             -4.3243   YY=             -6.3371   ZZ=             -7.5887
   XY=             -0.0133   XZ=              0.0000   YZ=              0.0000

 1\1\GINC-NODE30\SP\RB2PLYPD3-FC\def2QZVP\H2O1\BOITTIER\26-Aug-2020\0\\
 #p B2PLYPD3/Def2QZVP\\h2o\\0,1\O,0,-5.326605,-0.76327,0.923346\H,0,-4.
 368927,-0.733173,0.890171\H,0,-5.609308,0.129538,0.742313\\Version=ES6
 4L-G09RevD.01\State=1-A'\HF=-76.3352039\MP2=-76.4251059\RMSD=4.060e-09
 \PG=CS [SG(H2O1)]\\@

 The mind is not a vessel to be filled but a fire to be kindled.

 Normal termination of Gaussian 09 at Wed Aug 26 10:11:17 2020.
