 Gaussian 09, Revision D.01,
 Gaussian 09:  ES64L-G09RevD.01 24-Apr-2013

 --------------------
 #p B2PLYPD3/Def2QZVP
 --------------------

 ---
 h2o
 ---
 Symbolic Z-matrix:
 Charge =  0 Multiplicity = 1

                         Standard orientation:
 ---------------------------------------------------------------------
 Center     Atomic      Atomic             Coordinates (Angstroms)
 Number     Number       Type             X           Y           Z
 ---------------------------------------------------------------------
      1          8           0        0.000000    0.116124    0.000000
      2          1           0        0.706757   -0.543051    0.000000
      3          1           0       -0.706757   -0.385940    0.000000
 ---------------------------------------------------------------------

 SCF Done:  E(RB2PLYPD3) =  -76.3256433943     A.U. after   10 cycles
 E2(B2PLYPD3) =    -0.8873836075D-01 E(B2PLYPD3) =    -0.76414381755037D+02

 The electronic state is 1-A'.
 Alpha  occ. eigenvalues --  -19.72494  -1.18268  -0.62650  -0.48583  -0.40427
 Alpha virt. eigenvalues --    0.04799   0.10653   0.27195   0.30292   0.31124
 Alpha virt. eigenvalues --    0.38169   0.45603   0.50130   0.57103   0.61687
 Alpha virt. eigenvalues --    0.64549   0.82082   0.94318   0.95391   1.05103

 Mulliken charges:
               1
     1  O   -0.390638
     2  H    0.224100
     3  H    0.166538
 Sum of Mulliken charges =   0.00000

 Dipole moment (field-independent basis, Debye):
    X=             -0.0541    Y=             -1.9780    Z=              0.0000  Tot=              1.9787
 Quadrupole moment (field-independent basis, Debye-Ang):
   XX=             -4.5633   YY=             -6.1840   ZZ=             -7.4884
   XY=             -0.2387   XZ=              0.0000   YZ=              0.0000

 1\1\GINC-NODE26\SP\RB2PLYPD3-FC\def2QZVP\H2O1\BOITTIER\26-Aug-2020\0\\
 #p B2PLYPD3/Def2QZVP\\h2o\\0,1\O,0,-5.326605,-0.762331,0.926267\H,0,-4
 .368927,-0.650497,0.860219\H,0,-5.609308,0.031835,0.7239\\Version=ES64
 L-G09RevD.01\State=1-A'\HF=-76.3256434\MP2=-76.4143818\RMSD=6.738e-09\
 PG=CS [SG(H2O1)]\\@

 THE 2ND LAW OF THERMODYNAMICS HAS THE SAME

 Normal termination of Gaussian 09 at Wed Aug 26 08:49:56 2020.
