 Gaussian 09, Revision D.01,
 Gaussian 09:  ES64L-G09RevD.01 24-Apr-2013

 --------------------
 #p B2PLYPD3/Def2QZVP
 --------------------

 ---
 h2o
 ---
 Symbolic Z-matrix:
 Charge =  0 Multiplicity = 1

                         Standard orientation:
 ---------------------------------------------------------------------
 Center     Atomic      Atomic             Coordinates (Angstroms)
 Number     Number       Type             X           Y           Z
 ---------------------------------------------------------------------
      1          8           0        0.000000    0.117685    0.000000
      2          1           0        0.758642   -0.469038    0.000000
      3          1           0       -0.758642   -0.472446    0.000000
 ---------------------------------------------------------------------

 SCF Done:  E(RB2PLYPD3) =  -76.3350717485     A.U. after   10 cycles
 E2(B2PLYPD3) =    -0.9004686011D-01 E(B2PLYPD3) =    -0.76425118608607D+02

 The electronic state is 1-A'.
 Alpha  occ. eigenvalues --  -19.73163  -1.15630  -0.61167  -0.47492  -0.39960
 Alpha virt. eigenvalues --    0.04517   0.10200   0.27528   0.30415   0.30939
 Alpha virt. eigenvalues --    0.35886   0.43935   0.50200   0.56281   0.62099
 Alpha virt. eigenvalues --    0.65673   0.81137   0.93824   0.95955   1.03710

 Mulliken charges:
               1
     1  O   -0.443677
     2  H    0.221377
     3  H    0.222300
 Sum of Mulliken charges =   0.00000

 Dipole moment (field-independent basis, Debye):
    X=              0.0011    Y=             -1.9659    Z=              0.0000  Tot=              1.9659
 Quadrupole moment (field-independent basis, Debye-Ang):
   XX=             -4.3450   YY=             -6.3196   ZZ=             -7.5962
   XY=              0.0056   XZ=              0.0000   YZ=              0.0000

 1\1\GINC-NODE05\SP\RB2PLYPD3-FC\def2QZVP\H2O1\BOITTIER\26-Aug-2020\0\\
 #p B2PLYPD3/Def2QZVP\\h2o\\0,1\O,0,-5.326605,-0.76502,0.918971\H,0,-4.
 368927,-0.716464,0.935596\H,0,-5.609308,0.14082,0.766245\\Version=ES64
 L-G09RevD.01\State=1-A'\HF=-76.3350717\MP2=-76.4251186\RMSD=4.073e-09\
 PG=CS [SG(H2O1)]\\@

 ALMOST ANYTHING IS EASIER TO GET INTO THAN OUT OF.

 Normal termination of Gaussian 09 at Wed Aug 26 12:04:16 2020.
