 Gaussian 09, Revision D.01,
 Gaussian 09:  ES64L-G09RevD.01 24-Apr-2013

 --------------------
 #p B2PLYPD3/Def2QZVP
 --------------------

 ---
 h2o
 ---
 Symbolic Z-matrix:
 Charge =  0 Multiplicity = 1

                         Standard orientation:
 ---------------------------------------------------------------------
 Center     Atomic      Atomic             Coordinates (Angstroms)
 Number     Number       Type             X           Y           Z
 ---------------------------------------------------------------------
      1          8           0        0.000000    0.116802    0.000000
      2          1           0        0.778232   -0.442670    0.000000
      3          1           0       -0.778232   -0.491744    0.000000
 ---------------------------------------------------------------------

 SCF Done:  E(RB2PLYPD3) =  -76.3338292402     A.U. after   10 cycles
 E2(B2PLYPD3) =    -0.9042397965D-01 E(B2PLYPD3) =    -0.76424253219856D+02

 The electronic state is 1-A'.
 Alpha  occ. eigenvalues --  -19.73286  -1.14911  -0.60910  -0.46963  -0.39805
 Alpha virt. eigenvalues --    0.04389   0.10043   0.27571   0.30453   0.30796
 Alpha virt. eigenvalues --    0.35042   0.43588   0.50442   0.55829   0.62549
 Alpha virt. eigenvalues --    0.65946   0.80649   0.93169   0.96267   1.03020

 Mulliken charges:
               1
     1  O   -0.457213
     2  H    0.222522
     3  H    0.234691
 Sum of Mulliken charges =   0.00000

 Dipole moment (field-independent basis, Debye):
    X=              0.0144    Y=             -1.9457    Z=              0.0000  Tot=              1.9457
 Quadrupole moment (field-independent basis, Debye-Ang):
   XX=             -4.2365   YY=             -6.3797   ZZ=             -7.6293
   XY=              0.0832   XZ=              0.0000   YZ=              0.0000

 1\1\GINC-NODE38\SP\RB2PLYPD3-FC\def2QZVP\H2O1\BOITTIER\26-Aug-2020\0\\
 #p B2PLYPD3/Def2QZVP\\h2o\\0,1\O,0,-5.326605,-0.764713,0.9165\H,0,-4.3
 68927,-0.753694,0.953705\H,0,-5.609308,0.173141,0.788123\\Version=ES64
 L-G09RevD.01\State=1-A'\HF=-76.3338292\MP2=-76.4242532\RMSD=4.309e-09\
 PG=CS [SG(H2O1)]\\@

 OLD AGE AND TREACHERY WILL ALWAYS PREVAIL OVER YOUTH AND SKILL.

 Normal termination of Gaussian 09 at Wed Aug 26 12:23:11 2020.
