 Gaussian 09, Revision D.01,
 Gaussian 09:  ES64L-G09RevD.01 24-Apr-2013

 --------------------
 #p B2PLYPD3/Def2QZVP
 --------------------

 ---
 h2o
 ---
 Symbolic Z-matrix:
 Charge =  0 Multiplicity = 1

                         Standard orientation:
 ---------------------------------------------------------------------
 Center     Atomic      Atomic             Coordinates (Angstroms)
 Number     Number       Type             X           Y           Z
 ---------------------------------------------------------------------
      1          8           0        0.000000    0.119030    0.000000
      2          1           0        0.748603   -0.482538    0.000000
      3          1           0       -0.748603   -0.469701    0.000000
 ---------------------------------------------------------------------

 SCF Done:  E(RB2PLYPD3) =  -76.3350332199     A.U. after   10 cycles
 E2(B2PLYPD3) =    -0.8996746874D-01 E(B2PLYPD3) =    -0.76425000688687D+02

 The electronic state is 1-A'.
 Alpha  occ. eigenvalues --  -19.73159  -1.15910  -0.61079  -0.47804  -0.40026
 Alpha virt. eigenvalues --    0.04530   0.10260   0.27526   0.30401   0.30882
 Alpha virt. eigenvalues --    0.36273   0.44050   0.49995   0.56535   0.61729
 Alpha virt. eigenvalues --    0.65607   0.81295   0.94081   0.95856   1.03706

 Mulliken charges:
               1
     1  O   -0.437801
     2  H    0.220694
     3  H    0.217107
 Sum of Mulliken charges =   0.00000

 Dipole moment (field-independent basis, Debye):
    X=             -0.0042    Y=             -1.9843    Z=              0.0000  Tot=              1.9843
 Quadrupole moment (field-independent basis, Debye-Ang):
   XX=             -4.4119   YY=             -6.2769   ZZ=             -7.5851
   XY=             -0.0205   XZ=              0.0000   YZ=              0.0000

 1\1\GINC-NODE40\SP\RB2PLYPD3-FC\def2QZVP\H2O1\BOITTIER\26-Aug-2020\0\\
 #p B2PLYPD3/Def2QZVP\\h2o\\0,1\O,0,-5.326605,-0.765515,0.921537\H,0,-4
 .368927,-0.693882,0.918075\H,0,-5.609308,0.126161,0.74264\\Version=ES6
 4L-G09RevD.01\State=1-A'\HF=-76.3350332\MP2=-76.4250007\RMSD=4.288e-09
 \PG=CS [SG(H2O1)]\\@

 Cherishing children is the mark of a civilized society.

 Normal termination of Gaussian 09 at Wed Aug 26 10:54:38 2020.
