 Gaussian 09, Revision D.01,
 Gaussian 09:  ES64L-G09RevD.01 24-Apr-2013

 --------------------
 #p B2PLYPD3/Def2QZVP
 --------------------

 ---
 h2o
 ---
 Symbolic Z-matrix:
 Charge =  0 Multiplicity = 1

                         Standard orientation:
 ---------------------------------------------------------------------
 Center     Atomic      Atomic             Coordinates (Angstroms)
 Number     Number       Type             X           Y           Z
 ---------------------------------------------------------------------
      1          8           0        0.000000    0.117812    0.000000
      2          1           0        0.754640   -0.474775    0.000000
      3          1           0       -0.754640   -0.467724    0.000000
 ---------------------------------------------------------------------

 SCF Done:  E(RB2PLYPD3) =  -76.3351327152     A.U. after   10 cycles
 E2(B2PLYPD3) =    -0.8996693707D-01 E(B2PLYPD3) =    -0.76425099652225D+02

 The electronic state is 1-A'.
 Alpha  occ. eigenvalues --  -19.73134  -1.15788  -0.61228  -0.47596  -0.39993
 Alpha virt. eigenvalues --    0.04541   0.10232   0.27515   0.30407   0.30960
 Alpha virt. eigenvalues --    0.36067   0.44016   0.50162   0.56369   0.62018
 Alpha virt. eigenvalues --    0.65611   0.81225   0.93942   0.95892   1.03840

 Mulliken charges:
               1
     1  O   -0.440740
     2  H    0.221343
     3  H    0.219397
 Sum of Mulliken charges =   0.00000

 Dipole moment (field-independent basis, Debye):
    X=             -0.0022    Y=             -1.9694    Z=              0.0000  Tot=              1.9694
 Quadrupole moment (field-independent basis, Debye-Ang):
   XX=             -4.3661   YY=             -6.3076   ZZ=             -7.5892
   XY=             -0.0115   XZ=              0.0000   YZ=              0.0000

 1\1\GINC-NODE13\SP\RB2PLYPD3-FC\def2QZVP\H2O1\BOITTIER\26-Aug-2020\0\\
 #p B2PLYPD3/Def2QZVP\\h2o\\0,1\O,0,-5.326605,-0.764072,0.924327\H,0,-4
 .368927,-0.718063,0.887219\H,0,-5.609308,0.127253,0.729513\\Version=ES
 64L-G09RevD.01\State=1-A'\HF=-76.3351327\MP2=-76.4250997\RMSD=4.147e-0
 9\PG=CS [SG(H2O1)]\\@

 The cat could very well be man's best friend

 Normal termination of Gaussian 09 at Wed Aug 26 09:49:22 2020.
