 Gaussian 09, Revision D.01,
 Gaussian 09:  ES64L-G09RevD.01 24-Apr-2013

 --------------------
 #p B2PLYPD3/Def2QZVP
 --------------------

 ---
 h2o
 ---
 Symbolic Z-matrix:
 Charge =  0 Multiplicity = 1

                         Standard orientation:
 ---------------------------------------------------------------------
 Center     Atomic      Atomic             Coordinates (Angstroms)
 Number     Number       Type             X           Y           Z
 ---------------------------------------------------------------------
      1          8           0        0.000000    0.113006    0.000000
      2          1           0        0.762189   -0.467532    0.000000
      3          1           0       -0.762189   -0.436517    0.000000
 ---------------------------------------------------------------------

 SCF Done:  E(RB2PLYPD3) =  -76.3350886293     A.U. after   10 cycles
 E2(B2PLYPD3) =    -0.8961232082D-01 E(B2PLYPD3) =    -0.76424700950123D+02

 The electronic state is 1-A'.
 Alpha  occ. eigenvalues --  -19.72878  -1.15994  -0.62152  -0.47165  -0.39997
 Alpha virt. eigenvalues --    0.04683   0.10260   0.27414   0.30393   0.31378
 Alpha virt. eigenvalues --    0.35961   0.44255   0.50786   0.56039   0.62945
 Alpha virt. eigenvalues --    0.65334   0.81261   0.93888   0.95794   1.04995

 Mulliken charges:
               1
     1  O   -0.439702
     2  H    0.224266
     3  H    0.215436
 Sum of Mulliken charges =   0.00000

 Dipole moment (field-independent basis, Debye):
    X=             -0.0089    Y=             -1.9190    Z=              0.0000  Tot=              1.9190
 Quadrupole moment (field-independent basis, Debye-Ang):
   XX=             -4.2638   YY=             -6.3846   ZZ=             -7.5751
   XY=             -0.0523   XZ=              0.0000   YZ=              0.0000

 1\1\GINC-NODE39\SP\RB2PLYPD3-FC\def2QZVP\H2O1\BOITTIER\26-Aug-2020\0\\
 #p B2PLYPD3/Def2QZVP\\h2o\\0,1\O,0,-5.326605,-0.762136,0.916029\H,0,-4
 .368927,-0.749125,0.941331\H,0,-5.609308,0.127351,0.807402\\Version=ES
 64L-G09RevD.01\State=1-A'\HF=-76.3350886\MP2=-76.424701\RMSD=4.216e-09
 \PG=CS [SG(H2O1)]\\@

 ART, GLORY, FREEDOM FAIL, BUT NATURE STILL IS FAIR.

 Normal termination of Gaussian 09 at Wed Aug 26 12:15:12 2020.
