 Gaussian 09, Revision D.01,
 Gaussian 09:  ES64L-G09RevD.01 24-Apr-2013

 --------------------
 #p B2PLYPD3/Def2QZVP
 --------------------

 ---
 h2o
 ---
 Symbolic Z-matrix:
 Charge =  0 Multiplicity = 1

                         Standard orientation:
 ---------------------------------------------------------------------
 Center     Atomic      Atomic             Coordinates (Angstroms)
 Number     Number       Type             X           Y           Z
 ---------------------------------------------------------------------
      1          8           0        0.000000    0.116381    0.000000
      2          1           0        0.768816   -0.458442    0.000000
      3          1           0       -0.768816   -0.472605    0.000000
 ---------------------------------------------------------------------

 SCF Done:  E(RB2PLYPD3) =  -76.3348582279     A.U. after   10 cycles
 E2(B2PLYPD3) =    -0.9014242268D-01 E(B2PLYPD3) =    -0.76425000650595D+02

 The electronic state is 1-A'.
 Alpha  occ. eigenvalues --  -19.73172  -1.15342  -0.61227  -0.47180  -0.39892
 Alpha virt. eigenvalues --    0.04495   0.10137   0.27530   0.30429   0.30984
 Alpha virt. eigenvalues --    0.35482   0.43815   0.50421   0.56025   0.62469
 Alpha virt. eigenvalues --    0.65745   0.80940   0.93560   0.96070   1.03683

 Mulliken charges:
               1
     1  O   -0.449829
     2  H    0.223060
     3  H    0.226769
 Sum of Mulliken charges =   0.00000

 Dipole moment (field-independent basis, Debye):
    X=              0.0042    Y=             -1.9475    Z=              0.0000  Tot=              1.9475
 Quadrupole moment (field-independent basis, Debye-Ang):
   XX=             -4.2774   YY=             -6.3619   ZZ=             -7.6081
   XY=              0.0237   XZ=              0.0000   YZ=              0.0000

 1\1\GINC-NODE05\SP\RB2PLYPD3-FC\def2QZVP\H2O1\BOITTIER\26-Aug-2020\0\\
 #p B2PLYPD3/Def2QZVP\\h2o\\0,1\O,0,-5.326605,-0.764613,0.913817\H,0,-4
 .368927,-0.737996,0.974184\H,0,-5.609308,0.155848,0.809828\\Version=ES
 64L-G09RevD.01\State=1-A'\HF=-76.3348582\MP2=-76.4250007\RMSD=3.956e-0
 9\PG=CS [SG(H2O1)]\\@

 ADAM SMITH SAID, "THE REAL PRICE OF ANYTHING IS THE TOIL AND TROUBLE

 Normal termination of Gaussian 09 at Wed Aug 26 12:40:22 2020.
