 Gaussian 09, Revision D.01,
 Gaussian 09:  ES64L-G09RevD.01 24-Apr-2013

 --------------------
 #p B2PLYPD3/Def2QZVP
 --------------------

 ---
 h2o
 ---
 Symbolic Z-matrix:
 Charge =  0 Multiplicity = 1

                         Standard orientation:
 ---------------------------------------------------------------------
 Center     Atomic      Atomic             Coordinates (Angstroms)
 Number     Number       Type             X           Y           Z
 ---------------------------------------------------------------------
      1          8           0        0.000000    0.117806    0.000000
      2          1           0        0.789685   -0.425230    0.000000
      3          1           0       -0.789685   -0.517217    0.000000
 ---------------------------------------------------------------------

 SCF Done:  E(RB2PLYPD3) =  -76.3315355054     A.U. after   10 cycles
 E2(B2PLYPD3) =    -0.9083444639D-01 E(B2PLYPD3) =    -0.76422369951783D+02

 The electronic state is 1-A'.
 Alpha  occ. eigenvalues --  -19.73450  -1.14362  -0.60418  -0.46711  -0.39694
 Alpha virt. eigenvalues --    0.04214   0.09915   0.27624   0.30401   0.30483
 Alpha virt. eigenvalues --    0.34553   0.43305   0.50415   0.55586   0.62578
 Alpha virt. eigenvalues --    0.66218   0.80237   0.92537   0.96519   1.02038

 Mulliken charges:
               1
     1  O   -0.465902
     2  H    0.222356
     3  H    0.243546
 Sum of Mulliken charges =   0.00000

 Dipole moment (field-independent basis, Debye):
    X=              0.0267    Y=             -1.9475    Z=              0.0000  Tot=              1.9477
 Quadrupole moment (field-independent basis, Debye-Ang):
   XX=             -4.1927   YY=             -6.3925   ZZ=             -7.6582
   XY=              0.1579   XZ=              0.0000   YZ=              0.0000

 1\1\GINC-NODE38\SP\RB2PLYPD3-FC\def2QZVP\H2O1\BOITTIER\26-Aug-2020\0\\
 #p B2PLYPD3/Def2QZVP\\h2o\\0,1\O,0,-5.326605,-0.765347,0.917039\H,0,-4
 .368927,-0.768489,0.953544\H,0,-5.609308,0.198085,0.78017\\Version=ES6
 4L-G09RevD.01\State=1-A'\HF=-76.3315355\MP2=-76.42237\RMSD=5.160e-09\P
 G=CS [SG(H2O1)]\\@

 HE WHO LOVES TO READ, AND KNOWS HOW TO REFLECT,

 Normal termination of Gaussian 09 at Wed Aug 26 11:29:21 2020.
