 Gaussian 09, Revision D.01,
 Gaussian 09:  ES64L-G09RevD.01 24-Apr-2013

 --------------------
 #p B2PLYPD3/Def2QZVP
 --------------------

 ---
 h2o
 ---
 Symbolic Z-matrix:
 Charge =  0 Multiplicity = 1

                         Standard orientation:
 ---------------------------------------------------------------------
 Center     Atomic      Atomic             Coordinates (Angstroms)
 Number     Number       Type             X           Y           Z
 ---------------------------------------------------------------------
      1          8           0        0.000000    0.118159    0.000000
      2          1           0        0.776931   -0.452809    0.000000
      3          1           0       -0.776931   -0.492466    0.000000
 ---------------------------------------------------------------------

 SCF Done:  E(RB2PLYPD3) =  -76.3337245368     A.U. after   10 cycles
 E2(B2PLYPD3) =    -0.9054471944D-01 E(B2PLYPD3) =    -0.76424269256267D+02

 The electronic state is 1-A'.
 Alpha  occ. eigenvalues --  -19.73365  -1.14820  -0.60644  -0.47064  -0.39799
 Alpha virt. eigenvalues --    0.04346   0.10025   0.27605   0.30457   0.30678
 Alpha virt. eigenvalues --    0.35023   0.43505   0.50265   0.55905   0.62300
 Alpha virt. eigenvalues --    0.66042   0.80632   0.93163   0.96295   1.02725

 Mulliken charges:
               1
     1  O   -0.457805
     2  H    0.224053
     3  H    0.233753
 Sum of Mulliken charges =   0.00000

 Dipole moment (field-independent basis, Debye):
    X=              0.0120    Y=             -1.9593    Z=              0.0000  Tot=              1.9593
 Quadrupole moment (field-independent basis, Debye-Ang):
   XX=             -4.2617   YY=             -6.3602   ZZ=             -7.6346
   XY=              0.0666   XZ=              0.0000   YZ=              0.0000

 1\1\GINC-NODE29\SP\RB2PLYPD3-FC\def2QZVP\H2O1\BOITTIER\26-Aug-2020\0\\
 #p B2PLYPD3/Def2QZVP\\h2o\\0,1\O,0,-5.326605,-0.765835,0.909237\H,0,-4
 .368927,-0.741015,1.018161\H,0,-5.609308,0.178412,0.838797\\Version=ES
 64L-G09RevD.01\State=1-A'\HF=-76.3337245\MP2=-76.4242693\RMSD=4.158e-0
 9\PG=CS [SG(H2O1)]\\@

 QUANTUM MECHANICS IS BOHRING -- M.S. GORDON

 Normal termination of Gaussian 09 at Wed Aug 26 08:37:57 2020.
