 Gaussian 09, Revision D.01,
 Gaussian 09:  ES64L-G09RevD.01 24-Apr-2013

 --------------------
 #p B2PLYPD3/Def2QZVP
 --------------------

 ---
 h2o
 ---
 Symbolic Z-matrix:
 Charge =  0 Multiplicity = 1

                         Standard orientation:
 ---------------------------------------------------------------------
 Center     Atomic      Atomic             Coordinates (Angstroms)
 Number     Number       Type             X           Y           Z
 ---------------------------------------------------------------------
      1          8           0        0.000000    0.115312    0.000000
      2          1           0        0.717740   -0.529751    0.000000
      3          1           0       -0.717740   -0.392746    0.000000
 ---------------------------------------------------------------------

 SCF Done:  E(RB2PLYPD3) =  -76.3285991720     A.U. after   10 cycles
 E2(B2PLYPD3) =    -0.8887621625D-01 E(B2PLYPD3) =    -0.76417475388216D+02

 The electronic state is 1-A'.
 Alpha  occ. eigenvalues --  -19.72560  -1.17819  -0.62623  -0.48294  -0.40346
 Alpha virt. eigenvalues --    0.04799   0.10581   0.27241   0.30310   0.31198
 Alpha virt. eigenvalues --    0.37805   0.45324   0.50260   0.56901   0.61956
 Alpha virt. eigenvalues --    0.64685   0.81994   0.94322   0.95404   1.05091

 Mulliken charges:
               1
     1  O   -0.400718
     2  H    0.224296
     3  H    0.176422
 Sum of Mulliken charges =   0.00000

 Dipole moment (field-independent basis, Debye):
    X=             -0.0455    Y=             -1.9648    Z=              0.0000  Tot=              1.9653
 Quadrupole moment (field-independent basis, Debye-Ang):
   XX=             -4.5033   YY=             -6.2268   ZZ=             -7.5038
   XY=             -0.2130   XZ=              0.0000   YZ=              0.0000

 1\1\GINC-NODE11\SP\RB2PLYPD3-FC\def2QZVP\H2O1\BOITTIER\26-Aug-2020\0\\
 #p B2PLYPD3/Def2QZVP\\h2o\\0,1\O,0,-5.326605,-0.761242,0.927912\H,0,-4
 .368927,-0.680575,0.840718\H,0,-5.609308,0.044486,0.717781\\Version=ES
 64L-G09RevD.01\State=1-A'\HF=-76.3285992\MP2=-76.4174754\RMSD=6.690e-0
 9\PG=CS [SG(H2O1)]\\@

 The earth never tires,

 Normal termination of Gaussian 09 at Wed Aug 26 08:33:10 2020.
