 Gaussian 09, Revision D.01,
 Gaussian 09:  ES64L-G09RevD.01 24-Apr-2013

 --------------------
 #p B2PLYPD3/Def2QZVP
 --------------------

 ---
 h2o
 ---
 Symbolic Z-matrix:
 Charge =  0 Multiplicity = 1

                         Standard orientation:
 ---------------------------------------------------------------------
 Center     Atomic      Atomic             Coordinates (Angstroms)
 Number     Number       Type             X           Y           Z
 ---------------------------------------------------------------------
      1          8           0        0.000000    0.121087    0.000000
      2          1           0        0.746988   -0.484394    0.000000
      3          1           0       -0.746988   -0.484306    0.000000
 ---------------------------------------------------------------------

 SCF Done:  E(RB2PLYPD3) =  -76.3347515078     A.U. after   10 cycles
 E2(B2PLYPD3) =    -0.9017438099D-01 E(B2PLYPD3) =    -0.76424925888778D+02

 The electronic state is 1-A'.
 Alpha  occ. eigenvalues --  -19.73286  -1.15741  -0.60640  -0.47941  -0.40009
 Alpha virt. eigenvalues --    0.04451   0.10229   0.27580   0.30410   0.30681
 Alpha virt. eigenvalues --    0.36205   0.43906   0.49771   0.56637   0.61375
 Alpha virt. eigenvalues --    0.65759   0.81217   0.94069   0.95950   1.03136

 Mulliken charges:
               1
     1  O   -0.439569
     2  H    0.219797
     3  H    0.219773
 Sum of Mulliken charges =   0.00000

 Dipole moment (field-independent basis, Debye):
    X=              0.0000    Y=             -2.0044    Z=              0.0000  Tot=              2.0044
 Quadrupole moment (field-independent basis, Debye-Ang):
   XX=             -4.4484   YY=             -6.2476   ZZ=             -7.5950
   XY=             -0.0001   XZ=              0.0000   YZ=              0.0000

 1\1\GINC-NODE26\SP\RB2PLYPD3-FC\def2QZVP\H2O1\BOITTIER\26-Aug-2020\0\\
 #p B2PLYPD3/Def2QZVP\\h2o\\0,1\O,0,-5.326605,-0.766481,0.923695\H,0,-4
 .368927,-0.68182,0.906838\H,0,-5.609308,0.12956,0.719532\\Version=ES64
 L-G09RevD.01\State=1-A'\HF=-76.3347515\MP2=-76.4249259\RMSD=4.325e-09\
 PG=CS [SG(H2O1)]\\@

 I DON'T PRETEND TO UNDERSTAND THE UNIVERSE --

 Normal termination of Gaussian 09 at Wed Aug 26 08:32:17 2020.
