 Gaussian 09, Revision D.01,
 Gaussian 09:  ES64L-G09RevD.01 24-Apr-2013

 --------------------
 #p B2PLYPD3/Def2QZVP
 --------------------

 ---
 h2o
 ---
 Symbolic Z-matrix:
 Charge =  0 Multiplicity = 1

                         Standard orientation:
 ---------------------------------------------------------------------
 Center     Atomic      Atomic             Coordinates (Angstroms)
 Number     Number       Type             X           Y           Z
 ---------------------------------------------------------------------
      1          8           0        0.000000    0.119049    0.000000
      2          1           0        0.789620   -0.423980    0.000000
      3          1           0       -0.789620   -0.528412    0.000000
 ---------------------------------------------------------------------

 SCF Done:  E(RB2PLYPD3) =  -76.3307230900     A.U. after   10 cycles
 E2(B2PLYPD3) =    -0.9098057142D-01 E(B2PLYPD3) =    -0.76421703661371D+02

 The electronic state is 1-A'.
 Alpha  occ. eigenvalues --  -19.73528  -1.14247  -0.60156  -0.46759  -0.39679
 Alpha virt. eigenvalues --    0.04146   0.09886   0.27652   0.30193   0.30489
 Alpha virt. eigenvalues --    0.34526   0.43232   0.50263   0.55609   0.62386
 Alpha virt. eigenvalues --    0.66309   0.80177   0.92368   0.96573   1.01670

 Mulliken charges:
               1
     1  O   -0.466641
     2  H    0.221512
     3  H    0.245128
 Sum of Mulliken charges =   0.00000

 Dipole moment (field-independent basis, Debye):
    X=              0.0309    Y=             -1.9589    Z=              0.0000  Tot=              1.9591
 Quadrupole moment (field-independent basis, Debye-Ang):
   XX=             -4.2102   YY=             -6.3751   ZZ=             -7.6654
   XY=              0.1781   XZ=              0.0000   YZ=              0.0000

 1\1\GINC-NODE37\SP\RB2PLYPD3-FC\def2QZVP\H2O1\BOITTIER\26-Aug-2020\0\\
 #p B2PLYPD3/Def2QZVP\\h2o\\0,1\O,0,-5.326605,-0.766115,0.91775\H,0,-4.
 368927,-0.762004,0.952619\H,0,-5.609308,0.203884,0.769813\\Version=ES6
 4L-G09RevD.01\State=1-A'\HF=-76.3307231\MP2=-76.4217037\RMSD=5.415e-09
 \PG=CS [SG(H2O1)]\\@

 If your ship doesn't come in, swim out to it!

 Normal termination of Gaussian 09 at Wed Aug 26 11:48:18 2020.
