 Gaussian 09, Revision D.01,
 Gaussian 09:  ES64L-G09RevD.01 24-Apr-2013

 --------------------
 #p B2PLYPD3/Def2QZVP
 --------------------

 ---
 h2o
 ---
 Symbolic Z-matrix:
 Charge =  0 Multiplicity = 1

                         Standard orientation:
 ---------------------------------------------------------------------
 Center     Atomic      Atomic             Coordinates (Angstroms)
 Number     Number       Type             X           Y           Z
 ---------------------------------------------------------------------
      1          8           0        0.000000    0.116258    0.000000
      2          1           0        0.752026   -0.481136    0.000000
      3          1           0       -0.752026   -0.448925    0.000000
 ---------------------------------------------------------------------

 SCF Done:  E(RB2PLYPD3) =  -76.3350686427     A.U. after   10 cycles
 E2(B2PLYPD3) =    -0.8972993453D-01 E(B2PLYPD3) =    -0.76424798577272D+02

 The electronic state is 1-A'.
 Alpha  occ. eigenvalues --  -19.73000  -1.16079  -0.61644  -0.47579  -0.40038
 Alpha virt. eigenvalues --    0.04621   0.10286   0.27459   0.30391   0.31124
 Alpha virt. eigenvalues --    0.36281   0.44219   0.50324   0.56363   0.62240
 Alpha virt. eigenvalues --    0.65424   0.81359   0.94045   0.95770   1.04386

 Mulliken charges:
               1
     1  O   -0.436191
     2  H    0.222708
     3  H    0.213483
 Sum of Mulliken charges =   0.00000

 Dipole moment (field-independent basis, Debye):
    X=             -0.0100    Y=             -1.9561    Z=              0.0000  Tot=              1.9562
 Quadrupole moment (field-independent basis, Debye-Ang):
   XX=             -4.3572   YY=             -6.3188   ZZ=             -7.5747
   XY=             -0.0526   XZ=              0.0000   YZ=              0.0000

 1\1\GINC-NODE07\SP\RB2PLYPD3-FC\def2QZVP\H2O1\BOITTIER\26-Aug-2020\0\\
 #p B2PLYPD3/Def2QZVP\\h2o\\0,1\O,0,-5.326605,-0.762464,0.926237\H,0,-4
 .368927,-0.728277,0.862162\H,0,-5.609308,0.111743,0.724209\\Version=ES
 64L-G09RevD.01\State=1-A'\HF=-76.3350686\MP2=-76.4247986\RMSD=4.381e-0
 9\PG=CS [SG(H2O1)]\\@

 AN OPTIMIST IS A GUY

 Normal termination of Gaussian 09 at Wed Aug 26 12:04:48 2020.
