 Gaussian 09, Revision D.01,
 Gaussian 09:  ES64L-G09RevD.01 24-Apr-2013

 --------------------
 #p B2PLYPD3/Def2QZVP
 --------------------

 ---
 h2o
 ---
 Symbolic Z-matrix:
 Charge =  0 Multiplicity = 1

                         Standard orientation:
 ---------------------------------------------------------------------
 Center     Atomic      Atomic             Coordinates (Angstroms)
 Number     Number       Type             X           Y           Z
 ---------------------------------------------------------------------
      1          8           0        0.000000    0.114728    0.000000
      2          1           0        0.766011   -0.460611    0.000000
      3          1           0       -0.766011   -0.457212    0.000000
 ---------------------------------------------------------------------

 SCF Done:  E(RB2PLYPD3) =  -76.3351801638     A.U. after   10 cycles
 E2(B2PLYPD3) =    -0.8989001623D-01 E(B2PLYPD3) =    -0.76425070180002D+02

 The electronic state is 1-A'.
 Alpha  occ. eigenvalues --  -19.73033  -1.15638  -0.61666  -0.47166  -0.39939
 Alpha virt. eigenvalues --    0.04587   0.10195   0.27476   0.30413   0.31189
 Alpha virt. eigenvalues --    0.35696   0.44014   0.50601   0.56028   0.62704
 Alpha virt. eigenvalues --    0.65553   0.81090   0.93729   0.95939   1.04358

 Mulliken charges:
               1
     1  O   -0.445480
     2  H    0.223203
     3  H    0.222277
 Sum of Mulliken charges =   0.00000

 Dipole moment (field-independent basis, Debye):
    X=             -0.0010    Y=             -1.9334    Z=              0.0000  Tot=              1.9334
 Quadrupole moment (field-independent basis, Debye-Ang):
   XX=             -4.2685   YY=             -6.3747   ZZ=             -7.5928
   XY=             -0.0057   XZ=              0.0000   YZ=              0.0000

 1\1\GINC-NODE22\SP\RB2PLYPD3-FC\def2QZVP\H2O1\BOITTIER\26-Aug-2020\0\\
 #p B2PLYPD3/Def2QZVP\\h2o\\0,1\O,0,-5.326605,-0.763178,0.91749\H,0,-4.
 368927,-0.746125,0.936198\H,0,-5.609308,0.141022,0.789467\\Version=ES6
 4L-G09RevD.01\State=1-A'\HF=-76.3351802\MP2=-76.4250702\RMSD=3.930e-09
 \PG=CS [SG(H2O1)]\\@

 NATURE GIVES TO EVERY TIME AND SEASON SOME BEAUTY OF ITS OWN.

 Normal termination of Gaussian 09 at Wed Aug 26 10:44:23 2020.
