 Gaussian 09, Revision D.01,
 Gaussian 09:  ES64L-G09RevD.01 24-Apr-2013

 --------------------
 #p B2PLYPD3/Def2QZVP
 --------------------

 ---
 h2o
 ---
 Symbolic Z-matrix:
 Charge =  0 Multiplicity = 1

                         Standard orientation:
 ---------------------------------------------------------------------
 Center     Atomic      Atomic             Coordinates (Angstroms)
 Number     Number       Type             X           Y           Z
 ---------------------------------------------------------------------
      1          8           0        0.000000    0.119279    0.000000
      2          1           0        0.764861   -0.461029    0.000000
      3          1           0       -0.764861   -0.493202    0.000000
 ---------------------------------------------------------------------

 SCF Done:  E(RB2PLYPD3) =  -76.3343292823     A.U. after   10 cycles
 E2(B2PLYPD3) =    -0.9038195016D-01 E(B2PLYPD3) =    -0.76424711232457D+02

 The electronic state is 1-A'.
 Alpha  occ. eigenvalues --  -19.73329  -1.15197  -0.60670  -0.47412  -0.39885
 Alpha virt. eigenvalues --    0.04396   0.10109   0.27594   0.30437   0.30685
 Alpha virt. eigenvalues --    0.35508   0.43675   0.50057   0.56195   0.61937
 Alpha virt. eigenvalues --    0.65920   0.80901   0.93518   0.96153   1.02894

 Mulliken charges:
               1
     1  O   -0.450264
     2  H    0.221016
     3  H    0.229247
 Sum of Mulliken charges =   0.00000

 Dipole moment (field-independent basis, Debye):
    X=              0.0102    Y=             -1.9770    Z=              0.0000  Tot=              1.9770
 Quadrupole moment (field-independent basis, Debye-Ang):
   XX=             -4.3367   YY=             -6.3155   ZZ=             -7.6180
   XY=              0.0528   XZ=              0.0000   YZ=              0.0000

 1\1\GINC-NODE30\SP\RB2PLYPD3-FC\def2QZVP\H2O1\BOITTIER\26-Aug-2020\0\\
 #p B2PLYPD3/Def2QZVP\\h2o\\0,1\O,0,-5.326605,-0.76637,0.916761\H,0,-4.
 368927,-0.715188,0.961524\H,0,-5.609308,0.16115,0.775583\\Version=ES64
 L-G09RevD.01\State=1-A'\HF=-76.3343293\MP2=-76.4247112\RMSD=4.204e-09\
 PG=CS [SG(H2O1)]\\@

 THERE IS MORE TO LIFE THAN INCREASING ITS SPEED.

 Normal termination of Gaussian 09 at Wed Aug 26 08:30:14 2020.
