 Gaussian 09, Revision D.01,
 Gaussian 09:  ES64L-G09RevD.01 24-Apr-2013

 --------------------
 #p B2PLYPD3/Def2QZVP
 --------------------

 ---
 h2o
 ---
 Symbolic Z-matrix:
 Charge =  0 Multiplicity = 1

                         Standard orientation:
 ---------------------------------------------------------------------
 Center     Atomic      Atomic             Coordinates (Angstroms)
 Number     Number       Type             X           Y           Z
 ---------------------------------------------------------------------
      1          8           0        0.000000    0.111670    0.000000
      2          1           0        0.779599   -0.448243    0.000000
      3          1           0       -0.779599   -0.445118    0.000000
 ---------------------------------------------------------------------

 SCF Done:  E(RB2PLYPD3) =  -76.3348587486     A.U. after   10 cycles
 E2(B2PLYPD3) =    -0.8989260466D-01 E(B2PLYPD3) =    -0.76424751353277D+02

 The electronic state is 1-A'.
 Alpha  occ. eigenvalues --  -19.72960  -1.15378  -0.62010  -0.46682  -0.39862
 Alpha virt. eigenvalues --    0.04605   0.10135   0.27449   0.30426   0.31401
 Alpha virt. eigenvalues --    0.35182   0.43946   0.51105   0.55644   0.63435
 Alpha virt. eigenvalues --    0.65556   0.80818   0.93488   0.96073   1.04786

 Mulliken charges:
               1
     1  O   -0.452644
     2  H    0.226736
     3  H    0.225908
 Sum of Mulliken charges =   0.00000

 Dipole moment (field-independent basis, Debye):
    X=             -0.0008    Y=             -1.8957    Z=              0.0000  Tot=              1.8957
 Quadrupole moment (field-independent basis, Debye-Ang):
   XX=             -4.1600   YY=             -6.4472   ZZ=             -7.6021
   XY=             -0.0055   XZ=              0.0000   YZ=              0.0000

 1\1\GINC-NODE13\SP\RB2PLYPD3-FC\def2QZVP\H2O1\BOITTIER\26-Aug-2020\0\\
 #p B2PLYPD3/Def2QZVP\\h2o\\0,1\O,0,-5.326605,-0.76142,0.911707\H,0,-4.
 368927,-0.784832,0.971554\H,0,-5.609308,0.151599,0.846423\\Version=ES6
 4L-G09RevD.01\State=1-A'\HF=-76.3348587\MP2=-76.4247514\RMSD=3.751e-09
 \PG=CS [SG(H2O1)]\\@

 IF YOU GIVE A BOY AND A PIG EVERYTHING THEY WANT,

 Normal termination of Gaussian 09 at Wed Aug 26 08:49:10 2020.
