 Gaussian 09, Revision D.01,
 Gaussian 09:  ES64L-G09RevD.01 24-Apr-2013

 --------------------
 #p B2PLYPD3/Def2QZVP
 --------------------

 ---
 h2o
 ---
 Symbolic Z-matrix:
 Charge =  0 Multiplicity = 1

                         Standard orientation:
 ---------------------------------------------------------------------
 Center     Atomic      Atomic             Coordinates (Angstroms)
 Number     Number       Type             X           Y           Z
 ---------------------------------------------------------------------
      1          8           0        0.000000    0.125825    0.000000
      2          1           0        0.749558   -0.483558    0.000000
      3          1           0       -0.749558   -0.523044    0.000000
 ---------------------------------------------------------------------

 SCF Done:  E(RB2PLYPD3) =  -76.3329130208     A.U. after   10 cycles
 E2(B2PLYPD3) =    -0.9082317413D-01 E(B2PLYPD3) =    -0.76423736194883D+02

 The electronic state is 1-A'.
 Alpha  occ. eigenvalues --  -19.73634  -1.15095  -0.59521  -0.48080  -0.39918
 Alpha virt. eigenvalues --    0.04210   0.10090   0.27730   0.30096   0.30440
 Alpha virt. eigenvalues --    0.35724   0.43470   0.49312   0.56709   0.60689
 Alpha virt. eigenvalues --    0.66208   0.80889   0.93739   0.96292   1.01591

 Mulliken charges:
               1
     1  O   -0.447254
     2  H    0.218716
     3  H    0.228538
 Sum of Mulliken charges =   0.00000

 Dipole moment (field-independent basis, Debye):
    X=              0.0143    Y=             -2.0457    Z=              0.0000  Tot=              2.0458
 Quadrupole moment (field-independent basis, Debye-Ang):
   XX=             -4.5030   YY=             -6.1939   ZZ=             -7.6301
   XY=              0.0610   XZ=              0.0000   YZ=              0.0000

 1\1\GINC-NODE29\SP\RB2PLYPD3-FC\def2QZVP\H2O1\BOITTIER\26-Aug-2020\0\\
 #p B2PLYPD3/Def2QZVP\\h2o\\0,1\O,0,-5.326605,-0.767058,0.93267\H,0,-4.
 368927,-0.68157,0.839236\H,0,-5.609308,0.138538,0.644844\\Version=ES64
 L-G09RevD.01\State=1-A'\HF=-76.332913\MP2=-76.4237362\RMSD=4.567e-09\P
 G=CS [SG(H2O1)]\\@

 THAT'S WHAT MAKES US A GREAT COUNTRY.

 Normal termination of Gaussian 09 at Wed Aug 26 08:55:25 2020.
