 Gaussian 09, Revision D.01,
 Gaussian 09:  ES64L-G09RevD.01 24-Apr-2013

 --------------------
 #p B2PLYPD3/Def2QZVP
 --------------------

 ---
 h2o
 ---
 Symbolic Z-matrix:
 Charge =  0 Multiplicity = 1

                         Standard orientation:
 ---------------------------------------------------------------------
 Center     Atomic      Atomic             Coordinates (Angstroms)
 Number     Number       Type             X           Y           Z
 ---------------------------------------------------------------------
      1          8           0        0.000000    0.117442    0.000000
      2          1           0        0.768716   -0.454977    0.000000
      3          1           0       -0.768716   -0.484559    0.000000
 ---------------------------------------------------------------------

 SCF Done:  E(RB2PLYPD3) =  -76.3345573531     A.U. after   10 cycles
 E2(B2PLYPD3) =    -0.9026184131D-01 E(B2PLYPD3) =    -0.76424819194381D+02

 The electronic state is 1-A'.
 Alpha  occ. eigenvalues --  -19.73242  -1.15234  -0.60992  -0.47231  -0.39878
 Alpha virt. eigenvalues --    0.04446   0.10115   0.27558   0.30435   0.30854
 Alpha virt. eigenvalues --    0.35435   0.43737   0.50294   0.56057   0.62295
 Alpha virt. eigenvalues --    0.65832   0.80891   0.93488   0.96124   1.03307

 Mulliken charges:
               1
     1  O   -0.450959
     2  H    0.221664
     3  H    0.229295
 Sum of Mulliken charges =   0.00000

 Dipole moment (field-independent basis, Debye):
    X=              0.0090    Y=             -1.9575    Z=              0.0000  Tot=              1.9576
 Quadrupole moment (field-independent basis, Debye-Ang):
   XX=             -4.2924   YY=             -6.3482   ZZ=             -7.6144
   XY=              0.0493   XZ=              0.0000   YZ=              0.0000

 1\1\GINC-NODE09\SP\RB2PLYPD3-FC\def2QZVP\H2O1\BOITTIER\26-Aug-2020\0\\
 #p B2PLYPD3/Def2QZVP\\h2o\\0,1\O,0,-5.326605,-0.764957,0.91822\H,0,-4.
 368927,-0.734869,0.941366\H,0,-5.609308,0.158221,0.772786\\Version=ES6
 4L-G09RevD.01\State=1-A'\HF=-76.3345574\MP2=-76.4248192\RMSD=4.111e-09
 \PG=CS [SG(H2O1)]\\@

 A MAN IS EXACTLY AS GREAT AS THE TIDE SURGING

 Normal termination of Gaussian 09 at Wed Aug 26 10:31:43 2020.
