 Gaussian 09, Revision D.01,
 Gaussian 09:  ES64L-G09RevD.01 24-Apr-2013

 --------------------
 #p B2PLYPD3/Def2QZVP
 --------------------

 ---
 h2o
 ---
 Symbolic Z-matrix:
 Charge =  0 Multiplicity = 1

                         Standard orientation:
 ---------------------------------------------------------------------
 Center     Atomic      Atomic             Coordinates (Angstroms)
 Number     Number       Type             X           Y           Z
 ---------------------------------------------------------------------
      1          8           0        0.000000    0.117616    0.000000
      2          1           0        0.778560   -0.440279    0.000000
      3          1           0       -0.778560   -0.500645    0.000000
 ---------------------------------------------------------------------

 SCF Done:  E(RB2PLYPD3) =  -76.3333958933     A.U. after   10 cycles
 E2(B2PLYPD3) =    -0.9052706254D-01 E(B2PLYPD3) =    -0.76423922955842D+02

 The electronic state is 1-A'.
 Alpha  occ. eigenvalues --  -19.73342  -1.14817  -0.60724  -0.46989  -0.39791
 Alpha virt. eigenvalues --    0.04345   0.10022   0.27592   0.30458   0.30670
 Alpha virt. eigenvalues --    0.34998   0.43527   0.50347   0.55840   0.62425
 Alpha virt. eigenvalues --    0.66016   0.80599   0.93071   0.96315   1.02706

 Mulliken charges:
               1
     1  O   -0.458166
     2  H    0.221701
     3  H    0.236465
 Sum of Mulliken charges =   0.00000

 Dipole moment (field-independent basis, Debye):
    X=              0.0180    Y=             -1.9530    Z=              0.0000  Tot=              1.9531
 Quadrupole moment (field-independent basis, Debye-Ang):
   XX=             -4.2460   YY=             -6.3696   ZZ=             -7.6349
   XY=              0.1020   XZ=              0.0000   YZ=              0.0000

 1\1\GINC-NODE36\SP\RB2PLYPD3-FC\def2QZVP\H2O1\BOITTIER\26-Aug-2020\0\\
 #p B2PLYPD3/Def2QZVP\\h2o\\0,1\O,0,-5.326605,-0.764887,0.919592\H,0,-4
 .368927,-0.752993,0.930251\H,0,-5.609308,0.175226,0.762531\\Version=ES
 64L-G09RevD.01\State=1-A'\HF=-76.3333959\MP2=-76.423923\RMSD=4.516e-09
 \PG=CS [SG(H2O1)]\\@

 YE HAVE SOWN MUCH, AND BRING IN LITTLE.

 Normal termination of Gaussian 09 at Wed Aug 26 08:31:26 2020.
