 Gaussian 09, Revision D.01,
 Gaussian 09:  ES64L-G09RevD.01 24-Apr-2013

 --------------------
 #p B2PLYPD3/Def2QZVP
 --------------------

 ---
 h2o
 ---
 Symbolic Z-matrix:
 Charge =  0 Multiplicity = 1

                         Standard orientation:
 ---------------------------------------------------------------------
 Center     Atomic      Atomic             Coordinates (Angstroms)
 Number     Number       Type             X           Y           Z
 ---------------------------------------------------------------------
      1          8           0        0.000000    0.121798    0.000000
      2          1           0        0.763729   -0.470834    0.000000
      3          1           0       -0.763729   -0.503552    0.000000
 ---------------------------------------------------------------------

 SCF Done:  E(RB2PLYPD3) =  -76.3336561469     A.U. after   10 cycles
 E2(B2PLYPD3) =    -0.9065443454D-01 E(B2PLYPD3) =    -0.76424310581476D+02

 The electronic state is 1-A'.
 Alpha  occ. eigenvalues --  -19.73489  -1.14968  -0.60135  -0.47556  -0.39860
 Alpha virt. eigenvalues --    0.04292   0.10060   0.27662   0.30414   0.30449
 Alpha virt. eigenvalues --    0.35398   0.43496   0.49771   0.56296   0.61516
 Alpha virt. eigenvalues --    0.66119   0.80800   0.93437   0.96265   1.02193

 Mulliken charges:
               1
     1  O   -0.452378
     2  H    0.222144
     3  H    0.230234
 Sum of Mulliken charges =   0.00000

 Dipole moment (field-independent basis, Debye):
    X=              0.0108    Y=             -2.0010    Z=              0.0000  Tot=              2.0010
 Quadrupole moment (field-independent basis, Debye-Ang):
   XX=             -4.3775   YY=             -6.2812   ZZ=             -7.6312
   XY=              0.0528   XZ=              0.0000   YZ=              0.0000

 1\1\GINC-NODE01\SP\RB2PLYPD3-FC\def2QZVP\H2O1\BOITTIER\26-Aug-2020\0\\
 #p B2PLYPD3/Def2QZVP\\h2o\\0,1\O,0,-5.326605,-0.76832,0.910867\H,0,-4.
 368927,-0.694887,1.02021\H,0,-5.609308,0.172058,0.810305\\Version=ES64
 L-G09RevD.01\State=1-A'\HF=-76.3336561\MP2=-76.4243106\RMSD=4.247e-09\
 PG=CS [SG(H2O1)]\\@

 Cherishing children is the mark of a civilized society.

 Normal termination of Gaussian 09 at Wed Aug 26 09:26:47 2020.
