 Gaussian 09, Revision D.01,
 Gaussian 09:  ES64L-G09RevD.01 24-Apr-2013

 --------------------
 #p B2PLYPD3/Def2QZVP
 --------------------

 ---
 h2o
 ---
 Symbolic Z-matrix:
 Charge =  0 Multiplicity = 1

                         Standard orientation:
 ---------------------------------------------------------------------
 Center     Atomic      Atomic             Coordinates (Angstroms)
 Number     Number       Type             X           Y           Z
 ---------------------------------------------------------------------
      1          8           0        0.000000    0.117442    0.000000
      2          1           0        0.746408   -0.488932    0.000000
      3          1           0       -0.746408   -0.450607    0.000000
 ---------------------------------------------------------------------

 SCF Done:  E(RB2PLYPD3) =  -76.3348967831     A.U. after   10 cycles
 E2(B2PLYPD3) =    -0.8973460476D-01 E(B2PLYPD3) =    -0.76424631387819D+02

 The electronic state is 1-A'.
 Alpha  occ. eigenvalues --  -19.73026  -1.16192  -0.61495  -0.47774  -0.40068
 Alpha virt. eigenvalues --    0.04607   0.10311   0.27469   0.30386   0.31040
 Alpha virt. eigenvalues --    0.36476   0.44251   0.50158   0.56518   0.61961
 Alpha virt. eigenvalues --    0.65424   0.81421   0.94154   0.95740   1.04227

 Mulliken charges:
               1
     1  O   -0.433420
     2  H    0.222262
     3  H    0.211158
 Sum of Mulliken charges =   0.00000

 Dipole moment (field-independent basis, Debye):
    X=             -0.0123    Y=             -1.9706    Z=              0.0000  Tot=              1.9706
 Quadrupole moment (field-independent basis, Debye-Ang):
   XX=             -4.4003   YY=             -6.2895   ZZ=             -7.5711
   XY=             -0.0616   XZ=              0.0000   YZ=              0.0000

 1\1\GINC-NODE31\SP\RB2PLYPD3-FC\def2QZVP\H2O1\BOITTIER\26-Aug-2020\0\\
 #p B2PLYPD3/Def2QZVP\\h2o\\0,1\O,0,-5.326605,-0.76292,0.927505\H,0,-4.
 368927,-0.714135,0.854785\H,0,-5.609308,0.104898,0.711228\\Version=ES6
 4L-G09RevD.01\State=1-A'\HF=-76.3348968\MP2=-76.4246314\RMSD=4.564e-09
 \PG=CS [SG(H2O1)]\\@

 WE MIGHT AS WELL ATTEMPT TO INTRODUCE A NEW PLANET

 Normal termination of Gaussian 09 at Wed Aug 26 08:32:03 2020.
