 Gaussian 09, Revision D.01,
 Gaussian 09:  ES64L-G09RevD.01 24-Apr-2013

 --------------------
 #p B2PLYPD3/Def2QZVP
 --------------------

 ---
 h2o
 ---
 Symbolic Z-matrix:
 Charge =  0 Multiplicity = 1

                         Standard orientation:
 ---------------------------------------------------------------------
 Center     Atomic      Atomic             Coordinates (Angstroms)
 Number     Number       Type             X           Y           Z
 ---------------------------------------------------------------------
      1          8           0        0.000000    0.125398    0.000000
      2          1           0        0.722943   -0.522400    0.000000
      3          1           0       -0.722943   -0.480781    0.000000
 ---------------------------------------------------------------------

 SCF Done:  E(RB2PLYPD3) =  -76.3334458129     A.U. after   10 cycles
 E2(B2PLYPD3) =    -0.9016997504D-01 E(B2PLYPD3) =    -0.76423615787933D+02

 The electronic state is 1-A'.
 Alpha  occ. eigenvalues --  -19.73357  -1.16262  -0.60093  -0.48732  -0.40138
 Alpha virt. eigenvalues --    0.04401   0.10342   0.27611   0.30385   0.30416
 Alpha virt. eigenvalues --    0.36912   0.44077   0.49316   0.57267   0.60366
 Alpha virt. eigenvalues --    0.65677   0.81381   0.94675   0.95827   1.02852

 Mulliken charges:
               1
     1  O   -0.428132
     2  H    0.220056
     3  H    0.208076
 Sum of Mulliken charges =   0.00000

 Dipole moment (field-independent basis, Debye):
    X=             -0.0158    Y=             -2.0573    Z=              0.0000  Tot=              2.0573
 Quadrupole moment (field-independent basis, Debye-Ang):
   XX=             -4.6220   YY=             -6.1310   ZZ=             -7.5785
   XY=             -0.0616   XZ=              0.0000   YZ=              0.0000

 1\1\GINC-NODE29\SP\RB2PLYPD3-FC\def2QZVP\H2O1\BOITTIER\26-Aug-2020\0\\
 #p B2PLYPD3/Def2QZVP\\h2o\\0,1\O,0,-5.326605,-0.767508,0.930532\H,0,-4
 .368927,-0.626314,0.858386\H,0,-5.609308,0.090487,0.658461\\Version=ES
 64L-G09RevD.01\State=1-A'\HF=-76.3334458\MP2=-76.4236158\RMSD=5.134e-0
 9\PG=CS [SG(H2O1)]\\@

 MY DESCRIPTION OF EXPERIENCE IS NOT WHAT HAPPENS

 Normal termination of Gaussian 09 at Wed Aug 26 09:07:52 2020.
