 Gaussian 09, Revision D.01,
 Gaussian 09:  ES64L-G09RevD.01 24-Apr-2013

 --------------------
 #p B2PLYPD3/Def2QZVP
 --------------------

 ---
 h2o
 ---
 Symbolic Z-matrix:
 Charge =  0 Multiplicity = 1

                         Standard orientation:
 ---------------------------------------------------------------------
 Center     Atomic      Atomic             Coordinates (Angstroms)
 Number     Number       Type             X           Y           Z
 ---------------------------------------------------------------------
      1          8           0        0.000000    0.114780    0.000000
      2          1           0        0.738697   -0.498615    0.000000
      3          1           0       -0.738697   -0.419621    0.000000
 ---------------------------------------------------------------------

 SCF Done:  E(RB2PLYPD3) =  -76.3334640564     A.U. after   10 cycles
 E2(B2PLYPD3) =    -0.8926474385D-01 E(B2PLYPD3) =    -0.76422728800291D+02

 The electronic state is 1-A'.
 Alpha  occ. eigenvalues --  -19.72757  -1.16861  -0.62294  -0.47808  -0.40175
 Alpha virt. eigenvalues --    0.04750   0.10424   0.27351   0.30352   0.31284
 Alpha virt. eigenvalues --    0.36974   0.44717   0.50418   0.56549   0.62306
 Alpha virt. eigenvalues --    0.65041   0.81700   0.94287   0.95515   1.05051

 Mulliken charges:
               1
     1  O   -0.421449
     2  H    0.223141
     3  H    0.198307
 Sum of Mulliken charges =   0.00000

 Dipole moment (field-independent basis, Debye):
    X=             -0.0248    Y=             -1.9492    Z=              0.0000  Tot=              1.9493
 Quadrupole moment (field-independent basis, Debye-Ang):
   XX=             -4.4001   YY=             -6.2975   ZZ=             -7.5400
   XY=             -0.1273   XZ=              0.0000   YZ=              0.0000

 1\1\GINC-NODE15\SP\RB2PLYPD3-FC\def2QZVP\H2O1\BOITTIER\26-Aug-2020\0\\
 #p B2PLYPD3/Def2QZVP\\h2o\\0,1\O,0,-5.326605,-0.762078,0.923734\H,0,-4
 .368927,-0.709048,0.879393\H,0,-5.609308,0.086339,0.746182\\Version=ES
 64L-G09RevD.01\State=1-A'\HF=-76.3334641\MP2=-76.4227288\RMSD=5.564e-0
 9\PG=CS [SG(H2O1)]\\@

 A MAN IS NEVER SO BRILLIANT AS WHEN HE TAKES THE WORDS RIGHT OUT

 Normal termination of Gaussian 09 at Wed Aug 26 12:24:26 2020.
