 Gaussian 09, Revision D.01,
 Gaussian 09:  ES64L-G09RevD.01 24-Apr-2013

 --------------------
 #p B2PLYPD3/Def2QZVP
 --------------------

 ---
 h2o
 ---
 Symbolic Z-matrix:
 Charge =  0 Multiplicity = 1

                         Standard orientation:
 ---------------------------------------------------------------------
 Center     Atomic      Atomic             Coordinates (Angstroms)
 Number     Number       Type             X           Y           Z
 ---------------------------------------------------------------------
      1          8           0        0.000000    0.124836    0.000000
      2          1           0        0.723612   -0.520826    0.000000
      3          1           0       -0.723612   -0.477864    0.000000
 ---------------------------------------------------------------------

 SCF Done:  E(RB2PLYPD3) =  -76.3335519523     A.U. after   10 cycles
 E2(B2PLYPD3) =    -0.9011345906D-01 E(B2PLYPD3) =    -0.76423665411338D+02

 The electronic state is 1-A'.
 Alpha  occ. eigenvalues --  -19.73324  -1.16304  -0.60213  -0.48689  -0.40142
 Alpha virt. eigenvalues --    0.04422   0.10350   0.27596   0.30383   0.30467
 Alpha virt. eigenvalues --    0.36936   0.44115   0.49363   0.57235   0.60461
 Alpha virt. eigenvalues --    0.65641   0.81405   0.94659   0.95803   1.02981

 Mulliken charges:
               1
     1  O   -0.427698
     2  H    0.220070
     3  H    0.207628
 Sum of Mulliken charges =   0.00000

 Dipole moment (field-independent basis, Debye):
    X=             -0.0162    Y=             -2.0518    Z=              0.0000  Tot=              2.0519
 Quadrupole moment (field-independent basis, Debye-Ang):
   XX=             -4.6109   YY=             -6.1396   ZZ=             -7.5760
   XY=             -0.0639   XZ=              0.0000   YZ=              0.0000

 1\1\GINC-NODE31\SP\RB2PLYPD3-FC\def2QZVP\H2O1\BOITTIER\26-Aug-2020\0\\
 #p B2PLYPD3/Def2QZVP\\h2o\\0,1\O,0,-5.326605,-0.767504,0.929367\H,0,-4
 .368927,-0.627736,0.86762\H,0,-5.609308,0.091852,0.667739\\Version=ES6
 4L-G09RevD.01\State=1-A'\HF=-76.333552\MP2=-76.4236654\RMSD=5.132e-09\
 PG=CS [SG(H2O1)]\\@

 THE WORLD IS MADE UP OF THE WILLS, THE WON'TS, AND THE CANT'S:

 Normal termination of Gaussian 09 at Wed Aug 26 08:52:10 2020.
