 Gaussian 09, Revision D.01,
 Gaussian 09:  ES64L-G09RevD.01 24-Apr-2013

 --------------------
 #p B2PLYPD3/Def2QZVP
 --------------------

 ---
 h2o
 ---
 Symbolic Z-matrix:
 Charge =  0 Multiplicity = 1

                         Standard orientation:
 ---------------------------------------------------------------------
 Center     Atomic      Atomic             Coordinates (Angstroms)
 Number     Number       Type             X           Y           Z
 ---------------------------------------------------------------------
      1          8           0        0.000000    0.114176    0.000000
      2          1           0        0.705884   -0.544733    0.000000
      3          1           0       -0.705884   -0.368673    0.000000
 ---------------------------------------------------------------------

 SCF Done:  E(RB2PLYPD3) =  -76.3229360200     A.U. after   10 cycles
 E2(B2PLYPD3) =    -0.8851439635D-01 E(B2PLYPD3) =    -0.76411450416308D+02

 The electronic state is 1-A'.
 Alpha  occ. eigenvalues --  -19.72336  -1.18580  -0.63155  -0.48471  -0.40467
 Alpha virt. eigenvalues --    0.04863   0.10686   0.27119   0.30276   0.31232
 Alpha virt. eigenvalues --    0.38252   0.45849   0.50342   0.57004   0.62014
 Alpha virt. eigenvalues --    0.64383   0.82185   0.94159   0.95375   1.05299

 Mulliken charges:
               1
     1  O   -0.383225
     2  H    0.224994
     3  H    0.158232
 Sum of Mulliken charges =   0.00000

 Dipole moment (field-independent basis, Debye):
    X=             -0.0590    Y=             -1.9593    Z=              0.0000  Tot=              1.9602
 Quadrupole moment (field-independent basis, Debye-Ang):
   XX=             -4.5402   YY=             -6.1996   ZZ=             -7.4746
   XY=             -0.2702   XZ=              0.0000   YZ=              0.0000

 1\1\GINC-NODE05\SP\RB2PLYPD3-FC\def2QZVP\H2O1\BOITTIER\26-Aug-2020\0\\
 #p B2PLYPD3/Def2QZVP\\h2o\\0,1\O,0,-5.326605,-0.760856,0.926531\H,0,-4
 .368927,-0.66448,0.849095\H,0,-5.609308,0.022227,0.730891\\Version=ES6
 4L-G09RevD.01\State=1-A'\HF=-76.322936\MP2=-76.4114504\RMSD=6.626e-09\
 PG=CS [SG(H2O1)]\\@

 EVERY WORD THAT YOU WRITE IS A BLOW THAT SMITES THE DEVIL.

 Normal termination of Gaussian 09 at Wed Aug 26 10:01:18 2020.
