 Gaussian 09, Revision D.01,
 Gaussian 09:  ES64L-G09RevD.01 24-Apr-2013

 --------------------
 #p B2PLYPD3/Def2QZVP
 --------------------

 ---
 h2o
 ---
 Symbolic Z-matrix:
 Charge =  0 Multiplicity = 1

                         Standard orientation:
 ---------------------------------------------------------------------
 Center     Atomic      Atomic             Coordinates (Angstroms)
 Number     Number       Type             X           Y           Z
 ---------------------------------------------------------------------
      1          8           0        0.000000    0.124891    0.000000
      2          1           0        0.740296   -0.497922    0.000000
      3          1           0       -0.740296   -0.501202    0.000000
 ---------------------------------------------------------------------

 SCF Done:  E(RB2PLYPD3) =  -76.3339043692     A.U. after   10 cycles
 E2(B2PLYPD3) =    -0.9049030391D-01 E(B2PLYPD3) =    -0.76424394673077D+02

 The electronic state is 1-A'.
 Alpha  occ. eigenvalues --  -19.73487  -1.15579  -0.59901  -0.48280  -0.40006
 Alpha virt. eigenvalues --    0.04325   0.10199   0.27669   0.30333   0.30417
 Alpha virt. eigenvalues --    0.36203   0.43724   0.49380   0.56896   0.60684
 Alpha virt. eigenvalues --    0.65967   0.81129   0.94173   0.96076   1.02269

 Mulliken charges:
               1
     1  O   -0.440008
     2  H    0.219569
     3  H    0.220439
 Sum of Mulliken charges =   0.00000

 Dipole moment (field-independent basis, Debye):
    X=              0.0012    Y=             -2.0429    Z=              0.0000  Tot=              2.0429
 Quadrupole moment (field-independent basis, Debye-Ang):
   XX=             -4.5339   YY=             -6.1830   ZZ=             -7.6069
   XY=              0.0050   XZ=              0.0000   YZ=              0.0000

 1\1\GINC-NODE09\SP\RB2PLYPD3-FC\def2QZVP\H2O1\BOITTIER\26-Aug-2020\0\\
 #p B2PLYPD3/Def2QZVP\\h2o\\0,1\O,0,-5.326605,-0.766392,0.932663\H,0,-4
 .368927,-0.670211,0.835011\H,0,-5.609308,0.11652,0.648804\\Version=ES6
 4L-G09RevD.01\State=1-A'\HF=-76.3339044\MP2=-76.4243947\RMSD=4.519e-09
 \PG=CS [SG(H2O1)]\\@

 HAPPINESS IS NOT HAVING WHAT YOU WANT --

 Normal termination of Gaussian 09 at Wed Aug 26 09:18:38 2020.
