 Gaussian 09, Revision D.01,
 Gaussian 09:  ES64L-G09RevD.01 24-Apr-2013

 --------------------
 #p B2PLYPD3/Def2QZVP
 --------------------

 ---
 h2o
 ---
 Symbolic Z-matrix:
 Charge =  0 Multiplicity = 1

                         Standard orientation:
 ---------------------------------------------------------------------
 Center     Atomic      Atomic             Coordinates (Angstroms)
 Number     Number       Type             X           Y           Z
 ---------------------------------------------------------------------
      1          8           0        0.000000    0.109790    0.000000
      2          1           0        0.787593   -0.439355    0.000000
      3          1           0       -0.787593   -0.438969    0.000000
 ---------------------------------------------------------------------

 SCF Done:  E(RB2PLYPD3) =  -76.3345193220     A.U. after   10 cycles
 E2(B2PLYPD3) =    -0.8989706791D-01 E(B2PLYPD3) =    -0.76424416389918D+02

 The electronic state is 1-A'.
 Alpha  occ. eigenvalues --  -19.72912  -1.15226  -0.62211  -0.46394  -0.39815
 Alpha virt. eigenvalues --    0.04612   0.10099   0.27432   0.30433   0.31537
 Alpha virt. eigenvalues --    0.34870   0.43907   0.51437   0.55416   0.63884
 Alpha virt. eigenvalues --    0.65568   0.80618   0.93371   0.96175   1.05072

 Mulliken charges:
               1
     1  O   -0.457080
     2  H    0.228590
     3  H    0.228490
 Sum of Mulliken charges =   0.00000

 Dipole moment (field-independent basis, Debye):
    X=             -0.0001    Y=             -1.8723    Z=              0.0000  Tot=              1.8723
 Quadrupole moment (field-independent basis, Debye-Ang):
   XX=             -4.0947   YY=             -6.4906   ZZ=             -7.6078
   XY=             -0.0007   XZ=              0.0000   YZ=              0.0000

 1\1\GINC-NODE32\SP\RB2PLYPD3-FC\def2QZVP\H2O1\BOITTIER\26-Aug-2020\0\\
 #p B2PLYPD3/Def2QZVP\\h2o\\0,1\O,0,-5.326605,-0.760098,0.912184\H,0,-4
 .368927,-0.809589,0.959799\H,0,-5.609308,0.155197,0.850915\\Version=ES
 64L-G09RevD.01\State=1-A'\HF=-76.3345193\MP2=-76.4244164\RMSD=3.677e-0
 9\PG=CS [SG(H2O1)]\\@

 "THE TIME HAS COME", THE WALRUS SAID,

 Normal termination of Gaussian 09 at Wed Aug 26 09:20:47 2020.
