 Gaussian 09, Revision D.01,
 Gaussian 09:  ES64L-G09RevD.01 24-Apr-2013

 --------------------
 #p B2PLYPD3/Def2QZVP
 --------------------

 ---
 h2o
 ---
 Symbolic Z-matrix:
 Charge =  0 Multiplicity = 1

                         Standard orientation:
 ---------------------------------------------------------------------
 Center     Atomic      Atomic             Coordinates (Angstroms)
 Number     Number       Type             X           Y           Z
 ---------------------------------------------------------------------
      1          8           0        0.000000    0.124679    0.000000
      2          1           0        0.757750   -0.468098    0.000000
      3          1           0       -0.757750   -0.529333    0.000000
 ---------------------------------------------------------------------

 SCF Done:  E(RB2PLYPD3) =  -76.3325066600     A.U. after   10 cycles
 E2(B2PLYPD3) =    -0.9087279904D-01 E(B2PLYPD3) =    -0.76423379459007D+02

 The electronic state is 1-A'.
 Alpha  occ. eigenvalues --  -19.73627  -1.14902  -0.59622  -0.47816  -0.39869
 Alpha virt. eigenvalues --    0.04191   0.10043   0.27721   0.30085   0.30451
 Alpha virt. eigenvalues --    0.35475   0.43417   0.49447   0.56483   0.60999
 Alpha virt. eigenvalues --    0.66245   0.80771   0.93396   0.96360   1.01552

 Mulliken charges:
               1
     1  O   -0.451094
     2  H    0.218101
     3  H    0.232993
 Sum of Mulliken charges =   0.00000

 Dipole moment (field-independent basis, Debye):
    X=              0.0214    Y=             -2.0303    Z=              0.0000  Tot=              2.0304
 Quadrupole moment (field-independent basis, Debye-Ang):
   XX=             -4.4471   YY=             -6.2278   ZZ=             -7.6381
   XY=              0.0964   XZ=              0.0000   YZ=              0.0000

 1\1\GINC-NODE23\SP\RB2PLYPD3-FC\def2QZVP\H2O1\BOITTIER\26-Aug-2020\0\\
 #p B2PLYPD3/Def2QZVP\\h2o\\0,1\O,0,-5.326605,-0.767777,0.928214\H,0,-4
 .368927,-0.690212,0.879163\H,0,-5.609308,0.158694,0.67593\\Version=ES6
 4L-G09RevD.01\State=1-A'\HF=-76.3325067\MP2=-76.4233795\RMSD=4.711e-09
 \PG=CS [SG(H2O1)]\\@

 ALMOST ALL THE CHEMICAL PROCESSES WHICH OCCUR IN NATURE,

 Normal termination of Gaussian 09 at Wed Aug 26 08:44:57 2020.
