 Gaussian 09, Revision D.01,
 Gaussian 09:  ES64L-G09RevD.01 24-Apr-2013

 --------------------
 #p B2PLYPD3/Def2QZVP
 --------------------

 ---
 h2o
 ---
 Symbolic Z-matrix:
 Charge =  0 Multiplicity = 1

                         Standard orientation:
 ---------------------------------------------------------------------
 Center     Atomic      Atomic             Coordinates (Angstroms)
 Number     Number       Type             X           Y           Z
 ---------------------------------------------------------------------
      1          8           0        0.000000    0.117853    0.000000
      2          1           0        0.788999   -0.425733    0.000000
      3          1           0       -0.788999   -0.517092    0.000000
 ---------------------------------------------------------------------

 SCF Done:  E(RB2PLYPD3) =  -76.3316096116     A.U. after   10 cycles
 E2(B2PLYPD3) =    -0.9082249891D-01 E(B2PLYPD3) =    -0.76422432110537D+02

 The electronic state is 1-A'.
 Alpha  occ. eigenvalues --  -19.73447  -1.14384  -0.60424  -0.46730  -0.39699
 Alpha virt. eigenvalues --    0.04219   0.09920   0.27623   0.30407   0.30482
 Alpha virt. eigenvalues --    0.34579   0.43315   0.50403   0.55603   0.62560
 Alpha virt. eigenvalues --    0.66210   0.80257   0.92560   0.96511   1.02054

 Mulliken charges:
               1
     1  O   -0.465462
     2  H    0.222178
     3  H    0.243284
 Sum of Mulliken charges =   0.00000

 Dipole moment (field-independent basis, Debye):
    X=              0.0265    Y=             -1.9484    Z=              0.0000  Tot=              1.9486
 Quadrupole moment (field-independent basis, Debye-Ang):
   XX=             -4.1969   YY=             -6.3902   ZZ=             -7.6571
   XY=              0.1566   XZ=              0.0000   YZ=              0.0000

 1\1\GINC-NODE09\SP\RB2PLYPD3-FC\def2QZVP\H2O1\BOITTIER\26-Aug-2020\0\\
 #p B2PLYPD3/Def2QZVP\\h2o\\0,1\O,0,-5.326605,-0.765293,0.917819\H,0,-4
 .368927,-0.767834,0.947014\H,0,-5.609308,0.196559,0.774309\\Version=ES
 64L-G09RevD.01\State=1-A'\HF=-76.3316096\MP2=-76.4224321\RMSD=5.146e-0
 9\PG=CS [SG(H2O1)]\\@

 QED = W**5 (WHICH WAS WHAT WE WANTED)

 Normal termination of Gaussian 09 at Wed Aug 26 12:44:26 2020.
