 Gaussian 09, Revision D.01,
 Gaussian 09:  ES64L-G09RevD.01 24-Apr-2013

 --------------------
 #p B2PLYPD3/Def2QZVP
 --------------------

 ---
 h2o
 ---
 Symbolic Z-matrix:
 Charge =  0 Multiplicity = 1

                         Standard orientation:
 ---------------------------------------------------------------------
 Center     Atomic      Atomic             Coordinates (Angstroms)
 Number     Number       Type             X           Y           Z
 ---------------------------------------------------------------------
      1          8           0        0.000000    0.121983    0.000000
      2          1           0        0.757373   -0.469110    0.000000
      3          1           0       -0.757373   -0.506756    0.000000
 ---------------------------------------------------------------------

 SCF Done:  E(RB2PLYPD3) =  -76.3339089611     A.U. after   10 cycles
 E2(B2PLYPD3) =    -0.9052749353D-01 E(B2PLYPD3) =    -0.76424436454623D+02

 The electronic state is 1-A'.
 Alpha  occ. eigenvalues --  -19.73443  -1.15210  -0.60226  -0.47718  -0.39909
 Alpha virt. eigenvalues --    0.04330   0.10115   0.27644   0.30436   0.30450
 Alpha virt. eigenvalues --    0.35675   0.43620   0.49723   0.56433   0.61397
 Alpha virt. eigenvalues --    0.66018   0.80937   0.93631   0.96184   1.02376

 Mulliken charges:
               1
     1  O   -0.448050
     2  H    0.219230
     3  H    0.228820
 Sum of Mulliken charges =   0.00000

 Dipole moment (field-independent basis, Debye):
    X=              0.0126    Y=             -2.0064    Z=              0.0000  Tot=              2.0064
 Quadrupole moment (field-independent basis, Debye-Ang):
   XX=             -4.4109   YY=             -6.2623   ZZ=             -7.6204
   XY=              0.0601   XZ=              0.0000   YZ=              0.0000

 1\1\GINC-NODE06\SP\RB2PLYPD3-FC\def2QZVP\H2O1\BOITTIER\26-Aug-2020\0\\
 #p B2PLYPD3/Def2QZVP\\h2o\\0,1\O,0,-5.326605,-0.766459,0.926303\H,0,-4
 .368927,-0.701256,0.886233\H,0,-5.609308,0.148651,0.699192\\Version=ES
 64L-G09RevD.01\State=1-A'\HF=-76.333909\MP2=-76.4244365\RMSD=4.394e-09
 \PG=CS [SG(H2O1)]\\@

 ... SUBJECTS WHICH DISCLOSE THEIR FULL POWER, MEANING AND BEAUTY AS SOON

 Normal termination of Gaussian 09 at Wed Aug 26 08:30:29 2020.
