 Gaussian 09, Revision D.01,
 Gaussian 09:  ES64L-G09RevD.01 24-Apr-2013

 --------------------
 #p B2PLYPD3/Def2QZVP
 --------------------

 ---
 h2o
 ---
 Symbolic Z-matrix:
 Charge =  0 Multiplicity = 1

                         Standard orientation:
 ---------------------------------------------------------------------
 Center     Atomic      Atomic             Coordinates (Angstroms)
 Number     Number       Type             X           Y           Z
 ---------------------------------------------------------------------
      1          8           0        0.000000    0.120317    0.000000
      2          1           0        0.745685   -0.486449    0.000000
      3          1           0       -0.745685   -0.476090    0.000000
 ---------------------------------------------------------------------

 SCF Done:  E(RB2PLYPD3) =  -76.3348847298     A.U. after   10 cycles
 E2(B2PLYPD3) =    -0.9005210806D-01 E(B2PLYPD3) =    -0.76424936837875D+02

 The electronic state is 1-A'.
 Alpha  occ. eigenvalues --  -19.73220  -1.15886  -0.60844  -0.47937  -0.40031
 Alpha virt. eigenvalues --    0.04494   0.10258   0.27551   0.30402   0.30773
 Alpha virt. eigenvalues --    0.36320   0.44003   0.49845   0.56639   0.61478
 Alpha virt. eigenvalues --    0.65667   0.81286   0.94133   0.95882   1.03429

 Mulliken charges:
               1
     1  O   -0.437471
     2  H    0.220175
     3  H    0.217296
 Sum of Mulliken charges =   0.00000

 Dipole moment (field-independent basis, Debye):
    X=             -0.0035    Y=             -1.9980    Z=              0.0000  Tot=              1.9980
 Quadrupole moment (field-independent basis, Debye-Ang):
   XX=             -4.4438   YY=             -6.2536   ZZ=             -7.5877
   XY=             -0.0164   XZ=              0.0000   YZ=              0.0000

 1\1\GINC-NODE26\SP\RB2PLYPD3-FC\def2QZVP\H2O1\BOITTIER\26-Aug-2020\0\\
 #p B2PLYPD3/Def2QZVP\\h2o\\0,1\O,0,-5.326605,-0.766081,0.923108\H,0,-4
 .368927,-0.683216,0.909013\H,0,-5.609308,0.124549,0.726626\\Version=ES
 64L-G09RevD.01\State=1-A'\HF=-76.3348847\MP2=-76.4249368\RMSD=4.347e-0
 9\PG=CS [SG(H2O1)]\\@

 ORIGINALITY CONSISTS NOT IN SAYING WHAT NO ONE HAS EVER SAID BEFORE,

 Normal termination of Gaussian 09 at Wed Aug 26 08:32:57 2020.
