 Gaussian 09, Revision D.01,
 Gaussian 09:  ES64L-G09RevD.01 24-Apr-2013

 --------------------
 #p B2PLYPD3/Def2QZVP
 --------------------

 ---
 h2o
 ---
 Symbolic Z-matrix:
 Charge =  0 Multiplicity = 1

                         Standard orientation:
 ---------------------------------------------------------------------
 Center     Atomic      Atomic             Coordinates (Angstroms)
 Number     Number       Type             X           Y           Z
 ---------------------------------------------------------------------
      1          8           0        0.000000    0.115214    0.000000
      2          1           0        0.758611   -0.470370    0.000000
      3          1           0       -0.758611   -0.451343    0.000000
 ---------------------------------------------------------------------

 SCF Done:  E(RB2PLYPD3) =  -76.3352190492     A.U. after   10 cycles
 E2(B2PLYPD3) =    -0.8976727030D-01 E(B2PLYPD3) =    -0.76424986319457D+02

 The electronic state is 1-A'.
 Alpha  occ. eigenvalues --  -19.72994  -1.15906  -0.61732  -0.47369  -0.39996
 Alpha virt. eigenvalues --    0.04621   0.10250   0.27459   0.30399   0.31192
 Alpha virt. eigenvalues --    0.36024   0.44148   0.50489   0.56195   0.62511
 Alpha virt. eigenvalues --    0.65457   0.81256   0.93915   0.95828   1.04490

 Mulliken charges:
               1
     1  O   -0.440099
     2  H    0.222723
     3  H    0.217376
 Sum of Mulliken charges =   0.00000

 Dipole moment (field-independent basis, Debye):
    X=             -0.0057    Y=             -1.9424    Z=              0.0000  Tot=              1.9424
 Quadrupole moment (field-independent basis, Debye-Ang):
   XX=             -4.3112   YY=             -6.3492   ZZ=             -7.5811
   XY=             -0.0316   XZ=              0.0000   YZ=              0.0000

 1\1\GINC-NODE21\SP\RB2PLYPD3-FC\def2QZVP\H2O1\BOITTIER\26-Aug-2020\0\\
 #p B2PLYPD3/Def2QZVP\\h2o\\0,1\O,0,-5.326605,-0.763431,0.918146\H,0,-4
 .368927,-0.73103,0.932402\H,0,-5.609308,0.129975,0.782563\\Version=ES6
 4L-G09RevD.01\State=1-A'\HF=-76.335219\MP2=-76.4249863\RMSD=4.126e-09\
 PG=CS [SG(H2O1)]\\@

 GARLIC THEN HAVE POWER TO SAVE FROM DEATH

 Normal termination of Gaussian 09 at Wed Aug 26 11:46:39 2020.
