 Gaussian 09, Revision D.01,
 Gaussian 09:  ES64L-G09RevD.01 24-Apr-2013

 --------------------
 #p B2PLYPD3/Def2QZVP
 --------------------

 ---
 h2o
 ---
 Symbolic Z-matrix:
 Charge =  0 Multiplicity = 1

                         Standard orientation:
 ---------------------------------------------------------------------
 Center     Atomic      Atomic             Coordinates (Angstroms)
 Number     Number       Type             X           Y           Z
 ---------------------------------------------------------------------
      1          8           0        0.000000    0.123247    0.000000
      2          1           0        0.719354   -0.526425    0.000000
      3          1           0       -0.719354   -0.459553    0.000000
 ---------------------------------------------------------------------

 SCF Done:  E(RB2PLYPD3) =  -76.3330447853     A.U. after   10 cycles
 E2(B2PLYPD3) =    -0.8982451840D-01 E(B2PLYPD3) =    -0.76422869303646D+02

 The electronic state is 1-A'.
 Alpha  occ. eigenvalues --  -19.73165  -1.16700  -0.60666  -0.48713  -0.40202
 Alpha virt. eigenvalues --    0.04506   0.10423   0.27521   0.30365   0.30624
 Alpha virt. eigenvalues --    0.37258   0.44394   0.49492   0.57251   0.60658
 Alpha virt. eigenvalues --    0.65414   0.81555   0.94705   0.95658   1.03551

 Mulliken charges:
               1
     1  O   -0.421289
     2  H    0.220823
     3  H    0.200466
 Sum of Mulliken charges =   0.00000

 Dipole moment (field-independent basis, Debye):
    X=             -0.0248    Y=             -2.0395    Z=              0.0000  Tot=              2.0396
 Quadrupole moment (field-independent basis, Debye-Ang):
   XX=             -4.6076   YY=             -6.1464   ZZ=             -7.5577
   XY=             -0.0996   XZ=              0.0000   YZ=              0.0000

 1\1\GINC-NODE22\SP\RB2PLYPD3-FC\def2QZVP\H2O1\BOITTIER\26-Aug-2020\0\\
 #p B2PLYPD3/Def2QZVP\\h2o\\0,1\O,0,-5.326605,-0.767294,0.92635\H,0,-4.
 368927,-0.622076,0.890177\H,0,-5.609308,0.082823,0.692883\\Version=ES6
 4L-G09RevD.01\State=1-A'\HF=-76.3330448\MP2=-76.4228693\RMSD=5.563e-09
 \PG=CS [SG(H2O1)]\\@

 THE ENLIGHTENED ONE, BECAUSE HE SAW MANKIND DROWNING

 Normal termination of Gaussian 09 at Wed Aug 26 08:46:08 2020.
