 Gaussian 09, Revision D.01,
 Gaussian 09:  ES64L-G09RevD.01 24-Apr-2013

 --------------------
 #p B2PLYPD3/Def2QZVP
 --------------------

 ---
 h2o
 ---
 Symbolic Z-matrix:
 Charge =  0 Multiplicity = 1

                         Standard orientation:
 ---------------------------------------------------------------------
 Center     Atomic      Atomic             Coordinates (Angstroms)
 Number     Number       Type             X           Y           Z
 ---------------------------------------------------------------------
      1          8           0        0.000000    0.118136    0.000000
      2          1           0        0.773270   -0.447657    0.000000
      3          1           0       -0.773270   -0.497435    0.000000
 ---------------------------------------------------------------------

 SCF Done:  E(RB2PLYPD3) =  -76.3338475528     A.U. after   10 cycles
 E2(B2PLYPD3) =    -0.9045509728D-01 E(B2PLYPD3) =    -0.76424302650116D+02

 The electronic state is 1-A'.
 Alpha  occ. eigenvalues --  -19.73329  -1.14976  -0.60733  -0.47146  -0.39830
 Alpha virt. eigenvalues --    0.04372   0.10059   0.27590   0.30449   0.30694
 Alpha virt. eigenvalues --    0.35200   0.43594   0.50245   0.55974   0.62256
 Alpha virt. eigenvalues --    0.65968   0.80729   0.93252   0.96245   1.02823

 Mulliken charges:
               1
     1  O   -0.454961
     2  H    0.221275
     3  H    0.233686
 Sum of Mulliken charges =   0.00000

 Dipole moment (field-independent basis, Debye):
    X=              0.0152    Y=             -1.9612    Z=              0.0000  Tot=              1.9612
 Quadrupole moment (field-independent basis, Debye-Ang):
   XX=             -4.2795   YY=             -6.3504   ZZ=             -7.6275
   XY=              0.0832   XZ=              0.0000   YZ=              0.0000

 1\1\GINC-NODE01\SP\RB2PLYPD3-FC\def2QZVP\H2O1\BOITTIER\26-Aug-2020\0\\
 #p B2PLYPD3/Def2QZVP\\h2o\\0,1\O,0,-5.326605,-0.765302,0.919189\H,0,-4
 .368927,-0.739946,0.935889\H,0,-5.609308,0.168818,0.76307\\Version=ES6
 4L-G09RevD.01\State=1-A'\HF=-76.3338476\MP2=-76.4243027\RMSD=4.364e-09
 \PG=CS [SG(H2O1)]\\@

 WHEN ALL ELSE FAILS, LOOK AT THE SCHRODINGER EQUATION.

 Normal termination of Gaussian 09 at Wed Aug 26 10:02:50 2020.
