 Gaussian 09, Revision D.01,
 Gaussian 09:  ES64L-G09RevD.01 24-Apr-2013

 --------------------
 #p B2PLYPD3/Def2QZVP
 --------------------

 ---
 h2o
 ---
 Symbolic Z-matrix:
 Charge =  0 Multiplicity = 1

                         Standard orientation:
 ---------------------------------------------------------------------
 Center     Atomic      Atomic             Coordinates (Angstroms)
 Number     Number       Type             X           Y           Z
 ---------------------------------------------------------------------
      1          8           0        0.000000    0.116188    0.000000
      2          1           0        0.787918   -0.428932    0.000000
      3          1           0       -0.787918   -0.500574    0.000000
 ---------------------------------------------------------------------

 SCF Done:  E(RB2PLYPD3) =  -76.3327222551     A.U. after   10 cycles
 E2(B2PLYPD3) =    -0.9060085453D-01 E(B2PLYPD3) =    -0.76423323109669D+02

 The electronic state is 1-A'.
 Alpha  occ. eigenvalues --  -19.73331  -1.14585  -0.60807  -0.46690  -0.39730
 Alpha virt. eigenvalues --    0.04318   0.09968   0.27582   0.30471   0.30695
 Alpha virt. eigenvalues --    0.34665   0.43441   0.50600   0.55594   0.62805
 Alpha virt. eigenvalues --    0.66066   0.80371   0.92812   0.96419   1.02658

 Mulliken charges:
               1
     1  O   -0.463516
     2  H    0.223229
     3  H    0.240287
 Sum of Mulliken charges =   0.00000

 Dipole moment (field-independent basis, Debye):
    X=              0.0203    Y=             -1.9337    Z=              0.0000  Tot=              1.9338
 Quadrupole moment (field-independent basis, Debye-Ang):
   XX=             -4.1795   YY=             -6.4103   ZZ=             -7.6451
   XY=              0.1236   XZ=              0.0000   YZ=              0.0000

 1\1\GINC-NODE20\SP\RB2PLYPD3-FC\def2QZVP\H2O1\BOITTIER\26-Aug-2020\0\\
 #p B2PLYPD3/Def2QZVP\\h2o\\0,1\O,0,-5.326605,-0.763427,0.922245\H,0,-4
 .368927,-0.782074,0.900431\H,0,-5.609308,0.180948,0.750647\\Version=ES
 64L-G09RevD.01\State=1-A'\HF=-76.3327223\MP2=-76.4233231\RMSD=4.723e-0
 9\PG=CS [SG(H2O1)]\\@

    THE DOUGHNUT CREED

 Normal termination of Gaussian 09 at Wed Aug 26 08:33:32 2020.
