 Gaussian 09, Revision D.01,
 Gaussian 09:  ES64L-G09RevD.01 24-Apr-2013

 --------------------
 #p B2PLYPD3/Def2QZVP
 --------------------

 ---
 h2o
 ---
 Symbolic Z-matrix:
 Charge =  0 Multiplicity = 1

                         Standard orientation:
 ---------------------------------------------------------------------
 Center     Atomic      Atomic             Coordinates (Angstroms)
 Number     Number       Type             X           Y           Z
 ---------------------------------------------------------------------
      1          8           0        0.000000    0.125077    0.000000
      2          1           0        0.755056   -0.474263    0.000000
      3          1           0       -0.755056   -0.526354    0.000000
 ---------------------------------------------------------------------

 SCF Done:  E(RB2PLYPD3) =  -76.3326971820     A.U. after   10 cycles
 E2(B2PLYPD3) =    -0.9085791334D-01 E(B2PLYPD3) =    -0.76423555095371D+02

 The electronic state is 1-A'.
 Alpha  occ. eigenvalues --  -19.73631  -1.14962  -0.59585  -0.47905  -0.39885
 Alpha virt. eigenvalues --    0.04198   0.10058   0.27725   0.30094   0.30448
 Alpha virt. eigenvalues --    0.35554   0.43430   0.49399   0.56560   0.60891
 Alpha virt. eigenvalues --    0.66237   0.80812   0.93520   0.96336   1.01565

 Mulliken charges:
               1
     1  O   -0.449888
     2  H    0.218565
     3  H    0.231323
 Sum of Mulliken charges =   0.00000

 Dipole moment (field-independent basis, Debye):
    X=              0.0184    Y=             -2.0356    Z=              0.0000  Tot=              2.0357
 Quadrupole moment (field-independent basis, Debye-Ang):
   XX=             -4.4658   YY=             -6.2166   ZZ=             -7.6356
   XY=              0.0815   XZ=              0.0000   YZ=              0.0000

 1\1\GINC-NODE40\SP\RB2PLYPD3-FC\def2QZVP\H2O1\BOITTIER\26-Aug-2020\0\\
 #p B2PLYPD3/Def2QZVP\\h2o\\0,1\O,0,-5.326605,-0.767056,0.931262\H,0,-4
 .368927,-0.691893,0.850509\H,0,-5.609308,0.148835,0.656137\\Version=ES
 64L-G09RevD.01\State=1-A'\HF=-76.3326972\MP2=-76.4235551\RMSD=4.622e-0
 9\PG=CS [SG(H2O1)]\\@

 I DO NOT KNOW WHAT I MAY APPEAR TO THE WORLD; BUT TO MYSELF

 Normal termination of Gaussian 09 at Wed Aug 26 08:43:38 2020.
