 Gaussian 09, Revision D.01,
 Gaussian 09:  ES64L-G09RevD.01 24-Apr-2013

 --------------------
 #p B2PLYPD3/Def2QZVP
 --------------------

 ---
 h2o
 ---
 Symbolic Z-matrix:
 Charge =  0 Multiplicity = 1

                         Standard orientation:
 ---------------------------------------------------------------------
 Center     Atomic      Atomic             Coordinates (Angstroms)
 Number     Number       Type             X           Y           Z
 ---------------------------------------------------------------------
      1          8           0        0.000000    0.112735    0.000000
      2          1           0        0.716145   -0.530496    0.000000
      3          1           0       -0.716145   -0.371384    0.000000
 ---------------------------------------------------------------------

 SCF Done:  E(RB2PLYPD3) =  -76.3256807560     A.U. after   10 cycles
 E2(B2PLYPD3) =    -0.8857071098D-01 E(B2PLYPD3) =    -0.76414251466972D+02

 The electronic state is 1-A'.
 Alpha  occ. eigenvalues --  -19.72351  -1.18233  -0.63293  -0.48166  -0.40402
 Alpha virt. eigenvalues --    0.04891   0.10629   0.27146   0.30288   0.31365
 Alpha virt. eigenvalues --    0.37948   0.45643   0.50551   0.56791   0.62383
 Alpha virt. eigenvalues --    0.64451   0.82138   0.94176   0.95369   1.05444

 Mulliken charges:
               1
     1  O   -0.391480
     2  H    0.224889
     3  H    0.166591
 Sum of Mulliken charges =   0.00000

 Dipole moment (field-independent basis, Debye):
    X=             -0.0510    Y=             -1.9403    Z=              0.0000  Tot=              1.9410
 Quadrupole moment (field-independent basis, Debye-Ang):
   XX=             -4.4753   YY=             -6.2474   ZZ=             -7.4848
   XY=             -0.2503   XZ=              0.0000   YZ=              0.0000

 1\1\GINC-NODE29\SP\RB2PLYPD3-FC\def2QZVP\H2O1\BOITTIER\26-Aug-2020\0\\
 #p B2PLYPD3/Def2QZVP\\h2o\\0,1\O,0,-5.326605,-0.760334,0.924789\H,0,-4
 .368927,-0.687846,0.859915\H,0,-5.609308,0.037229,0.748133\\Version=ES
 64L-G09RevD.01\State=1-A'\HF=-76.3256808\MP2=-76.4142515\RMSD=6.774e-0
 9\PG=CS [SG(H2O1)]\\@

 MANHOOD BEGINS BY TRYING TO SHAVE FACE,

 Normal termination of Gaussian 09 at Wed Aug 26 09:24:23 2020.
