 Gaussian 09, Revision D.01,
 Gaussian 09:  ES64L-G09RevD.01 24-Apr-2013

 --------------------
 #p B2PLYPD3/Def2QZVP
 --------------------

 ---
 h2o
 ---
 Symbolic Z-matrix:
 Charge =  0 Multiplicity = 1

                         Standard orientation:
 ---------------------------------------------------------------------
 Center     Atomic      Atomic             Coordinates (Angstroms)
 Number     Number       Type             X           Y           Z
 ---------------------------------------------------------------------
      1          8           0        0.000000    0.113625    0.000000
      2          1           0        0.762498   -0.467036    0.000000
      3          1           0       -0.762498   -0.441967    0.000000
 ---------------------------------------------------------------------

 SCF Done:  E(RB2PLYPD3) =  -76.3351617574     A.U. after   10 cycles
 E2(B2PLYPD3) =    -0.8968604435D-01 E(B2PLYPD3) =    -0.76424847801698D+02

 The electronic state is 1-A'.
 Alpha  occ. eigenvalues --  -19.72923  -1.15912  -0.62003  -0.47192  -0.39985
 Alpha virt. eigenvalues --    0.04657   0.10246   0.27432   0.30398   0.31319
 Alpha virt. eigenvalues --    0.35917   0.44193   0.50711   0.56058   0.62842
 Alpha virt. eigenvalues --    0.65392   0.81228   0.93862   0.95826   1.04815

 Mulliken charges:
               1
     1  O   -0.440935
     2  H    0.223999
     3  H    0.216936
 Sum of Mulliken charges =   0.00000

 Dipole moment (field-independent basis, Debye):
    X=             -0.0073    Y=             -1.9248    Z=              0.0000  Tot=              1.9248
 Quadrupole moment (field-independent basis, Debye-Ang):
   XX=             -4.2707   YY=             -6.3782   ZZ=             -7.5793
   XY=             -0.0422   XZ=              0.0000   YZ=              0.0000

 1\1\GINC-NODE28\SP\RB2PLYPD3-FC\def2QZVP\H2O1\BOITTIER\26-Aug-2020\0\\
 #p B2PLYPD3/Def2QZVP\\h2o\\0,1\O,0,-5.326605,-0.762616,0.915442\H,0,-4
 .368927,-0.745265,0.948933\H,0,-5.609308,0.131172,0.809105\\Version=ES
 64L-G09RevD.01\State=1-A'\HF=-76.3351618\MP2=-76.4248478\RMSD=4.127e-0
 9\PG=CS [SG(H2O1)]\\@

 AN AIRPLANE IS A COLLECTION OF SPARE PARTS

 Normal termination of Gaussian 09 at Wed Aug 26 12:00:37 2020.
