 Gaussian 09, Revision D.01,
 Gaussian 09:  ES64L-G09RevD.01 24-Apr-2013

 --------------------
 #p B2PLYPD3/Def2QZVP
 --------------------

 ---
 h2o
 ---
 Symbolic Z-matrix:
 Charge =  0 Multiplicity = 1

                         Standard orientation:
 ---------------------------------------------------------------------
 Center     Atomic      Atomic             Coordinates (Angstroms)
 Number     Number       Type             X           Y           Z
 ---------------------------------------------------------------------
      1          8           0        0.000000    0.117902    0.000000
      2          1           0        0.739236   -0.496312    0.000000
      3          1           0       -0.739236   -0.446900    0.000000
 ---------------------------------------------------------------------

 SCF Done:  E(RB2PLYPD3) =  -76.3345278388     A.U. after   10 cycles
 E2(B2PLYPD3) =    -0.8962386655D-01 E(B2PLYPD3) =    -0.76424151705399D+02

 The electronic state is 1-A'.
 Alpha  occ. eigenvalues --  -19.72986  -1.16458  -0.61542  -0.47970  -0.40122
 Alpha virt. eigenvalues --    0.04631   0.10363   0.27449   0.30373   0.31035
 Alpha virt. eigenvalues --    0.36779   0.44389   0.50071   0.56676   0.61781
 Alpha virt. eigenvalues --    0.65330   0.81538   0.94316   0.95650   1.04342

 Mulliken charges:
               1
     1  O   -0.428187
     2  H    0.221476
     3  H    0.206711
 Sum of Mulliken charges =   0.00000

 Dipole moment (field-independent basis, Debye):
    X=             -0.0163    Y=             -1.9789    Z=              0.0000  Tot=              1.9790
 Quadrupole moment (field-independent basis, Debye-Ang):
   XX=             -4.4406   YY=             -6.2645   ZZ=             -7.5603
   XY=             -0.0784   XZ=              0.0000   YZ=              0.0000

 1\1\GINC-NODE14\SP\RB2PLYPD3-FC\def2QZVP\H2O1\BOITTIER\26-Aug-2020\0\\
 #p B2PLYPD3/Def2QZVP\\h2o\\0,1\O,0,-5.326605,-0.764324,0.92349\H,0,-4.
 368927,-0.688327,0.895093\H,0,-5.609308,0.101558,0.734285\\Version=ES6
 4L-G09RevD.01\State=1-A'\HF=-76.3345278\MP2=-76.4241517\RMSD=4.890e-09
 \PG=CS [SG(H2O1)]\\@

 THE WORLD OF CHEMICAL REACTIONS IS LIKE A STAGE,

 Normal termination of Gaussian 09 at Wed Aug 26 12:53:05 2020.
