 Gaussian 09, Revision D.01,
 Gaussian 09:  ES64L-G09RevD.01 24-Apr-2013

 --------------------
 #p B2PLYPD3/Def2QZVP
 --------------------

 ---
 h2o
 ---
 Symbolic Z-matrix:
 Charge =  0 Multiplicity = 1

                         Standard orientation:
 ---------------------------------------------------------------------
 Center     Atomic      Atomic             Coordinates (Angstroms)
 Number     Number       Type             X           Y           Z
 ---------------------------------------------------------------------
      1          8           0        0.000000    0.115397    0.000000
      2          1           0        0.745782   -0.487888    0.000000
      3          1           0       -0.745782   -0.435290    0.000000
 ---------------------------------------------------------------------

 SCF Done:  E(RB2PLYPD3) =  -76.3345933947     A.U. after   10 cycles
 E2(B2PLYPD3) =    -0.8949052814D-01 E(B2PLYPD3) =    -0.76424083922838D+02

 The electronic state is 1-A'.
 Alpha  occ. eigenvalues --  -19.72876  -1.16459  -0.61987  -0.47681  -0.40105
 Alpha virt. eigenvalues --    0.04692   0.10355   0.27406   0.30372   0.31229
 Alpha virt. eigenvalues --    0.36621   0.44458   0.50386   0.56450   0.62295
 Alpha virt. eigenvalues --    0.65231   0.81535   0.94196   0.95628   1.04806

 Mulliken charges:
               1
     1  O   -0.429316
     2  H    0.222545
     3  H    0.206772
 Sum of Mulliken charges =   0.00000

 Dipole moment (field-independent basis, Debye):
    X=             -0.0164    Y=             -1.9514    Z=              0.0000  Tot=              1.9514
 Quadrupole moment (field-independent basis, Debye-Ang):
   XX=             -4.3752   YY=             -6.3114   ZZ=             -7.5573
   XY=             -0.0855   XZ=              0.0000   YZ=              0.0000

 1\1\GINC-NODE03\SP\RB2PLYPD3-FC\def2QZVP\H2O1\BOITTIER\26-Aug-2020\0\\
 #p B2PLYPD3/Def2QZVP\\h2o\\0,1\O,0,-5.326605,-0.762908,0.921993\H,0,-4
 .368927,-0.713502,0.898423\H,0,-5.609308,0.104067,0.755019\\Version=ES
 64L-G09RevD.01\State=1-A'\HF=-76.3345934\MP2=-76.4240839\RMSD=4.848e-0
 9\PG=CS [SG(H2O1)]\\@

 "WHERE SHALL I START, PLEASE YOUR MAJESTY?" HE ASKED.

 Normal termination of Gaussian 09 at Wed Aug 26 08:31:25 2020.
