 Gaussian 09, Revision D.01,
 Gaussian 09:  ES64L-G09RevD.01 24-Apr-2013

 --------------------
 #p B2PLYPD3/Def2QZVP
 --------------------

 ---
 h2o
 ---
 Symbolic Z-matrix:
 Charge =  0 Multiplicity = 1

                         Standard orientation:
 ---------------------------------------------------------------------
 Center     Atomic      Atomic             Coordinates (Angstroms)
 Number     Number       Type             X           Y           Z
 ---------------------------------------------------------------------
      1          8           0        0.000000    0.115935    0.000000
      2          1           0        0.757125   -0.472523    0.000000
      3          1           0       -0.757125   -0.454959    0.000000
 ---------------------------------------------------------------------

 SCF Done:  E(RB2PLYPD3) =  -76.3352106527     A.U. after   10 cycles
 E2(B2PLYPD3) =    -0.8981247164D-01 E(B2PLYPD3) =    -0.76425023124389D+02

 The electronic state is 1-A'.
 Alpha  occ. eigenvalues --  -19.73029  -1.15891  -0.61602  -0.47441  -0.39999
 Alpha virt. eigenvalues --    0.04601   0.10249   0.27473   0.30400   0.31130
 Alpha virt. eigenvalues --    0.36057   0.44121   0.50393   0.56251   0.62367
 Alpha virt. eigenvalues --    0.65492   0.81258   0.93932   0.95838   1.04323

 Mulliken charges:
               1
     1  O   -0.439958
     2  H    0.222440
     3  H    0.217519
 Sum of Mulliken charges =   0.00000

 Dipole moment (field-independent basis, Debye):
    X=             -0.0054    Y=             -1.9502    Z=              0.0000  Tot=              1.9502
 Quadrupole moment (field-independent basis, Debye-Ang):
   XX=             -4.3283   YY=             -6.3366   ZZ=             -7.5826
   XY=             -0.0290   XZ=              0.0000   YZ=              0.0000

 1\1\GINC-NODE02\SP\RB2PLYPD3-FC\def2QZVP\H2O1\BOITTIER\26-Aug-2020\0\\
 #p B2PLYPD3/Def2QZVP\\h2o\\0,1\O,0,-5.326605,-0.762912,0.923695\H,0,-4
 .368927,-0.733094,0.885172\H,0,-5.609308,0.123723,0.741719\\Version=ES
 64L-G09RevD.01\State=1-A'\HF=-76.3352107\MP2=-76.4250231\RMSD=4.141e-0
 9\PG=CS [SG(H2O1)]\\@

 SOME PHYSICISTS WOULD PREFER TO COME BACK TO THE IDEA OF AN OBJECTIVE

 Normal termination of Gaussian 09 at Wed Aug 26 10:18:32 2020.
