 Gaussian 09, Revision D.01,
 Gaussian 09:  ES64L-G09RevD.01 24-Apr-2013

 --------------------
 #p B2PLYPD3/Def2QZVP
 --------------------

 ---
 h2o
 ---
 Symbolic Z-matrix:
 Charge =  0 Multiplicity = 1

                         Standard orientation:
 ---------------------------------------------------------------------
 Center     Atomic      Atomic             Coordinates (Angstroms)
 Number     Number       Type             X           Y           Z
 ---------------------------------------------------------------------
      1          8           0        0.000000    0.111322    0.000000
      2          1           0        0.775095   -0.452853    0.000000
      3          1           0       -0.775095   -0.437727    0.000000
 ---------------------------------------------------------------------

 SCF Done:  E(RB2PLYPD3) =  -76.3349939513     A.U. after   10 cycles
 E2(B2PLYPD3) =    -0.8974547520D-01 E(B2PLYPD3) =    -0.76424739426463D+02

 The electronic state is 1-A'.
 Alpha  occ. eigenvalues --  -19.72892  -1.15608  -0.62206  -0.46770  -0.39906
 Alpha virt. eigenvalues --    0.04655   0.10180   0.27423   0.30413   0.31467
 Alpha virt. eigenvalues --    0.35411   0.44082   0.51111   0.55721   0.63430
 Alpha virt. eigenvalues --    0.65441   0.80966   0.93629   0.95971   1.05068

 Mulliken charges:
               1
     1  O   -0.448379
     2  H    0.226249
     3  H    0.222130
 Sum of Mulliken charges =   0.00000

 Dipole moment (field-independent basis, Debye):
    X=             -0.0041    Y=             -1.8950    Z=              0.0000  Tot=              1.8950
 Quadrupole moment (field-independent basis, Debye-Ang):
   XX=             -4.1777   YY=             -6.4392   ZZ=             -7.5911
   XY=             -0.0263   XZ=              0.0000   YZ=              0.0000

 1\1\GINC-NODE10\SP\RB2PLYPD3-FC\def2QZVP\H2O1\BOITTIER\26-Aug-2020\0\\
 #p B2PLYPD3/Def2QZVP\\h2o\\0,1\O,0,-5.326605,-0.761122,0.913767\H,0,-4
 .368927,-0.779984,0.953298\H,0,-5.609308,0.14198,0.83183\\Version=ES64
 L-G09RevD.01\State=1-A'\HF=-76.334994\MP2=-76.4247394\RMSD=3.861e-09\P
 G=CS [SG(H2O1)]\\@

 The cat could very well be man's best friend

 Normal termination of Gaussian 09 at Wed Aug 26 09:20:05 2020.
