 Gaussian 09, Revision D.01,
 Gaussian 09:  ES64L-G09RevD.01 24-Apr-2013

 --------------------
 #p B2PLYPD3/Def2QZVP
 --------------------

 ---
 h2o
 ---
 Symbolic Z-matrix:
 Charge =  0 Multiplicity = 1

                         Standard orientation:
 ---------------------------------------------------------------------
 Center     Atomic      Atomic             Coordinates (Angstroms)
 Number     Number       Type             X           Y           Z
 ---------------------------------------------------------------------
      1          8           0        0.000000    0.123498    0.000000
      2          1           0        0.763596   -0.461089    0.000000
      3          1           0       -0.763596   -0.526895    0.000000
 ---------------------------------------------------------------------

 SCF Done:  E(RB2PLYPD3) =  -76.3324757131     A.U. after   10 cycles
 E2(B2PLYPD3) =    -0.9086500950D-01 E(B2PLYPD3) =    -0.76423340722577D+02

 The electronic state is 1-A'.
 Alpha  occ. eigenvalues --  -19.73599  -1.14799  -0.59766  -0.47618  -0.39838
 Alpha virt. eigenvalues --    0.04198   0.10019   0.27706   0.30142   0.30457
 Alpha virt. eigenvalues --    0.35312   0.43394   0.49591   0.56322   0.61269
 Alpha virt. eigenvalues --    0.66246   0.80699   0.93224   0.96380   1.01639

 Mulliken charges:
               1
     1  O   -0.453682
     2  H    0.218921
     3  H    0.234760
 Sum of Mulliken charges =   0.00000

 Dipole moment (field-independent basis, Debye):
    X=              0.0223    Y=             -2.0161    Z=              0.0000  Tot=              2.0163
 Quadrupole moment (field-independent basis, Debye-Ang):
   XX=             -4.4019   YY=             -6.2573   ZZ=             -7.6417
   XY=              0.1053   XZ=              0.0000   YZ=              0.0000

 1\1\GINC-NODE28\SP\RB2PLYPD3-FC\def2QZVP\H2O1\BOITTIER\26-Aug-2020\0\\
 #p B2PLYPD3/Def2QZVP\\h2o\\0,1\O,0,-5.326605,-0.76653,0.929594\H,0,-4.
 368927,-0.71243,0.860692\H,0,-5.609308,0.16095,0.672787\\Version=ES64L
 -G09RevD.01\State=1-A'\HF=-76.3324757\MP2=-76.4233407\RMSD=4.712e-09\P
 G=CS [SG(H2O1)]\\@

 IN NATURE THERE ARE NEITHER REWARDS OR

 Normal termination of Gaussian 09 at Wed Aug 26 08:42:52 2020.
