 Gaussian 09, Revision D.01,
 Gaussian 09:  ES64L-G09RevD.01 24-Apr-2013

 --------------------
 #p B2PLYPD3/Def2QZVP
 --------------------

 ---
 h2o
 ---
 Symbolic Z-matrix:
 Charge =  0 Multiplicity = 1

                         Standard orientation:
 ---------------------------------------------------------------------
 Center     Atomic      Atomic             Coordinates (Angstroms)
 Number     Number       Type             X           Y           Z
 ---------------------------------------------------------------------
      1          8           0        0.000000    0.119123    0.000000
      2          1           0        0.787946   -0.426701    0.000000
      3          1           0       -0.787946   -0.526284    0.000000
 ---------------------------------------------------------------------

 SCF Done:  E(RB2PLYPD3) =  -76.3310321436     A.U. after   10 cycles
 E2(B2PLYPD3) =    -0.9094532785D-01 E(B2PLYPD3) =    -0.76421977471490D+02

 The electronic state is 1-A'.
 Alpha  occ. eigenvalues --  -19.73519  -1.14303  -0.60179  -0.46807  -0.39693
 Alpha virt. eigenvalues --    0.04163   0.09900   0.27651   0.30231   0.30486
 Alpha virt. eigenvalues --    0.34581   0.43256   0.50240   0.55651   0.62345
 Alpha virt. eigenvalues --    0.66288   0.80229   0.92452   0.96548   1.01738

 Mulliken charges:
               1
     1  O   -0.465635
     2  H    0.221474
     3  H    0.244161
 Sum of Mulliken charges =   0.00000

 Dipole moment (field-independent basis, Debye):
    X=              0.0296    Y=             -1.9607    Z=              0.0000  Tot=              1.9609
 Quadrupole moment (field-independent basis, Debye-Ang):
   XX=             -4.2197   YY=             -6.3706   ZZ=             -7.6625
   XY=              0.1693   XZ=              0.0000   YZ=              0.0000

 1\1\GINC-NODE22\SP\RB2PLYPD3-FC\def2QZVP\H2O1\BOITTIER\26-Aug-2020\0\\
 #p B2PLYPD3/Def2QZVP\\h2o\\0,1\O,0,-5.326605,-0.766216,0.917284\H,0,-4
 .368927,-0.758073,0.956899\H,0,-5.609308,0.201578,0.772845\\Version=ES
 64L-G09RevD.01\State=1-A'\HF=-76.3310321\MP2=-76.4219775\RMSD=5.303e-0
 9\PG=CS [SG(H2O1)]\\@

 Sacred cows make the best hamburger.

 Normal termination of Gaussian 09 at Wed Aug 26 11:48:33 2020.
