 Gaussian 09, Revision D.01,
 Gaussian 09:  ES64L-G09RevD.01 24-Apr-2013

 --------------------
 #p B2PLYPD3/Def2QZVP
 --------------------

 ---
 h2o
 ---
 Symbolic Z-matrix:
 Charge =  0 Multiplicity = 1

                         Standard orientation:
 ---------------------------------------------------------------------
 Center     Atomic      Atomic             Coordinates (Angstroms)
 Number     Number       Type             X           Y           Z
 ---------------------------------------------------------------------
      1          8           0        0.000000    0.118584    0.000000
      2          1           0        0.751033   -0.479067    0.000000
      3          1           0       -0.751033   -0.469603    0.000000
 ---------------------------------------------------------------------

 SCF Done:  E(RB2PLYPD3) =  -76.3350812190     A.U. after   10 cycles
 E2(B2PLYPD3) =    -0.8997180619D-01 E(B2PLYPD3) =    -0.76425053025164D+02

 The electronic state is 1-A'.
 Alpha  occ. eigenvalues --  -19.73152  -1.15856  -0.61130  -0.47722  -0.40012
 Alpha virt. eigenvalues --    0.04533   0.10248   0.27523   0.30403   0.30909
 Alpha virt. eigenvalues --    0.36188   0.44032   0.50056   0.56470   0.61837
 Alpha virt. eigenvalues --    0.65613   0.81266   0.94024   0.95872   1.03747

 Mulliken charges:
               1
     1  O   -0.439040
     2  H    0.220835
     3  H    0.218205
 Sum of Mulliken charges =   0.00000

 Dipole moment (field-independent basis, Debye):
    X=             -0.0031    Y=             -1.9788    Z=              0.0000  Tot=              1.9788
 Quadrupole moment (field-independent basis, Debye-Ang):
   XX=             -4.3941   YY=             -6.2888   ZZ=             -7.5870
   XY=             -0.0152   XZ=              0.0000   YZ=              0.0000

 1\1\GINC-NODE40\SP\RB2PLYPD3-FC\def2QZVP\H2O1\BOITTIER\26-Aug-2020\0\\
 #p B2PLYPD3/Def2QZVP\\h2o\\0,1\O,0,-5.326605,-0.765117,0.922014\H,0,-4
 .368927,-0.70197,0.911901\H,0,-5.609308,0.127886,0.741353\\Version=ES6
 4L-G09RevD.01\State=1-A'\HF=-76.3350812\MP2=-76.425053\RMSD=4.227e-09\
 PG=CS [SG(H2O1)]\\@

 ON INDUCTION, OR "WHY DO YOU BELIEVE THE SUN WILL RISE TOMORROW?":

 Normal termination of Gaussian 09 at Wed Aug 26 08:33:35 2020.
