 Gaussian 09, Revision D.01,
 Gaussian 09:  ES64L-G09RevD.01 24-Apr-2013

 --------------------
 #p B2PLYPD3/Def2QZVP
 --------------------

 ---
 h2o
 ---
 Symbolic Z-matrix:
 Charge =  0 Multiplicity = 1

                         Standard orientation:
 ---------------------------------------------------------------------
 Center     Atomic      Atomic             Coordinates (Angstroms)
 Number     Number       Type             X           Y           Z
 ---------------------------------------------------------------------
      1          8           0        0.000000    0.115563    0.000000
      2          1           0        0.741168   -0.494888    0.000000
      3          1           0       -0.741168   -0.429614    0.000000
 ---------------------------------------------------------------------

 SCF Done:  E(RB2PLYPD3) =  -76.3341150765     A.U. after   10 cycles
 E2(B2PLYPD3) =    -0.8940515639D-01 E(B2PLYPD3) =    -0.76423520232907D+02

 The electronic state is 1-A'.
 Alpha  occ. eigenvalues --  -19.72839  -1.16652  -0.62052  -0.47796  -0.40142
 Alpha virt. eigenvalues --    0.04709   0.10390   0.27388   0.30362   0.31222
 Alpha virt. eigenvalues --    0.36824   0.44569   0.50341   0.56540   0.62204
 Alpha virt. eigenvalues --    0.65158   0.81617   0.94266   0.95574   1.04850

 Mulliken charges:
               1
     1  O   -0.425402
     2  H    0.222707
     3  H    0.202695
 Sum of Mulliken charges =   0.00000

 Dipole moment (field-independent basis, Debye):
    X=             -0.0207    Y=             -1.9555    Z=              0.0000  Tot=              1.9556
 Quadrupole moment (field-independent basis, Debye-Ang):
   XX=             -4.3992   YY=             -6.2962   ZZ=             -7.5495
   XY=             -0.1052   XZ=              0.0000   YZ=              0.0000

 1\1\GINC-NODE34\SP\RB2PLYPD3-FC\def2QZVP\H2O1\BOITTIER\26-Aug-2020\0\\
 #p B2PLYPD3/Def2QZVP\\h2o\\0,1\O,0,-5.326605,-0.762562,0.924019\H,0,-4
 .368927,-0.708627,0.880143\H,0,-5.609308,0.093665,0.740982\\Version=ES
 64L-G09RevD.01\State=1-A'\HF=-76.3341151\MP2=-76.4235202\RMSD=5.197e-0
 9\PG=CS [SG(H2O1)]\\@

 IT TAKES GREATER CHARACTER TO CARRY OFF GOOD FORTUNE THAN BAD.

 Normal termination of Gaussian 09 at Wed Aug 26 12:16:40 2020.
