 Gaussian 09, Revision D.01,
 Gaussian 09:  ES64L-G09RevD.01 24-Apr-2013

 --------------------
 #p B2PLYPD3/Def2QZVP
 --------------------

 ---
 h2o
 ---
 Symbolic Z-matrix:
 Charge =  0 Multiplicity = 1

                         Standard orientation:
 ---------------------------------------------------------------------
 Center     Atomic      Atomic             Coordinates (Angstroms)
 Number     Number       Type             X           Y           Z
 ---------------------------------------------------------------------
      1          8           0        0.000000    0.110777    0.000000
      2          1           0        0.766750   -0.464963    0.000000
      3          1           0       -0.766750   -0.421254    0.000000
 ---------------------------------------------------------------------

 SCF Done:  E(RB2PLYPD3) =  -76.3347735738     A.U. after   10 cycles
 E2(B2PLYPD3) =    -0.8948844889D-01 E(B2PLYPD3) =    -0.76424262022698D+02

 The electronic state is 1-A'.
 Alpha  occ. eigenvalues --  -19.72771  -1.16035  -0.62546  -0.46933  -0.39988
 Alpha virt. eigenvalues --    0.04735   0.10260   0.27375   0.30389   0.31549
 Alpha virt. eigenvalues --    0.35836   0.44339   0.51112   0.55859   0.63407
 Alpha virt. eigenvalues --    0.65233   0.81220   0.93839   0.95796   1.05383

 Mulliken charges:
               1
     1  O   -0.440138
     2  H    0.226334
     3  H    0.213804
 Sum of Mulliken charges =   0.00000

 Dipole moment (field-independent basis, Debye):
    X=             -0.0119    Y=             -1.8944    Z=              0.0000  Tot=              1.8944
 Quadrupole moment (field-independent basis, Debye-Ang):
   XX=             -4.2116   YY=             -6.4223   ZZ=             -7.5713
   XY=             -0.0752   XZ=              0.0000   YZ=              0.0000

 1\1\GINC-NODE38\SP\RB2PLYPD3-FC\def2QZVP\H2O1\BOITTIER\26-Aug-2020\0\\
 #p B2PLYPD3/Def2QZVP\\h2o\\0,1\O,0,-5.326605,-0.760778,0.912734\H,0,-4
 .368927,-0.769311,0.959231\H,0,-5.609308,0.125809,0.841986\\Version=ES
 64L-G09RevD.01\State=1-A'\HF=-76.3347736\MP2=-76.424262\RMSD=4.414e-09
 \PG=CS [SG(H2O1)]\\@

 I WOULD TAKE COUNSEL OF MYSELF.

 Normal termination of Gaussian 09 at Wed Aug 26 09:13:21 2020.
