 Gaussian 09, Revision D.01,
 Gaussian 09:  ES64L-G09RevD.01 24-Apr-2013

 --------------------
 #p B2PLYPD3/Def2QZVP
 --------------------

 ---
 h2o
 ---
 Symbolic Z-matrix:
 Charge =  0 Multiplicity = 1

                         Standard orientation:
 ---------------------------------------------------------------------
 Center     Atomic      Atomic             Coordinates (Angstroms)
 Number     Number       Type             X           Y           Z
 ---------------------------------------------------------------------
      1          8           0        0.000000    0.117803    0.000000
      2          1           0        0.765797   -0.463327    0.000000
      3          1           0       -0.765797   -0.479095    0.000000
 ---------------------------------------------------------------------

 SCF Done:  E(RB2PLYPD3) =  -76.3347442880     A.U. after   10 cycles
 E2(B2PLYPD3) =    -0.9023154177D-01 E(B2PLYPD3) =    -0.76424975829803D+02

 The electronic state is 1-A'.
 Alpha  occ. eigenvalues --  -19.73239  -1.15316  -0.60979  -0.47322  -0.39898
 Alpha virt. eigenvalues --    0.04457   0.10134   0.27558   0.30431   0.30856
 Alpha virt. eigenvalues --    0.35546   0.43767   0.50231   0.56134   0.62188
 Alpha virt. eigenvalues --    0.65813   0.80953   0.93585   0.96087   1.03355

 Mulliken charges:
               1
     1  O   -0.449276
     2  H    0.222585
     3  H    0.226691
 Sum of Mulliken charges =   0.00000

 Dipole moment (field-independent basis, Debye):
    X=              0.0049    Y=             -1.9627    Z=              0.0000  Tot=              1.9627
 Quadrupole moment (field-independent basis, Debye-Ang):
   XX=             -4.3117   YY=             -6.3367   ZZ=             -7.6108
   XY=              0.0261   XZ=              0.0000   YZ=              0.0000

 1\1\GINC-NODE22\SP\RB2PLYPD3-FC\def2QZVP\H2O1\BOITTIER\26-Aug-2020\0\\
 #p B2PLYPD3/Def2QZVP\\h2o\\0,1\O,0,-5.326605,-0.762839,0.928593\H,0,-4
 .368927,-0.748876,0.846036\H,0,-5.609308,0.138345,0.703474\\Version=ES
 64L-G09RevD.01\State=1-A'\HF=-76.3347443\MP2=-76.4249758\RMSD=4.022e-0
 9\PG=CS [SG(H2O1)]\\@

 QED = W**5 (WHICH WAS WHAT WE WANTED)

 Normal termination of Gaussian 09 at Wed Aug 26 09:22:56 2020.
