 Gaussian 09, Revision D.01,
 Gaussian 09:  ES64L-G09RevD.01 24-Apr-2013

 --------------------
 #p B2PLYPD3/Def2QZVP
 --------------------

 ---
 h2o
 ---
 Symbolic Z-matrix:
 Charge =  0 Multiplicity = 1

                         Standard orientation:
 ---------------------------------------------------------------------
 Center     Atomic      Atomic             Coordinates (Angstroms)
 Number     Number       Type             X           Y           Z
 ---------------------------------------------------------------------
      1          8           0        0.000000    0.118514    0.000000
      2          1           0        0.759351   -0.467189    0.000000
      3          1           0       -0.759351   -0.480923    0.000000
 ---------------------------------------------------------------------

 SCF Done:  E(RB2PLYPD3) =  -76.3348866588     A.U. after   10 cycles
 E2(B2PLYPD3) =    -0.9015982307D-01 E(B2PLYPD3) =    -0.76425046481888D+02

 The electronic state is 1-A'.
 Alpha  occ. eigenvalues --  -19.73227  -1.15509  -0.60963  -0.47514  -0.39942
 Alpha virt. eigenvalues --    0.04475   0.10176   0.27553   0.30421   0.30840
 Alpha virt. eigenvalues --    0.35805   0.43852   0.50110   0.56292   0.61975
 Alpha virt. eigenvalues --    0.65757   0.81078   0.93761   0.96014   1.03405

 Mulliken charges:
               1
     1  O   -0.445304
     2  H    0.220823
     3  H    0.224481
 Sum of Mulliken charges =   0.00000

 Dipole moment (field-independent basis, Debye):
    X=              0.0044    Y=             -1.9732    Z=              0.0000  Tot=              1.9732
 Quadrupole moment (field-independent basis, Debye-Ang):
   XX=             -4.3530   YY=             -6.3112   ZZ=             -7.6026
   XY=              0.0224   XZ=              0.0000   YZ=              0.0000

 1\1\GINC-NODE16\SP\RB2PLYPD3-FC\def2QZVP\H2O1\BOITTIER\26-Aug-2020\0\\
 #p B2PLYPD3/Def2QZVP\\h2o\\0,1\O,0,-5.326605,-0.764854,0.923065\H,0,-4
 .368927,-0.719293,0.902115\H,0,-5.609308,0.141001,0.734797\\Version=ES
 64L-G09RevD.01\State=1-A'\HF=-76.3348867\MP2=-76.4250465\RMSD=4.111e-0
 9\PG=CS [SG(H2O1)]\\@

 THERE IS NO SCIENCE WITHOUT FANCY, NOR ART WITHOUT FACTS.

 Normal termination of Gaussian 09 at Wed Aug 26 11:00:58 2020.
