 Gaussian 09, Revision D.01,
 Gaussian 09:  ES64L-G09RevD.01 24-Apr-2013

 --------------------
 #p B2PLYPD3/Def2QZVP
 --------------------

 ---
 h2o
 ---
 Symbolic Z-matrix:
 Charge =  0 Multiplicity = 1

                         Standard orientation:
 ---------------------------------------------------------------------
 Center     Atomic      Atomic             Coordinates (Angstroms)
 Number     Number       Type             X           Y           Z
 ---------------------------------------------------------------------
      1          8           0        0.000000    0.117876    0.000000
      2          1           0        0.765407   -0.458761    0.000000
      3          1           0       -0.765407   -0.484248    0.000000
 ---------------------------------------------------------------------

 SCF Done:  E(RB2PLYPD3) =  -76.3346771534     A.U. after   10 cycles
 E2(B2PLYPD3) =    -0.9023149542D-01 E(B2PLYPD3) =    -0.76424908648805D+02

 The electronic state is 1-A'.
 Alpha  occ. eigenvalues --  -19.73240  -1.15325  -0.60971  -0.47333  -0.39900
 Alpha virt. eigenvalues --    0.04455   0.10136   0.27558   0.30431   0.30842
 Alpha virt. eigenvalues --    0.35563   0.43773   0.50221   0.56142   0.62173
 Alpha virt. eigenvalues --    0.65810   0.80957   0.93580   0.96088   1.03323

 Mulliken charges:
               1
     1  O   -0.449012
     2  H    0.221184
     3  H    0.227828
 Sum of Mulliken charges =   0.00000

 Dipole moment (field-independent basis, Debye):
    X=              0.0079    Y=             -1.9636    Z=              0.0000  Tot=              1.9636
 Quadrupole moment (field-independent basis, Debye-Ang):
   XX=             -4.3146   YY=             -6.3345   ZZ=             -7.6105
   XY=              0.0421   XZ=              0.0000   YZ=              0.0000

 1\1\GINC-NODE33\SP\RB2PLYPD3-FC\def2QZVP\H2O1\BOITTIER\26-Aug-2020\0\\
 #p B2PLYPD3/Def2QZVP\\h2o\\0,1\O,0,-5.326605,-0.764848,0.920885\H,0,-4
 .368927,-0.730083,0.919492\H,0,-5.609308,0.15169,0.752251\\Version=ES6
 4L-G09RevD.01\State=1-A'\HF=-76.3346772\MP2=-76.4249086\RMSD=4.111e-09
 \PG=CS [SG(H2O1)]\\@

 MYSTERY IS THE WISDOM OF BLOCKHEADS... HORACE WALPOLE

 Normal termination of Gaussian 09 at Wed Aug 26 09:47:09 2020.
