 Gaussian 09, Revision D.01,
 Gaussian 09:  ES64L-G09RevD.01 24-Apr-2013

 --------------------
 #p B2PLYPD3/Def2QZVP
 --------------------

 ---
 h2o
 ---
 Symbolic Z-matrix:
 Charge =  0 Multiplicity = 1

                         Standard orientation:
 ---------------------------------------------------------------------
 Center     Atomic      Atomic             Coordinates (Angstroms)
 Number     Number       Type             X           Y           Z
 ---------------------------------------------------------------------
      1          8           0        0.000000    0.114589    0.000000
      2          1           0        0.763635   -0.463679    0.000000
      3          1           0       -0.763635   -0.453029    0.000000
 ---------------------------------------------------------------------

 SCF Done:  E(RB2PLYPD3) =  -76.3352233122     A.U. after   10 cycles
 E2(B2PLYPD3) =    -0.8981764581D-01 E(B2PLYPD3) =    -0.76425040957997D+02

 The electronic state is 1-A'.
 Alpha  occ. eigenvalues --  -19.73001  -1.15756  -0.61755  -0.47216  -0.39962
 Alpha virt. eigenvalues --    0.04611   0.10218   0.27463   0.30407   0.31221
 Alpha virt. eigenvalues --    0.35816   0.44081   0.50600   0.56072   0.62692
 Alpha virt. eigenvalues --    0.65497   0.81158   0.93803   0.95889   1.04498

 Mulliken charges:
               1
     1  O   -0.443340
     2  H    0.223141
     3  H    0.220199
 Sum of Mulliken charges =   0.00000

 Dipole moment (field-independent basis, Debye):
    X=             -0.0031    Y=             -1.9335    Z=              0.0000  Tot=              1.9335
 Quadrupole moment (field-independent basis, Debye-Ang):
   XX=             -4.2783   YY=             -6.3701   ZZ=             -7.5873
   XY=             -0.0179   XZ=              0.0000   YZ=              0.0000

 1\1\GINC-NODE22\SP\RB2PLYPD3-FC\def2QZVP\H2O1\BOITTIER\26-Aug-2020\0\\
 #p B2PLYPD3/Def2QZVP\\h2o\\0,1\O,0,-5.326605,-0.762923,0.918709\H,0,-4
 .368927,-0.74434,0.92492\H,0,-5.609308,0.135149,0.781328\\Version=ES64
 L-G09RevD.01\State=1-A'\HF=-76.3352233\MP2=-76.425041\RMSD=3.987e-09\P
 G=CS [SG(H2O1)]\\@

 ...THOSE SCIENCES ARE VAIN AND FULL OF ERRORS WHICH

 Normal termination of Gaussian 09 at Wed Aug 26 09:57:20 2020.
