 Gaussian 09, Revision D.01,
 Gaussian 09:  ES64L-G09RevD.01 24-Apr-2013

 --------------------
 #p B2PLYPD3/Def2QZVP
 --------------------

 ---
 h2o
 ---
 Symbolic Z-matrix:
 Charge =  0 Multiplicity = 1

                         Standard orientation:
 ---------------------------------------------------------------------
 Center     Atomic      Atomic             Coordinates (Angstroms)
 Number     Number       Type             X           Y           Z
 ---------------------------------------------------------------------
      1          8           0        0.000000    0.113075    0.000000
      2          1           0        0.715928   -0.530637    0.000000
      3          1           0       -0.715928   -0.373963    0.000000
 ---------------------------------------------------------------------

 SCF Done:  E(RB2PLYPD3) =  -76.3259920724     A.U. after   10 cycles
 E2(B2PLYPD3) =    -0.8860102276D-01 E(B2PLYPD3) =    -0.76414593095147D+02

 The electronic state is 1-A'.
 Alpha  occ. eigenvalues --  -19.72374  -1.18200  -0.63213  -0.48194  -0.40399
 Alpha virt. eigenvalues --    0.04881   0.10626   0.27156   0.30290   0.31345
 Alpha virt. eigenvalues --    0.37948   0.45614   0.50509   0.56814   0.62319
 Alpha virt. eigenvalues --    0.64474   0.82125   0.94197   0.95371   1.05415

 Mulliken charges:
               1
     1  O   -0.392280
     2  H    0.224733
     3  H    0.167547
 Sum of Mulliken charges =   0.00000

 Dipole moment (field-independent basis, Debye):
    X=             -0.0506    Y=             -1.9438    Z=              0.0000  Tot=              1.9444
 Quadrupole moment (field-independent basis, Debye-Ang):
   XX=             -4.4809   YY=             -6.2435   ZZ=             -7.4865
   XY=             -0.2459   XZ=              0.0000   YZ=              0.0000

 1\1\GINC-NODE01\SP\RB2PLYPD3-FC\def2QZVP\H2O1\BOITTIER\26-Aug-2020\0\\
 #p B2PLYPD3/Def2QZVP\\h2o\\0,1\O,0,-5.326605,-0.760568,0.924827\H,0,-4
 .368927,-0.685055,0.861039\H,0,-5.609308,0.038179,0.746385\\Version=ES
 64L-G09RevD.01\State=1-A'\HF=-76.3259921\MP2=-76.4145931\RMSD=6.772e-0
 9\PG=CS [SG(H2O1)]\\@

 MICHAEL FARADAY, ASKED BY A POLITICIAN WHAT GOOD

 Normal termination of Gaussian 09 at Wed Aug 26 09:06:50 2020.
