 Gaussian 09, Revision D.01,
 Gaussian 09:  ES64L-G09RevD.01 24-Apr-2013

 --------------------
 #p B2PLYPD3/Def2QZVP
 --------------------

 ---
 h2o
 ---
 Symbolic Z-matrix:
 Charge =  0 Multiplicity = 1

                         Standard orientation:
 ---------------------------------------------------------------------
 Center     Atomic      Atomic             Coordinates (Angstroms)
 Number     Number       Type             X           Y           Z
 ---------------------------------------------------------------------
      1          8           0        0.000000    0.118500    0.000000
      2          1           0        0.777066   -0.453517    0.000000
      3          1           0       -0.777066   -0.494480    0.000000
 ---------------------------------------------------------------------

 SCF Done:  E(RB2PLYPD3) =  -76.3335996888     A.U. after   10 cycles
 E2(B2PLYPD3) =    -0.9058737224D-01 E(B2PLYPD3) =    -0.76424187060998D+02

 The electronic state is 1-A'.
 Alpha  occ. eigenvalues --  -19.73389  -1.14780  -0.60566  -0.47077  -0.39794
 Alpha virt. eigenvalues --    0.04329   0.10016   0.27615   0.30460   0.30636
 Alpha virt. eigenvalues --    0.35000   0.43476   0.50225   0.55912   0.62246
 Alpha virt. eigenvalues --    0.66073   0.80612   0.93136   0.96312   1.02616

 Mulliken charges:
               1
     1  O   -0.458247
     2  H    0.224143
     3  H    0.234104
 Sum of Mulliken charges =   0.00000

 Dipole moment (field-independent basis, Debye):
    X=              0.0124    Y=             -1.9624    Z=              0.0000  Tot=              1.9624
 Quadrupole moment (field-independent basis, Debye-Ang):
   XX=             -4.2658   YY=             -6.3562   ZZ=             -7.6369
   XY=              0.0687   XZ=              0.0000   YZ=              0.0000

 1\1\GINC-NODE40\SP\RB2PLYPD3-FC\def2QZVP\H2O1\BOITTIER\26-Aug-2020\0\\
 #p B2PLYPD3/Def2QZVP\\h2o\\0,1\O,0,-5.326605,-0.766042,0.908725\H,0,-4
 .368927,-0.739356,1.023507\H,0,-5.609308,0.18008,0.841589\\Version=ES6
 4L-G09RevD.01\State=1-A'\HF=-76.3335997\MP2=-76.4241871\RMSD=4.176e-09
 \PG=CS [SG(H2O1)]\\@

 IN THE WOODS WE RETURN TO REASON AND FAITH.

 Normal termination of Gaussian 09 at Wed Aug 26 09:13:34 2020.
