 Gaussian 09, Revision D.01,
 Gaussian 09:  ES64L-G09RevD.01 24-Apr-2013

 --------------------
 #p B2PLYPD3/Def2QZVP
 --------------------

 ---
 h2o
 ---
 Symbolic Z-matrix:
 Charge =  0 Multiplicity = 1

                         Standard orientation:
 ---------------------------------------------------------------------
 Center     Atomic      Atomic             Coordinates (Angstroms)
 Number     Number       Type             X           Y           Z
 ---------------------------------------------------------------------
      1          8           0        0.000000    0.114326    0.000000
      2          1           0        0.780144   -0.441917    0.000000
      3          1           0       -0.780144   -0.472693    0.000000
 ---------------------------------------------------------------------

 SCF Done:  E(RB2PLYPD3) =  -76.3344149803     A.U. after   10 cycles
 E2(B2PLYPD3) =    -0.9019299793D-01 E(B2PLYPD3) =    -0.76424607978210D+02

 The electronic state is 1-A'.
 Alpha  occ. eigenvalues --  -19.73141  -1.15084  -0.61407  -0.46802  -0.39822
 Alpha virt. eigenvalues --    0.04486   0.10078   0.27516   0.30443   0.31088
 Alpha virt. eigenvalues --    0.35056   0.43729   0.50766   0.55719   0.62988
 Alpha virt. eigenvalues --    0.65780   0.80701   0.93297   0.96190   1.03796

 Mulliken charges:
               1
     1  O   -0.456128
     2  H    0.224147
     3  H    0.231980
 Sum of Mulliken charges =   0.00000

 Dipole moment (field-independent basis, Debye):
    X=              0.0086    Y=             -1.9211    Z=              0.0000  Tot=              1.9211
 Quadrupole moment (field-independent basis, Debye-Ang):
   XX=             -4.1931   YY=             -6.4159   ZZ=             -7.6185
   XY=              0.0530   XZ=              0.0000   YZ=              0.0000

 1\1\GINC-NODE34\SP\RB2PLYPD3-FC\def2QZVP\H2O1\BOITTIER\26-Aug-2020\0\\
 #p B2PLYPD3/Def2QZVP\\h2o\\0,1\O,0,-5.326605,-0.763027,0.91633\H,0,-4.
 368927,-0.77171,0.944751\H,0,-5.609308,0.164191,0.799876\\Version=ES64
 L-G09RevD.01\State=1-A'\HF=-76.334415\MP2=-76.424608\RMSD=3.992e-09\PG
 =CS [SG(H2O1)]\\@

 K N O W I N G  IS A BARRIER WHICH PREVENTS LEARNING

 Normal termination of Gaussian 09 at Wed Aug 26 12:21:41 2020.
