 Gaussian 09, Revision D.01,
 Gaussian 09:  ES64L-G09RevD.01 24-Apr-2013

 --------------------
 #p B2PLYPD3/Def2QZVP
 --------------------

 ---
 h2o
 ---
 Symbolic Z-matrix:
 Charge =  0 Multiplicity = 1

                         Standard orientation:
 ---------------------------------------------------------------------
 Center     Atomic      Atomic             Coordinates (Angstroms)
 Number     Number       Type             X           Y           Z
 ---------------------------------------------------------------------
      1          8           0        0.000000    0.122192    0.000000
      2          1           0        0.751171   -0.478937    0.000000
      3          1           0       -0.751171   -0.498598    0.000000
 ---------------------------------------------------------------------

 SCF Done:  E(RB2PLYPD3) =  -76.3343048165     A.U. after   10 cycles
 E2(B2PLYPD3) =    -0.9040592318D-01 E(B2PLYPD3) =    -0.76424710739683D+02

 The electronic state is 1-A'.
 Alpha  occ. eigenvalues --  -19.73401  -1.15440  -0.60304  -0.47886  -0.39958
 Alpha virt. eigenvalues --    0.04371   0.10166   0.27628   0.30425   0.30512
 Alpha virt. eigenvalues --    0.35935   0.43725   0.49674   0.56579   0.61265
 Alpha virt. eigenvalues --    0.65929   0.81066   0.93875   0.96089   1.02604

 Mulliken charges:
               1
     1  O   -0.444047
     2  H    0.219447
     3  H    0.224601
 Sum of Mulliken charges =   0.00000

 Dipole moment (field-independent basis, Debye):
    X=              0.0067    Y=             -2.0121    Z=              0.0000  Tot=              2.0121
 Quadrupole moment (field-independent basis, Debye-Ang):
   XX=             -4.4438   YY=             -6.2445   ZZ=             -7.6099
   XY=              0.0311   XZ=              0.0000   YZ=              0.0000

 1\1\GINC-NODE22\SP\RB2PLYPD3-FC\def2QZVP\H2O1\BOITTIER\26-Aug-2020\0\\
 #p B2PLYPD3/Def2QZVP\\h2o\\0,1\O,0,-5.326605,-0.766185,0.927764\H,0,-4
 .368927,-0.692368,0.872835\H,0,-5.609308,0.135364,0.689171\\Version=ES
 64L-G09RevD.01\State=1-A'\HF=-76.3343048\MP2=-76.4247107\RMSD=4.331e-0
 9\PG=CS [SG(H2O1)]\\@

 "TIGER, TIGER BURNING BRIGHT

 Normal termination of Gaussian 09 at Wed Aug 26 08:32:46 2020.
