 Gaussian 09, Revision D.01,
 Gaussian 09:  ES64L-G09RevD.01 24-Apr-2013

 --------------------
 #p B2PLYPD3/Def2QZVP
 --------------------

 ---
 h2o
 ---
 Symbolic Z-matrix:
 Charge =  0 Multiplicity = 1

                         Standard orientation:
 ---------------------------------------------------------------------
 Center     Atomic      Atomic             Coordinates (Angstroms)
 Number     Number       Type             X           Y           Z
 ---------------------------------------------------------------------
      1          8           0        0.000000    0.121485    0.000000
      2          1           0        0.748554   -0.482482    0.000000
      3          1           0       -0.748554   -0.489397    0.000000
 ---------------------------------------------------------------------

 SCF Done:  E(RB2PLYPD3) =  -76.3346249820     A.U. after   10 cycles
 E2(B2PLYPD3) =    -0.9025869634D-01 E(B2PLYPD3) =    -0.76424883678333D+02

 The electronic state is 1-A'.
 Alpha  occ. eigenvalues --  -19.73328  -1.15629  -0.60517  -0.47921  -0.39990
 Alpha virt. eigenvalues --    0.04423   0.10206   0.27598   0.30415   0.30623
 Alpha virt. eigenvalues --    0.36105   0.43838   0.49736   0.56616   0.61336
 Alpha virt. eigenvalues --    0.65822   0.81162   0.94002   0.96000   1.02943

 Mulliken charges:
               1
     1  O   -0.441266
     2  H    0.219703
     3  H    0.221562
 Sum of Mulliken charges =   0.00000

 Dipole moment (field-independent basis, Debye):
    X=              0.0024    Y=             -2.0071    Z=              0.0000  Tot=              2.0071
 Quadrupole moment (field-independent basis, Debye-Ang):
   XX=             -4.4465   YY=             -6.2467   ZZ=             -7.6005
   XY=              0.0109   XZ=              0.0000   YZ=              0.0000

 1\1\GINC-NODE16\SP\RB2PLYPD3-FC\def2QZVP\H2O1\BOITTIER\26-Aug-2020\0\\
 #p B2PLYPD3/Def2QZVP\\h2o\\0,1\O,0,-5.326605,-0.766055,0.9265\H,0,-4.3
 68927,-0.688708,0.882011\H,0,-5.609308,0.129634,0.699938\\Version=ES64
 L-G09RevD.01\State=1-A'\HF=-76.334625\MP2=-76.4248837\RMSD=4.310e-09\P
 G=CS [SG(H2O1)]\\@

 PICNIC:  A SNACK IN THE GRASS.

 Normal termination of Gaussian 09 at Wed Aug 26 08:31:52 2020.
