 Gaussian 09, Revision D.01,
 Gaussian 09:  ES64L-G09RevD.01 24-Apr-2013

 --------------------
 #p B2PLYPD3/Def2QZVP
 --------------------

 ---
 h2o
 ---
 Symbolic Z-matrix:
 Charge =  0 Multiplicity = 1

                         Standard orientation:
 ---------------------------------------------------------------------
 Center     Atomic      Atomic             Coordinates (Angstroms)
 Number     Number       Type             X           Y           Z
 ---------------------------------------------------------------------
      1          8           0        0.000000    0.119068    0.000000
      2          1           0        0.745768   -0.486625    0.000000
      3          1           0       -0.745768   -0.465917    0.000000
 ---------------------------------------------------------------------

 SCF Done:  E(RB2PLYPD3) =  -76.3349845806     A.U. after   10 cycles
 E2(B2PLYPD3) =    -0.8990661123D-01 E(B2PLYPD3) =    -0.76424891191857D+02

 The electronic state is 1-A'.
 Alpha  occ. eigenvalues --  -19.73134  -1.16029  -0.61131  -0.47874  -0.40049
 Alpha virt. eigenvalues --    0.04546   0.10284   0.27515   0.30395   0.30898
 Alpha virt. eigenvalues --    0.36402   0.44114   0.49977   0.56594   0.61681
 Alpha virt. eigenvalues --    0.65558   0.81351   0.94158   0.95811   1.03804

 Mulliken charges:
               1
     1  O   -0.435617
     2  H    0.220743
     3  H    0.214874
 Sum of Mulliken charges =   0.00000

 Dipole moment (field-independent basis, Debye):
    X=             -0.0068    Y=             -1.9863    Z=              0.0000  Tot=              1.9863
 Quadrupole moment (field-independent basis, Debye-Ang):
   XX=             -4.4259   YY=             -6.2689   ZZ=             -7.5800
   XY=             -0.0330   XZ=              0.0000   YZ=              0.0000

 1\1\GINC-NODE21\SP\RB2PLYPD3-FC\def2QZVP\H2O1\BOITTIER\26-Aug-2020\0\\
 #p B2PLYPD3/Def2QZVP\\h2o\\0,1\O,0,-5.326605,-0.765085,0.923715\H,0,-4
 .368927,-0.692767,0.898097\H,0,-5.609308,0.118165,0.727947\\Version=ES
 64L-G09RevD.01\State=1-A'\HF=-76.3349846\MP2=-76.4248912\RMSD=4.383e-0
 9\PG=CS [SG(H2O1)]\\@

 THE NUMBERS ARE MEANINGLESS, BUT THE TRENDS ARE IMPORTANT.

 Normal termination of Gaussian 09 at Wed Aug 26 12:11:40 2020.
