 Gaussian 09, Revision D.01,
 Gaussian 09:  ES64L-G09RevD.01 24-Apr-2013

 --------------------
 #p B2PLYPD3/Def2QZVP
 --------------------

 ---
 h2o
 ---
 Symbolic Z-matrix:
 Charge =  0 Multiplicity = 1

                         Standard orientation:
 ---------------------------------------------------------------------
 Center     Atomic      Atomic             Coordinates (Angstroms)
 Number     Number       Type             X           Y           Z
 ---------------------------------------------------------------------
      1          8           0        0.000000    0.121195    0.000000
      2          1           0        0.729565   -0.510417    0.000000
      3          1           0       -0.729565   -0.459142    0.000000
 ---------------------------------------------------------------------

 SCF Done:  E(RB2PLYPD3) =  -76.3340465645     A.U. after   10 cycles
 E2(B2PLYPD3) =    -0.8979544147D-01 E(B2PLYPD3) =    -0.76423842006007D+02

 The electronic state is 1-A'.
 Alpha  occ. eigenvalues --  -19.73122  -1.16494  -0.60962  -0.48369  -0.40152
 Alpha virt. eigenvalues --    0.04547   0.10379   0.27506   0.30374   0.30778
 Alpha virt. eigenvalues --    0.36986   0.44322   0.49699   0.56987   0.61112
 Alpha virt. eigenvalues --    0.65437   0.81525   0.94513   0.95684   1.03760

 Mulliken charges:
               1
     1  O   -0.426024
     2  H    0.220661
     3  H    0.205363
 Sum of Mulliken charges =   0.00000

 Dipole moment (field-independent basis, Debye):
    X=             -0.0181    Y=             -2.0151    Z=              0.0000  Tot=              2.0152
 Quadrupole moment (field-independent basis, Debye-Ang):
   XX=             -4.5317   YY=             -6.1992   ZZ=             -7.5631
   XY=             -0.0786   XZ=              0.0000   YZ=              0.0000

 1\1\GINC-NODE16\SP\RB2PLYPD3-FC\def2QZVP\H2O1\BOITTIER\26-Aug-2020\0\\
 #p B2PLYPD3/Def2QZVP\\h2o\\0,1\O,0,-5.326605,-0.766059,0.925697\H,0,-4
 .368927,-0.653666,0.888012\H,0,-5.609308,0.094651,0.705892\\Version=ES
 64L-G09RevD.01\State=1-A'\HF=-76.3340466\MP2=-76.423842\RMSD=5.108e-09
 \PG=CS [SG(H2O1)]\\@

 IBM COMPATIBILITY IS LIKE PREGNANCY. YOU ARE OR

 Normal termination of Gaussian 09 at Wed Aug 26 09:03:45 2020.
