 Gaussian 09, Revision D.01,
 Gaussian 09:  ES64L-G09RevD.01 24-Apr-2013

 --------------------
 #p B2PLYPD3/Def2QZVP
 --------------------

 ---
 h2o
 ---
 Symbolic Z-matrix:
 Charge =  0 Multiplicity = 1

                         Standard orientation:
 ---------------------------------------------------------------------
 Center     Atomic      Atomic             Coordinates (Angstroms)
 Number     Number       Type             X           Y           Z
 ---------------------------------------------------------------------
      1          8           0        0.000000    0.121419    0.000000
      2          1           0        0.809553   -0.396486    0.000000
      3          1           0       -0.809553   -0.574869    0.000000
 ---------------------------------------------------------------------

 SCF Done:  E(RB2PLYPD3) =  -76.3239354805     A.U. after   10 cycles
 E2(B2PLYPD3) =    -0.9180600654D-01 E(B2PLYPD3) =    -0.76415741486988D+02

 The electronic state is 1-A'.
 Alpha  occ. eigenvalues --  -19.73830  -1.13311  -0.59205  -0.46306  -0.39487
 Alpha virt. eigenvalues --    0.03724   0.09637   0.27699   0.29136   0.30540
 Alpha virt. eigenvalues --    0.33918   0.42778   0.50148   0.55141   0.62381
 Alpha virt. eigenvalues --    0.66774   0.79345   0.90795   0.96890   1.00424

 Mulliken charges:
               1
     1  O   -0.479625
     2  H    0.222276
     3  H    0.257350
 Sum of Mulliken charges =   0.00000

 Dipole moment (field-independent basis, Debye):
    X=              0.0520    Y=             -1.9660    Z=              0.0000  Tot=              1.9667
 Quadrupole moment (field-independent basis, Debye-Ang):
   XX=             -4.1414   YY=             -6.3805   ZZ=             -7.7193
   XY=              0.3094   XZ=              0.0000   YZ=              0.0000

 1\1\GINC-NODE15\SP\RB2PLYPD3-FC\def2QZVP\H2O1\BOITTIER\26-Aug-2020\0\\
 #p B2PLYPD3/Def2QZVP\\h2o\\0,1\O,0,-5.326605,-0.768007,0.914135\H,0,-4
 .368927,-0.781689,0.99331\H,0,-5.609308,0.253842,0.787258\\Version=ES6
 4L-G09RevD.01\State=1-A'\HF=-76.3239355\MP2=-76.4157415\RMSD=7.161e-09
 \PG=CS [SG(H2O1)]\\@

 HOW IS IT THAT THE SKY FEEDS THE STARS?

 Normal termination of Gaussian 09 at Wed Aug 26 08:49:42 2020.
