 Gaussian 09, Revision D.01,
 Gaussian 09:  ES64L-G09RevD.01 24-Apr-2013

 --------------------
 #p B2PLYPD3/Def2QZVP
 --------------------

 ---
 h2o
 ---
 Symbolic Z-matrix:
 Charge =  0 Multiplicity = 1

                         Standard orientation:
 ---------------------------------------------------------------------
 Center     Atomic      Atomic             Coordinates (Angstroms)
 Number     Number       Type             X           Y           Z
 ---------------------------------------------------------------------
      1          8           0        0.000000    0.122205    0.000000
      2          1           0        0.750588   -0.484719    0.000000
      3          1           0       -0.750588   -0.492923    0.000000
 ---------------------------------------------------------------------

 SCF Done:  E(RB2PLYPD3) =  -76.3343808407     A.U. after   10 cycles
 E2(B2PLYPD3) =    -0.9039337048D-01 E(B2PLYPD3) =    -0.76424774211175D+02

 The electronic state is 1-A'.
 Alpha  occ. eigenvalues --  -19.73397  -1.15461  -0.60313  -0.47903  -0.39962
 Alpha virt. eigenvalues --    0.04376   0.10171   0.27627   0.30423   0.30524
 Alpha virt. eigenvalues --    0.35959   0.43733   0.49671   0.56594   0.61253
 Alpha virt. eigenvalues --    0.65922   0.81079   0.93907   0.96077   1.02636

 Mulliken charges:
               1
     1  O   -0.443699
     2  H    0.220771
     3  H    0.222928
 Sum of Mulliken charges =   0.00000

 Dipole moment (field-independent basis, Debye):
    X=              0.0028    Y=             -2.0126    Z=              0.0000  Tot=              2.0126
 Quadrupole moment (field-independent basis, Debye-Ang):
   XX=             -4.4468   YY=             -6.2430   ZZ=             -7.6089
   XY=              0.0129   XZ=              0.0000   YZ=              0.0000

 1\1\GINC-NODE39\SP\RB2PLYPD3-FC\def2QZVP\H2O1\BOITTIER\26-Aug-2020\0\\
 #p B2PLYPD3/Def2QZVP\\h2o\\0,1\O,0,-5.326605,-0.768451,0.915374\H,0,-4
 .368927,-0.669731,0.98499\H,0,-5.609308,0.148996,0.773478\\Version=ES6
 4L-G09RevD.01\State=1-A'\HF=-76.3343808\MP2=-76.4247742\RMSD=4.290e-09
 \PG=CS [SG(H2O1)]\\@

 TOM, TOM, THE BURGLAR'S SON

 Normal termination of Gaussian 09 at Wed Aug 26 08:49:55 2020.
