 Gaussian 09, Revision D.01,
 Gaussian 09:  ES64L-G09RevD.01 24-Apr-2013

 --------------------
 #p B2PLYPD3/Def2QZVP
 --------------------

 ---
 h2o
 ---
 Symbolic Z-matrix:
 Charge =  0 Multiplicity = 1

                         Standard orientation:
 ---------------------------------------------------------------------
 Center     Atomic      Atomic             Coordinates (Angstroms)
 Number     Number       Type             X           Y           Z
 ---------------------------------------------------------------------
      1          8           0        0.000000    0.118327    0.000000
      2          1           0        0.801886   -0.406444    0.000000
      3          1           0       -0.801886   -0.540171    0.000000
 ---------------------------------------------------------------------

 SCF Done:  E(RB2PLYPD3) =  -76.3284630327     A.U. after   10 cycles
 E2(B2PLYPD3) =    -0.9122221342D-01 E(B2PLYPD3) =    -0.76419685246163D+02

 The electronic state is 1-A'.
 Alpha  occ. eigenvalues --  -19.73581  -1.13856  -0.60013  -0.46406  -0.39584
 Alpha virt. eigenvalues --    0.04025   0.09788   0.27648   0.29941   0.30512
 Alpha virt. eigenvalues --    0.34156   0.43065   0.50463   0.55296   0.62708
 Alpha virt. eigenvalues --    0.66451   0.79780   0.91790   0.96735   1.01263

 Mulliken charges:
               1
     1  O   -0.473964
     2  H    0.222627
     3  H    0.251337
 Sum of Mulliken charges =   0.00000

 Dipole moment (field-independent basis, Debye):
    X=              0.0378    Y=             -1.9439    Z=              0.0000  Tot=              1.9442
 Quadrupole moment (field-independent basis, Debye-Ang):
   XX=             -4.1378   YY=             -6.4103   ZZ=             -7.6859
   XY=              0.2330   XZ=              0.0000   YZ=              0.0000

 1\1\GINC-NODE39\SP\RB2PLYPD3-FC\def2QZVP\H2O1\BOITTIER\26-Aug-2020\0\\
 #p B2PLYPD3/Def2QZVP\\h2o\\0,1\O,0,-5.326605,-0.765563,0.918278\H,0,-4
 .368927,-0.788555,0.945289\H,0,-5.609308,0.221611,0.769258\\Version=ES
 64L-G09RevD.01\State=1-A'\HF=-76.328463\MP2=-76.4196852\RMSD=6.170e-09
 \PG=CS [SG(H2O1)]\\@

 SCIENCE IS LONG AND LIFE IS SHORT.

 Normal termination of Gaussian 09 at Wed Aug 26 08:55:01 2020.
