 Gaussian 09, Revision D.01,
 Gaussian 09:  ES64L-G09RevD.01 24-Apr-2013

 --------------------
 #p B2PLYPD3/Def2QZVP
 --------------------

 ---
 h2o
 ---
 Symbolic Z-matrix:
 Charge =  0 Multiplicity = 1

                         Standard orientation:
 ---------------------------------------------------------------------
 Center     Atomic      Atomic             Coordinates (Angstroms)
 Number     Number       Type             X           Y           Z
 ---------------------------------------------------------------------
      1          8           0        0.000000    0.119051    0.000000
      2          1           0        0.790600   -0.422765    0.000000
      3          1           0       -0.790600   -0.529645    0.000000
 ---------------------------------------------------------------------

 SCF Done:  E(RB2PLYPD3) =  -76.3305329211     A.U. after   10 cycles
 E2(B2PLYPD3) =    -0.9100639272D-01 E(B2PLYPD3) =    -0.76421539313782D+02

 The electronic state is 1-A'.
 Alpha  occ. eigenvalues --  -19.73536  -1.14210  -0.60132  -0.46734  -0.39671
 Alpha virt. eigenvalues --    0.04134   0.09877   0.27654   0.30168   0.30491
 Alpha virt. eigenvalues --    0.34491   0.43215   0.50270   0.55585   0.62402
 Alpha virt. eigenvalues --    0.66325   0.80144   0.92317   0.96589   1.01624

 Mulliken charges:
               1
     1  O   -0.467275
     2  H    0.221614
     3  H    0.245662
 Sum of Mulliken charges =   0.00000

 Dipole moment (field-independent basis, Debye):
    X=              0.0315    Y=             -1.9583    Z=              0.0000  Tot=              1.9585
 Quadrupole moment (field-independent basis, Debye-Ang):
   XX=             -4.2053   YY=             -6.3772   ZZ=             -7.6674
   XY=              0.1825   XZ=              0.0000   YZ=              0.0000

 1\1\GINC-NODE17\SP\RB2PLYPD3-FC\def2QZVP\H2O1\BOITTIER\26-Aug-2020\0\\
 #p B2PLYPD3/Def2QZVP\\h2o\\0,1\O,0,-5.326605,-0.766155,0.917409\H,0,-4
 .368927,-0.763372,0.955589\H,0,-5.609308,0.205892,0.772292\\Version=ES
 64L-G09RevD.01\State=1-A'\HF=-76.3305329\MP2=-76.4215393\RMSD=5.471e-0
 9\PG=CS [SG(H2O1)]\\@

 IT IS WELL TO REMEMBER THAT MAN IS A PART OF NATURE AND THAT HIS WORKS,

 Normal termination of Gaussian 09 at Wed Aug 26 08:33:04 2020.
