 Gaussian 09, Revision D.01,
 Gaussian 09:  ES64L-G09RevD.01 24-Apr-2013

 --------------------
 #p B2PLYPD3/Def2QZVP
 --------------------

 ---
 h2o
 ---
 Symbolic Z-matrix:
 Charge =  0 Multiplicity = 1

                         Standard orientation:
 ---------------------------------------------------------------------
 Center     Atomic      Atomic             Coordinates (Angstroms)
 Number     Number       Type             X           Y           Z
 ---------------------------------------------------------------------
      1          8           0        0.000000    0.116110    0.000000
      2          1           0        0.734060   -0.511959    0.000000
      3          1           0       -0.734060   -0.416923    0.000000
 ---------------------------------------------------------------------

 SCF Done:  E(RB2PLYPD3) =  -76.3327579273     A.U. after   10 cycles
 E2(B2PLYPD3) =    -0.8931393164D-01 E(B2PLYPD3) =    -0.76422071858894D+02

 The electronic state is 1-A'.
 Alpha  occ. eigenvalues --  -19.72799  -1.16927  -0.62079  -0.47976  -0.40193
 Alpha virt. eigenvalues --    0.04710   0.10439   0.27362   0.30350   0.31139
 Alpha virt. eigenvalues --    0.37103   0.44742   0.50247   0.56670   0.62031
 Alpha virt. eigenvalues --    0.65061   0.81708   0.94272   0.95544   1.04687

 Mulliken charges:
               1
     1  O   -0.419338
     2  H    0.224681
     3  H    0.194657
 Sum of Mulliken charges =   0.00000

 Dipole moment (field-independent basis, Debye):
    X=             -0.0308    Y=             -1.9642    Z=              0.0000  Tot=              1.9645
 Quadrupole moment (field-independent basis, Debye-Ang):
   XX=             -4.4397   YY=             -6.2676   ZZ=             -7.5396
   XY=             -0.1510   XZ=              0.0000   YZ=              0.0000

 1\1\GINC-NODE40\SP\RB2PLYPD3-FC\def2QZVP\H2O1\BOITTIER\26-Aug-2020\0\\
 #p B2PLYPD3/Def2QZVP\\h2o\\0,1\O,0,-5.326605,-0.760694,0.931037\H,0,-4
 .368927,-0.713697,0.812885\H,0,-5.609308,0.068839,0.696681\\Version=ES
 64L-G09RevD.01\State=1-A'\HF=-76.3327579\MP2=-76.4220719\RMSD=5.903e-0
 9\PG=CS [SG(H2O1)]\\@

 ... FOR AFTERWARDS A MAN FINDS PLEASURE IN HIS PAINS,

 Normal termination of Gaussian 09 at Wed Aug 26 09:23:07 2020.
