 Gaussian 09, Revision D.01,
 Gaussian 09:  ES64L-G09RevD.01 24-Apr-2013

 --------------------
 #p B2PLYPD3/Def2QZVP
 --------------------

 ---
 h2o
 ---
 Symbolic Z-matrix:
 Charge =  0 Multiplicity = 1

                         Standard orientation:
 ---------------------------------------------------------------------
 Center     Atomic      Atomic             Coordinates (Angstroms)
 Number     Number       Type             X           Y           Z
 ---------------------------------------------------------------------
      1          8           0        0.000000    0.119455    0.000000
      2          1           0        0.745102   -0.487456    0.000000
      3          1           0       -0.745102   -0.468183    0.000000
 ---------------------------------------------------------------------

 SCF Done:  E(RB2PLYPD3) =  -76.3349527993     A.U. after   10 cycles
 E2(B2PLYPD3) =    -0.8993671566D-01 E(B2PLYPD3) =    -0.76424889514987D+02

 The electronic state is 1-A'.
 Alpha  occ. eigenvalues --  -19.73154  -1.16012  -0.61055  -0.47910  -0.40049
 Alpha virt. eigenvalues --    0.04534   0.10281   0.27523   0.30396   0.30864
 Alpha virt. eigenvalues --    0.36407   0.44094   0.49932   0.56621   0.61608
 Alpha virt. eigenvalues --    0.65580   0.81344   0.94169   0.95822   1.03714

 Mulliken charges:
               1
     1  O   -0.435698
     2  H    0.220573
     3  H    0.215125
 Sum of Mulliken charges =   0.00000

 Dipole moment (field-independent basis, Debye):
    X=             -0.0064    Y=             -1.9903    Z=              0.0000  Tot=              1.9903
 Quadrupole moment (field-independent basis, Debye-Ang):
   XX=             -4.4345   YY=             -6.2625   ZZ=             -7.5811
   XY=             -0.0306   XZ=              0.0000   YZ=              0.0000

 1\1\GINC-NODE21\SP\RB2PLYPD3-FC\def2QZVP\H2O1\BOITTIER\26-Aug-2020\0\\
 #p B2PLYPD3/Def2QZVP\\h2o\\0,1\O,0,-5.326605,-0.765411,0.923456\H,0,-4
 .368927,-0.688489,0.902139\H,0,-5.609308,0.119103,0.727984\\Version=ES
 64L-G09RevD.01\State=1-A'\HF=-76.3349528\MP2=-76.4248895\RMSD=4.390e-0
 9\PG=CS [SG(H2O1)]\\@

 HIGGLEDY-PIGGLEDY

 Normal termination of Gaussian 09 at Wed Aug 26 10:36:13 2020.
