 Gaussian 09, Revision D.01,
 Gaussian 09:  ES64L-G09RevD.01 24-Apr-2013

 --------------------
 #p B2PLYPD3/Def2QZVP
 --------------------

 ---
 h2o
 ---
 Symbolic Z-matrix:
 Charge =  0 Multiplicity = 1

                         Standard orientation:
 ---------------------------------------------------------------------
 Center     Atomic      Atomic             Coordinates (Angstroms)
 Number     Number       Type             X           Y           Z
 ---------------------------------------------------------------------
      1          8           0        0.000000    0.115902    0.000000
      2          1           0        0.762307   -0.465894    0.000000
      3          1           0       -0.762307   -0.461320    0.000000
 ---------------------------------------------------------------------

 SCF Done:  E(RB2PLYPD3) =  -76.3351805202     A.U. after   10 cycles
 E2(B2PLYPD3) =    -0.8993160596D-01 E(B2PLYPD3) =    -0.76425112126175D+02

 The electronic state is 1-A'.
 Alpha  occ. eigenvalues --  -19.73077  -1.15670  -0.61488  -0.47315  -0.39955
 Alpha virt. eigenvalues --    0.04566   0.10204   0.27493   0.30412   0.31096
 Alpha virt. eigenvalues --    0.35813   0.44001   0.50432   0.56145   0.62450
 Alpha virt. eigenvalues --    0.65585   0.81133   0.93787   0.95928   1.04131

 Mulliken charges:
               1
     1  O   -0.444111
     2  H    0.222680
     3  H    0.221431
 Sum of Mulliken charges =   0.00000

 Dipole moment (field-independent basis, Debye):
    X=             -0.0014    Y=             -1.9468    Z=              0.0000  Tot=              1.9468
 Quadrupole moment (field-independent basis, Debye-Ang):
   XX=             -4.3027   YY=             -6.3508   ZZ=             -7.5925
   XY=             -0.0076   XZ=              0.0000   YZ=              0.0000

 1\1\GINC-NODE29\SP\RB2PLYPD3-FC\def2QZVP\H2O1\BOITTIER\26-Aug-2020\0\\
 #p B2PLYPD3/Def2QZVP\\h2o\\0,1\O,0,-5.326605,-0.762721,0.924385\H,0,-4
 .368927,-0.743818,0.878628\H,0,-5.609308,0.131401,0.737514\\Version=ES
 64L-G09RevD.01\State=1-A'\HF=-76.3351805\MP2=-76.4251121\RMSD=3.996e-0
 9\PG=CS [SG(H2O1)]\\@

 REALITY IS FOR PEOPLE WHO CAN'T FACE SCIENCE FICTION.

 Normal termination of Gaussian 09 at Wed Aug 26 12:25:52 2020.
