 Gaussian 09, Revision D.01,
 Gaussian 09:  ES64L-G09RevD.01 24-Apr-2013

 --------------------
 #p B2PLYPD3/Def2QZVP
 --------------------

 ---
 h2o
 ---
 Symbolic Z-matrix:
 Charge =  0 Multiplicity = 1

                         Standard orientation:
 ---------------------------------------------------------------------
 Center     Atomic      Atomic             Coordinates (Angstroms)
 Number     Number       Type             X           Y           Z
 ---------------------------------------------------------------------
      1          8           0        0.000000    0.117089    0.000000
      2          1           0        0.752322   -0.477896    0.000000
      3          1           0       -0.752322   -0.458818    0.000000
 ---------------------------------------------------------------------

 SCF Done:  E(RB2PLYPD3) =  -76.3351599881     A.U. after   10 cycles
 E2(B2PLYPD3) =    -0.8983000817D-01 E(B2PLYPD3) =    -0.76424989996251D+02

 The electronic state is 1-A'.
 Alpha  occ. eigenvalues --  -19.73061  -1.15970  -0.61446  -0.47616  -0.40023
 Alpha virt. eigenvalues --    0.04587   0.10267   0.27485   0.30397   0.31049
 Alpha virt. eigenvalues --    0.36219   0.44134   0.50230   0.56390   0.62103
 Alpha virt. eigenvalues --    0.65505   0.81314   0.94029   0.95813   1.04155

 Mulliken charges:
               1
     1  O   -0.437805
     2  H    0.221596
     3  H    0.216209
 Sum of Mulliken charges =   0.00000

 Dipole moment (field-independent basis, Debye):
    X=             -0.0060    Y=             -1.9639    Z=              0.0000  Tot=              1.9639
 Quadrupole moment (field-independent basis, Debye-Ang):
   XX=             -4.3672   YY=             -6.3101   ZZ=             -7.5803
   XY=             -0.0310   XZ=              0.0000   YZ=              0.0000

 1\1\GINC-NODE17\SP\RB2PLYPD3-FC\def2QZVP\H2O1\BOITTIER\26-Aug-2020\0\\
 #p B2PLYPD3/Def2QZVP\\h2o\\0,1\O,0,-5.326605,-0.764011,0.922373\H,0,-4
 .368927,-0.714561,0.902295\H,0,-5.609308,0.122778,0.745337\\Version=ES
 64L-G09RevD.01\State=1-A'\HF=-76.33516\MP2=-76.42499\RMSD=4.241e-09\PG
 =CS [SG(H2O1)]\\@

 "WHERE SHALL I START, PLEASE YOUR MAJESTY?" HE ASKED.

 Normal termination of Gaussian 09 at Wed Aug 26 10:18:37 2020.
