 Gaussian 09, Revision D.01,
 Gaussian 09:  ES64L-G09RevD.01 24-Apr-2013

 --------------------
 #p B2PLYPD3/Def2QZVP
 --------------------

 ---
 h2o
 ---
 Symbolic Z-matrix:
 Charge =  0 Multiplicity = 1

                         Standard orientation:
 ---------------------------------------------------------------------
 Center     Atomic      Atomic             Coordinates (Angstroms)
 Number     Number       Type             X           Y           Z
 ---------------------------------------------------------------------
      1          8           0        0.000000    0.113455    0.000000
      2          1           0        0.724387   -0.520041    0.000000
      3          1           0       -0.724387   -0.387596    0.000000
 ---------------------------------------------------------------------

 SCF Done:  E(RB2PLYPD3) =  -76.3291763340     A.U. after   10 cycles
 E2(B2PLYPD3) =    -0.8881670731D-01 E(B2PLYPD3) =    -0.76417993041345D+02

 The electronic state is 1-A'.
 Alpha  occ. eigenvalues --  -19.72500  -1.17723  -0.62933  -0.48038  -0.40319
 Alpha virt. eigenvalues --    0.04845   0.10557   0.27224   0.30311   0.31343
 Alpha virt. eigenvalues --    0.37621   0.45299   0.50503   0.56709   0.62357
 Alpha virt. eigenvalues --    0.64656   0.81992   0.94263   0.95392   1.05324

 Mulliken charges:
               1
     1  O   -0.403160
     2  H    0.224532
     3  H    0.178628
 Sum of Mulliken charges =   0.00000

 Dipole moment (field-independent basis, Debye):
    X=             -0.0422    Y=             -1.9434    Z=              0.0000  Tot=              1.9439
 Quadrupole moment (field-independent basis, Debye-Ang):
   XX=             -4.4479   YY=             -6.2668   ZZ=             -7.5048
   XY=             -0.2103   XZ=              0.0000   YZ=              0.0000

 1\1\GINC-NODE26\SP\RB2PLYPD3-FC\def2QZVP\H2O1\BOITTIER\26-Aug-2020\0\\
 #p B2PLYPD3/Def2QZVP\\h2o\\0,1\O,0,-5.326605,-0.760591,0.925724\H,0,-4
 .368927,-0.698993,0.854223\H,0,-5.609308,0.052493,0.73928\\Version=ES6
 4L-G09RevD.01\State=1-A'\HF=-76.3291763\MP2=-76.417993\RMSD=6.663e-09\
 PG=CS [SG(H2O1)]\\@

      SCIENCE SANS CONSCIENCE N'EST QUE RUINE DE L'AME.

 Normal termination of Gaussian 09 at Wed Aug 26 09:02:38 2020.
