 Gaussian 09, Revision D.01,
 Gaussian 09:  ES64L-G09RevD.01 24-Apr-2013

 --------------------
 #p B2PLYPD3/Def2QZVP
 --------------------

 ---
 h2o
 ---
 Symbolic Z-matrix:
 Charge =  0 Multiplicity = 1

                         Standard orientation:
 ---------------------------------------------------------------------
 Center     Atomic      Atomic             Coordinates (Angstroms)
 Number     Number       Type             X           Y           Z
 ---------------------------------------------------------------------
      1          8           0        0.000000    0.119553    0.000000
      2          1           0        0.757158   -0.470110    0.000000
      3          1           0       -0.757158   -0.486313    0.000000
 ---------------------------------------------------------------------

 SCF Done:  E(RB2PLYPD3) =  -76.3347496704     A.U. after   10 cycles
 E2(B2PLYPD3) =    -0.9022962461D-01 E(B2PLYPD3) =    -0.76424979295026D+02

 The electronic state is 1-A'.
 Alpha  occ. eigenvalues --  -19.73277  -1.15486  -0.60776  -0.47617  -0.39946
 Alpha virt. eigenvalues --    0.04445   0.10173   0.27574   0.30422   0.30746
 Alpha virt. eigenvalues --    0.35842   0.43814   0.49982   0.56371   0.61774
 Alpha virt. eigenvalues --    0.65808   0.81076   0.93785   0.96034   1.03167

 Mulliken charges:
               1
     1  O   -0.445006
     2  H    0.220355
     3  H    0.224651
 Sum of Mulliken charges =   0.00000

 Dipole moment (field-independent basis, Debye):
    X=              0.0053    Y=             -1.9842    Z=              0.0000  Tot=              1.9842
 Quadrupole moment (field-independent basis, Debye-Ang):
   XX=             -4.3780   YY=             -6.2927   ZZ=             -7.6048
   XY=              0.0262   XZ=              0.0000   YZ=              0.0000

 1\1\GINC-NODE13\SP\RB2PLYPD3-FC\def2QZVP\H2O1\BOITTIER\26-Aug-2020\0\\
 #p B2PLYPD3/Def2QZVP\\h2o\\0,1\O,0,-5.326605,-0.765238,0.924513\H,0,-4
 .368927,-0.711891,0.892938\H,0,-5.609308,0.13974,0.720906\\Version=ES6
 4L-G09RevD.01\State=1-A'\HF=-76.3347497\MP2=-76.4249793\RMSD=4.174e-09
 \PG=CS [SG(H2O1)]\\@

 TELEVISION IS CALLED A MEDIUM BECAUSE IT ISN'T

 Normal termination of Gaussian 09 at Wed Aug 26 10:43:10 2020.
