 Gaussian 09, Revision D.01,
 Gaussian 09:  ES64L-G09RevD.01 24-Apr-2013

 --------------------
 #p B2PLYPD3/Def2QZVP
 --------------------

 ---
 h2o
 ---
 Symbolic Z-matrix:
 Charge =  0 Multiplicity = 1

                         Standard orientation:
 ---------------------------------------------------------------------
 Center     Atomic      Atomic             Coordinates (Angstroms)
 Number     Number       Type             X           Y           Z
 ---------------------------------------------------------------------
      1          8           0        0.000000    0.117465    0.000000
      2          1           0        0.776738   -0.451930    0.000000
      3          1           0       -0.776738   -0.487787    0.000000
 ---------------------------------------------------------------------

 SCF Done:  E(RB2PLYPD3) =  -76.3339701636     A.U. after   10 cycles
 E2(B2PLYPD3) =    -0.9045995331D-01 E(B2PLYPD3) =    -0.76424430116877D+02

 The electronic state is 1-A'.
 Alpha  occ. eigenvalues --  -19.73318  -1.14900  -0.60800  -0.47037  -0.39810
 Alpha virt. eigenvalues --    0.04379   0.10042   0.27586   0.30453   0.30765
 Alpha virt. eigenvalues --    0.35066   0.43561   0.50347   0.55889   0.62410
 Alpha virt. eigenvalues --    0.65980   0.80669   0.93217   0.96260   1.02954

 Mulliken charges:
               1
     1  O   -0.456958
     2  H    0.224043
     3  H    0.232915
 Sum of Mulliken charges =   0.00000

 Dipole moment (field-independent basis, Debye):
    X=              0.0107    Y=             -1.9529    Z=              0.0000  Tot=              1.9529
 Quadrupole moment (field-independent basis, Debye-Ang):
   XX=             -4.2531   YY=             -6.3685   ZZ=             -7.6301
   XY=              0.0604   XZ=              0.0000   YZ=              0.0000

 1\1\GINC-NODE28\SP\RB2PLYPD3-FC\def2QZVP\H2O1\BOITTIER\26-Aug-2020\0\\
 #p B2PLYPD3/Def2QZVP\\h2o\\0,1\O,0,-5.326605,-0.765387,0.909953\H,0,-4
 .368927,-0.744717,1.009742\H,0,-5.609308,0.174955,0.835875\\Version=ES
 64L-G09RevD.01\State=1-A'\HF=-76.3339702\MP2=-76.4244301\RMSD=4.104e-0
 9\PG=CS [SG(H2O1)]\\@

 LIFE CAN ONLY BE UNDERSTOOD BACKWARD, BUT MUST

 Normal termination of Gaussian 09 at Wed Aug 26 08:43:05 2020.
