 Gaussian 09, Revision D.01,
 Gaussian 09:  ES64L-G09RevD.01 24-Apr-2013

 --------------------
 #p B2PLYPD3/Def2QZVP
 --------------------

 ---
 h2o
 ---
 Symbolic Z-matrix:
 Charge =  0 Multiplicity = 1

                         Standard orientation:
 ---------------------------------------------------------------------
 Center     Atomic      Atomic             Coordinates (Angstroms)
 Number     Number       Type             X           Y           Z
 ---------------------------------------------------------------------
      1          8           0        0.000000    0.113920    0.000000
      2          1           0        0.767036   -0.460436    0.000000
      3          1           0       -0.767036   -0.450922    0.000000
 ---------------------------------------------------------------------

 SCF Done:  E(RB2PLYPD3) =  -76.3351842633     A.U. after   10 cycles
 E2(B2PLYPD3) =    -0.8982630785D-01 E(B2PLYPD3) =    -0.76425010571193D+02

 The electronic state is 1-A'.
 Alpha  occ. eigenvalues --  -19.72988  -1.15681  -0.61824  -0.47099  -0.39942
 Alpha virt. eigenvalues --    0.04613   0.10202   0.27458   0.30410   0.31264
 Alpha virt. eigenvalues --    0.35686   0.44058   0.50709   0.55979   0.62858
 Alpha virt. eigenvalues --    0.65503   0.81096   0.93734   0.95921   1.04573

 Mulliken charges:
               1
     1  O   -0.445197
     2  H    0.223902
     3  H    0.221295
 Sum of Mulliken charges =   0.00000

 Dipole moment (field-independent basis, Debye):
    X=             -0.0027    Y=             -1.9250    Z=              0.0000  Tot=              1.9250
 Quadrupole moment (field-independent basis, Debye-Ang):
   XX=             -4.2525   YY=             -6.3871   ZZ=             -7.5900
   XY=             -0.0161   XZ=              0.0000   YZ=              0.0000

 1\1\GINC-NODE22\SP\RB2PLYPD3-FC\def2QZVP\H2O1\BOITTIER\26-Aug-2020\0\\
 #p B2PLYPD3/Def2QZVP\\h2o\\0,1\O,0,-5.326605,-0.762786,0.915864\H,0,-4
 .368927,-0.751443,0.946713\H,0,-5.609308,0.140062,0.804803\\Version=ES
 64L-G09RevD.01\State=1-A'\HF=-76.3351843\MP2=-76.4250106\RMSD=3.930e-0
 9\PG=CS [SG(H2O1)]\\@

 NECESSARY EVIL: ONE WE LIKE TOO MUCH TO RELINQUISH.

 Normal termination of Gaussian 09 at Wed Aug 26 08:30:27 2020.
