 Gaussian 09, Revision D.01,
 Gaussian 09:  ES64L-G09RevD.01 24-Apr-2013

 --------------------
 #p B2PLYPD3/Def2QZVP
 --------------------

 ---
 h2o
 ---
 Symbolic Z-matrix:
 Charge =  0 Multiplicity = 1

                         Standard orientation:
 ---------------------------------------------------------------------
 Center     Atomic      Atomic             Coordinates (Angstroms)
 Number     Number       Type             X           Y           Z
 ---------------------------------------------------------------------
      1          8           0        0.000000    0.124973    0.000000
      2          1           0        0.714193   -0.535304    0.000000
      3          1           0       -0.714193   -0.464476    0.000000
 ---------------------------------------------------------------------

 SCF Done:  E(RB2PLYPD3) =  -76.3324764366     A.U. after   10 cycles
 E2(B2PLYPD3) =    -0.8993029392D-01 E(B2PLYPD3) =    -0.76422406730531D+02

 The electronic state is 1-A'.
 Alpha  occ. eigenvalues --  -19.73238  -1.16714  -0.60346  -0.48918  -0.40216
 Alpha virt. eigenvalues --    0.04454   0.10429   0.27553   0.30365   0.30483
 Alpha virt. eigenvalues --    0.37314   0.44360   0.49347   0.57405   0.60330
 Alpha virt. eigenvalues --    0.65458   0.81520   0.94813   0.95680   1.03289

 Mulliken charges:
               1
     1  O   -0.420278
     2  H    0.220898
     3  H    0.199380
 Sum of Mulliken charges =   0.00000

 Dipole moment (field-independent basis, Debye):
    X=             -0.0272    Y=             -2.0580    Z=              0.0000  Tot=              2.0582
 Quadrupole moment (field-independent basis, Debye-Ang):
   XX=             -4.6557   YY=             -6.1115   ZZ=             -7.5599
   XY=             -0.1035   XZ=              0.0000   YZ=              0.0000

 1\1\GINC-NODE14\SP\RB2PLYPD3-FC\def2QZVP\H2O1\BOITTIER\26-Aug-2020\0\\
 #p B2PLYPD3/Def2QZVP\\h2o\\0,1\O,0,-5.326605,-0.767867,0.928486\H,0,-4
 .368927,-0.606003,0.876619\H,0,-5.609308,0.075913,0.67229\\Version=ES6
 4L-G09RevD.01\State=1-A'\HF=-76.3324764\MP2=-76.4224067\RMSD=5.720e-09
 \PG=CS [SG(H2O1)]\\@

 LAWS OF PROGRAMMING DEFINITION:  A WORKING PROGRAM

 Normal termination of Gaussian 09 at Wed Aug 26 08:56:48 2020.
