 Gaussian 09, Revision D.01,
 Gaussian 09:  ES64L-G09RevD.01 24-Apr-2013

 --------------------
 #p B2PLYPD3/Def2QZVP
 --------------------

 ---
 h2o
 ---
 Symbolic Z-matrix:
 Charge =  0 Multiplicity = 1

                         Standard orientation:
 ---------------------------------------------------------------------
 Center     Atomic      Atomic             Coordinates (Angstroms)
 Number     Number       Type             X           Y           Z
 ---------------------------------------------------------------------
      1          8           0        0.000000    0.123402    0.000000
      2          1           0        0.723781   -0.520504    0.000000
      3          1           0       -0.723781   -0.466708    0.000000
 ---------------------------------------------------------------------

 SCF Done:  E(RB2PLYPD3) =  -76.3335654002     A.U. after   10 cycles
 E2(B2PLYPD3) =    -0.8993851812D-01 E(B2PLYPD3) =    -0.76423503918320D+02

 The electronic state is 1-A'.
 Alpha  occ. eigenvalues --  -19.73222  -1.16479  -0.60549  -0.48616  -0.40164
 Alpha virt. eigenvalues --    0.04481   0.10381   0.27549   0.30375   0.30596
 Alpha virt. eigenvalues --    0.37058   0.44257   0.49485   0.57177   0.60688
 Alpha virt. eigenvalues --    0.65517   0.81485   0.94635   0.95726   1.03359

 Mulliken charges:
               1
     1  O   -0.425255
     2  H    0.220604
     3  H    0.204651
 Sum of Mulliken charges =   0.00000

 Dipole moment (field-independent basis, Debye):
    X=             -0.0198    Y=             -2.0386    Z=              0.0000  Tot=              2.0387
 Quadrupole moment (field-independent basis, Debye-Ang):
   XX=             -4.5896   YY=             -6.1570   ZZ=             -7.5668
   XY=             -0.0807   XZ=              0.0000   YZ=              0.0000

 1\1\GINC-NODE18\SP\RB2PLYPD3-FC\def2QZVP\H2O1\BOITTIER\26-Aug-2020\0\\
 #p B2PLYPD3/Def2QZVP\\h2o\\0,1\O,0,-5.326605,-0.766388,0.929724\H,0,-4
 .368927,-0.639201,0.857958\H,0,-5.609308,0.085456,0.671792\\Version=ES
 64L-G09RevD.01\State=1-A'\HF=-76.3335654\MP2=-76.4235039\RMSD=5.265e-0
 9\PG=CS [SG(H2O1)]\\@

 LENDING MONEY TO FRIENDS CAUSES THEM TO LOSE THEIR MEMORIES.

 Normal termination of Gaussian 09 at Wed Aug 26 08:35:47 2020.
