 Gaussian 09, Revision D.01,
 Gaussian 09:  ES64L-G09RevD.01 24-Apr-2013

 --------------------
 #p B2PLYPD3/Def2QZVP
 --------------------

 ---
 h2o
 ---
 Symbolic Z-matrix:
 Charge =  0 Multiplicity = 1

                         Standard orientation:
 ---------------------------------------------------------------------
 Center     Atomic      Atomic             Coordinates (Angstroms)
 Number     Number       Type             X           Y           Z
 ---------------------------------------------------------------------
      1          8           0        0.000000    0.119163    0.000000
      2          1           0        0.747328   -0.484262    0.000000
      3          1           0       -0.747328   -0.469045    0.000000
 ---------------------------------------------------------------------

 SCF Done:  E(RB2PLYPD3) =  -76.3350107958     A.U. after   10 cycles
 E2(B2PLYPD3) =    -0.8995365449D-01 E(B2PLYPD3) =    -0.76424964450319D+02

 The electronic state is 1-A'.
 Alpha  occ. eigenvalues --  -19.73156  -1.15949  -0.61076  -0.47841  -0.40035
 Alpha virt. eigenvalues --    0.04533   0.10268   0.27524   0.30399   0.30878
 Alpha virt. eigenvalues --    0.36323   0.44068   0.49974   0.56566   0.61688
 Alpha virt. eigenvalues --    0.65596   0.81314   0.94114   0.95842   1.03716

 Mulliken charges:
               1
     1  O   -0.437003
     2  H    0.220637
     3  H    0.216366
 Sum of Mulliken charges =   0.00000

 Dipole moment (field-independent basis, Debye):
    X=             -0.0050    Y=             -1.9863    Z=              0.0000  Tot=              1.9863
 Quadrupole moment (field-independent basis, Debye-Ang):
   XX=             -4.4199   YY=             -6.2719   ZZ=             -7.5835
   XY=             -0.0243   XZ=              0.0000   YZ=              0.0000

 1\1\GINC-NODE39\SP\RB2PLYPD3-FC\def2QZVP\H2O1\BOITTIER\26-Aug-2020\0\\
 #p B2PLYPD3/Def2QZVP\\h2o\\0,1\O,0,-5.326605,-0.765332,0.922903\H,0,-4
 .368927,-0.693274,0.906088\H,0,-5.609308,0.122625,0.732903\\Version=ES
 64L-G09RevD.01\State=1-A'\HF=-76.3350108\MP2=-76.4249645\RMSD=4.322e-0
 9\PG=CS [SG(H2O1)]\\@

 THAT'S WHAT MAKES US A GREAT COUNTRY.

 Normal termination of Gaussian 09 at Wed Aug 26 10:49:04 2020.
