 Gaussian 09, Revision D.01,
 Gaussian 09:  ES64L-G09RevD.01 24-Apr-2013

 --------------------
 #p B2PLYPD3/Def2QZVP
 --------------------

 ---
 h2o
 ---
 Symbolic Z-matrix:
 Charge =  0 Multiplicity = 1

                         Standard orientation:
 ---------------------------------------------------------------------
 Center     Atomic      Atomic             Coordinates (Angstroms)
 Number     Number       Type             X           Y           Z
 ---------------------------------------------------------------------
      1          8           0        0.000000    0.115347    0.000000
      2          1           0        0.786606   -0.431366    0.000000
      3          1           0       -0.786606   -0.491409    0.000000
 ---------------------------------------------------------------------

 SCF Done:  E(RB2PLYPD3) =  -76.3332943005     A.U. after   10 cycles
 E2(B2PLYPD3) =    -0.9047137553D-01 E(B2PLYPD3) =    -0.76423765675991D+02

 The electronic state is 1-A'.
 Alpha  occ. eigenvalues --  -19.73266  -1.14719  -0.61022  -0.46687  -0.39752
 Alpha virt. eigenvalues --    0.04374   0.09999   0.27559   0.30464   0.30844
 Alpha virt. eigenvalues --    0.34743   0.43523   0.50694   0.55604   0.62921
 Alpha virt. eigenvalues --    0.65978   0.80451   0.92955   0.96359   1.03027

 Mulliken charges:
               1
     1  O   -0.461888
     2  H    0.223660
     3  H    0.238228
 Sum of Mulliken charges =   0.00000

 Dipole moment (field-independent basis, Debye):
    X=              0.0168    Y=             -1.9267    Z=              0.0000  Tot=              1.9267
 Quadrupole moment (field-independent basis, Debye-Ang):
   XX=             -4.1746   YY=             -6.4184   ZZ=             -7.6375
   XY=              0.1039   XZ=              0.0000   YZ=              0.0000

 1\1\GINC-NODE14\SP\RB2PLYPD3-FC\def2QZVP\H2O1\BOITTIER\26-Aug-2020\0\\
 #p B2PLYPD3/Def2QZVP\\h2o\\0,1\O,0,-5.326605,-0.763546,0.918025\H,0,-4
 .368927,-0.778455,0.93461\H,0,-5.609308,0.17924,0.783359\\Version=ES64
 L-G09RevD.01\State=1-A'\HF=-76.3332943\MP2=-76.4237657\RMSD=4.474e-09\
 PG=CS [SG(H2O1)]\\@

 ... A MOLECULAR SYSTEM ... (PASSES) ... FROM ONE STATE OF EQUILIBRIUM

 Normal termination of Gaussian 09 at Wed Aug 26 08:30:07 2020.
