 Gaussian 09, Revision D.01,
 Gaussian 09:  ES64L-G09RevD.01 24-Apr-2013

 --------------------
 #p B2PLYPD3/Def2QZVP
 --------------------

 ---
 h2o
 ---
 Symbolic Z-matrix:
 Charge =  0 Multiplicity = 1

                         Standard orientation:
 ---------------------------------------------------------------------
 Center     Atomic      Atomic             Coordinates (Angstroms)
 Number     Number       Type             X           Y           Z
 ---------------------------------------------------------------------
      1          8           0        0.000000    0.116789    0.000000
      2          1           0        0.757361   -0.471665    0.000000
      3          1           0       -0.757361   -0.462647    0.000000
 ---------------------------------------------------------------------

 SCF Done:  E(RB2PLYPD3) =  -76.3351890170     A.U. after   10 cycles
 E2(B2PLYPD3) =    -0.8991411396D-01 E(B2PLYPD3) =    -0.76425103130944D+02

 The electronic state is 1-A'.
 Alpha  occ. eigenvalues --  -19.73090  -1.15785  -0.61401  -0.47479  -0.39984
 Alpha virt. eigenvalues --    0.04565   0.10230   0.27498   0.30406   0.31044
 Alpha virt. eigenvalues --    0.35998   0.44041   0.50295   0.56277   0.62228
 Alpha virt. eigenvalues --    0.65571   0.81212   0.93898   0.95885   1.04052

 Mulliken charges:
               1
     1  O   -0.441415
     2  H    0.221953
     3  H    0.219462
 Sum of Mulliken charges =   0.00000

 Dipole moment (field-independent basis, Debye):
    X=             -0.0028    Y=             -1.9582    Z=              0.0000  Tot=              1.9582
 Quadrupole moment (field-independent basis, Debye-Ang):
   XX=             -4.3388   YY=             -6.3271   ZZ=             -7.5882
   XY=             -0.0148   XZ=              0.0000   YZ=              0.0000

 1\1\GINC-NODE34\SP\RB2PLYPD3-FC\def2QZVP\H2O1\BOITTIER\26-Aug-2020\0\\
 #p B2PLYPD3/Def2QZVP\\h2o\\0,1\O,0,-5.326605,-0.76341,0.924113\H,0,-4.
 368927,-0.728937,0.884908\H,0,-5.609308,0.127535,0.735335\\Version=ES6
 4L-G09RevD.01\State=1-A'\HF=-76.335189\MP2=-76.4251031\RMSD=4.096e-09\
 PG=CS [SG(H2O1)]\\@

 VIRTUE IS LEARNED AT YOUR MOTHER'S KNEE,

 Normal termination of Gaussian 09 at Wed Aug 26 11:05:01 2020.
