 Gaussian 09, Revision D.01,
 Gaussian 09:  ES64L-G09RevD.01 24-Apr-2013

 --------------------
 #p B2PLYPD3/Def2QZVP
 --------------------

 ---
 h2o
 ---
 Symbolic Z-matrix:
 Charge =  0 Multiplicity = 1

                         Standard orientation:
 ---------------------------------------------------------------------
 Center     Atomic      Atomic             Coordinates (Angstroms)
 Number     Number       Type             X           Y           Z
 ---------------------------------------------------------------------
      1          8           0        0.000000    0.122994    0.000000
      2          1           0        0.715262   -0.532541    0.000000
      3          1           0       -0.715262   -0.451409    0.000000
 ---------------------------------------------------------------------

 SCF Done:  E(RB2PLYPD3) =  -76.3323434000     A.U. after   10 cycles
 E2(B2PLYPD3) =    -0.8970716156D-01 E(B2PLYPD3) =    -0.76422050561594D+02

 The electronic state is 1-A'.
 Alpha  occ. eigenvalues --  -19.73104  -1.16924  -0.60801  -0.48794  -0.40240
 Alpha virt. eigenvalues --    0.04530   0.10463   0.27490   0.30355   0.30649
 Alpha virt. eigenvalues --    0.37446   0.44542   0.49508   0.57308   0.60652
 Alpha virt. eigenvalues --    0.65306   0.81620   0.94738   0.95600   1.03736

 Mulliken charges:
               1
     1  O   -0.417190
     2  H    0.221273
     3  H    0.195917
 Sum of Mulliken charges =   0.00000

 Dipole moment (field-independent basis, Debye):
    X=             -0.0302    Y=             -2.0392    Z=              0.0000  Tot=              2.0394
 Quadrupole moment (field-independent basis, Debye-Ang):
   XX=             -4.6225   YY=             -6.1374   ZZ=             -7.5487
   XY=             -0.1202   XZ=              0.0000   YZ=              0.0000

 1\1\GINC-NODE30\SP\RB2PLYPD3-FC\def2QZVP\H2O1\BOITTIER\26-Aug-2020\0\\
 #p B2PLYPD3/Def2QZVP\\h2o\\0,1\O,0,-5.326605,-0.766922,0.927055\H,0,-4
 .368927,-0.618034,0.882221\H,0,-5.609308,0.07283,0.689496\\Version=ES6
 4L-G09RevD.01\State=1-A'\HF=-76.3323434\MP2=-76.4220506\RMSD=5.885e-09
 \PG=CS [SG(H2O1)]\\@

 CHEMISTRY BEGAN BY SAYING IT WOULD CHANGE THE BASER

 Normal termination of Gaussian 09 at Wed Aug 26 09:08:45 2020.
