 Gaussian 09, Revision D.01,
 Gaussian 09:  ES64L-G09RevD.01 24-Apr-2013

 --------------------
 #p B2PLYPD3/Def2QZVP
 --------------------

 ---
 h2o
 ---
 Symbolic Z-matrix:
 Charge =  0 Multiplicity = 1

                         Standard orientation:
 ---------------------------------------------------------------------
 Center     Atomic      Atomic             Coordinates (Angstroms)
 Number     Number       Type             X           Y           Z
 ---------------------------------------------------------------------
      1          8           0        0.000000    0.120202    0.000000
      2          1           0        0.751890   -0.477703    0.000000
      3          1           0       -0.751890   -0.483916    0.000000
 ---------------------------------------------------------------------

 SCF Done:  E(RB2PLYPD3) =  -76.3348177529     A.U. after   10 cycles
 E2(B2PLYPD3) =    -0.9018240727D-01 E(B2PLYPD3) =    -0.76425000160174D+02

 The electronic state is 1-A'.
 Alpha  occ. eigenvalues --  -19.73272  -1.15635  -0.60741  -0.47778  -0.39981
 Alpha virt. eigenvalues --    0.04456   0.10205   0.27573   0.30415   0.30730
 Alpha virt. eigenvalues --    0.36042   0.43874   0.49885   0.56504   0.61589
 Alpha virt. eigenvalues --    0.65770   0.81161   0.93939   0.95980   1.03199

 Mulliken charges:
               1
     1  O   -0.441979
     2  H    0.220152
     3  H    0.221827
 Sum of Mulliken charges =   0.00000

 Dipole moment (field-independent basis, Debye):
    X=              0.0021    Y=             -1.9934    Z=              0.0000  Tot=              1.9934
 Quadrupole moment (field-independent basis, Debye-Ang):
   XX=             -4.4125   YY=             -6.2712   ZZ=             -7.5987
   XY=              0.0099   XZ=              0.0000   YZ=              0.0000

 1\1\GINC-NODE38\SP\RB2PLYPD3-FC\def2QZVP\H2O1\BOITTIER\26-Aug-2020\0\\
 #p B2PLYPD3/Def2QZVP\\h2o\\0,1\O,0,-5.326605,-0.765477,0.925344\H,0,-4
 .368927,-0.700165,0.88771\H,0,-5.609308,0.131839,0.71274\\Version=ES64
 L-G09RevD.01\State=1-A'\HF=-76.3348178\MP2=-76.4250002\RMSD=4.229e-09\
 PG=CS [SG(H2O1)]\\@

 FIREWORKS ENDED

 Normal termination of Gaussian 09 at Wed Aug 26 11:26:37 2020.
