 Gaussian 09, Revision D.01,
 Gaussian 09:  ES64L-G09RevD.01 24-Apr-2013

 --------------------
 #p B2PLYPD3/Def2QZVP
 --------------------

 ---
 h2o
 ---
 Symbolic Z-matrix:
 Charge =  0 Multiplicity = 1

                         Standard orientation:
 ---------------------------------------------------------------------
 Center     Atomic      Atomic             Coordinates (Angstroms)
 Number     Number       Type             X           Y           Z
 ---------------------------------------------------------------------
      1          8           0        0.000000    0.119322    0.000000
      2          1           0        0.747660   -0.483782    0.000000
      3          1           0       -0.747660   -0.470796    0.000000
 ---------------------------------------------------------------------

 SCF Done:  E(RB2PLYPD3) =  -76.3350017100     A.U. after   10 cycles
 E2(B2PLYPD3) =    -0.8997992159D-01 E(B2PLYPD3) =    -0.76424981631575D+02

 The electronic state is 1-A'.
 Alpha  occ. eigenvalues --  -19.73170  -1.15917  -0.61032  -0.47841  -0.40029
 Alpha virt. eigenvalues --    0.04524   0.10262   0.27530   0.30401   0.30860
 Alpha virt. eigenvalues --    0.36297   0.44046   0.49959   0.56564   0.61667
 Alpha virt. eigenvalues --    0.65616   0.81299   0.94101   0.95857   1.03654

 Mulliken charges:
               1
     1  O   -0.437505
     2  H    0.220567
     3  H    0.216937
 Sum of Mulliken charges =   0.00000

 Dipole moment (field-independent basis, Debye):
    X=             -0.0043    Y=             -1.9876    Z=              0.0000  Tot=              1.9876
 Quadrupole moment (field-independent basis, Debye-Ang):
   XX=             -4.4205   YY=             -6.2709   ZZ=             -7.5852
   XY=             -0.0207   XZ=              0.0000   YZ=              0.0000

 1\1\GINC-NODE33\SP\RB2PLYPD3-FC\def2QZVP\H2O1\BOITTIER\26-Aug-2020\0\\
 #p B2PLYPD3/Def2QZVP\\h2o\\0,1\O,0,-5.326605,-0.765294,0.923572\H,0,-4
 .368927,-0.694209,0.900563\H,0,-5.609308,0.122963,0.727835\\Version=ES
 64L-G09RevD.01\State=1-A'\HF=-76.3350017\MP2=-76.4249816\RMSD=4.308e-0
 9\PG=CS [SG(H2O1)]\\@

 IF THERE IS ONE WAY BETTER THAN ANOTHER IT IS THE WAY OF NATURE.

 Normal termination of Gaussian 09 at Wed Aug 26 10:07:54 2020.
