 Gaussian 09, Revision D.01,
 Gaussian 09:  ES64L-G09RevD.01 24-Apr-2013

 --------------------
 #p B2PLYPD3/Def2QZVP
 --------------------

 ---
 h2o
 ---
 Symbolic Z-matrix:
 Charge =  0 Multiplicity = 1

                         Standard orientation:
 ---------------------------------------------------------------------
 Center     Atomic      Atomic             Coordinates (Angstroms)
 Number     Number       Type             X           Y           Z
 ---------------------------------------------------------------------
      1          8           0        0.000000    0.118671    0.000000
      2          1           0        0.744377   -0.488671    0.000000
      3          1           0       -0.744377   -0.460698    0.000000
 ---------------------------------------------------------------------

 SCF Done:  E(RB2PLYPD3) =  -76.3349424250     A.U. after   10 cycles
 E2(B2PLYPD3) =    -0.8982863467D-01 E(B2PLYPD3) =    -0.76424771059709D+02

 The electronic state is 1-A'.
 Alpha  occ. eigenvalues --  -19.73092  -1.16136  -0.61253  -0.47888  -0.40067
 Alpha virt. eigenvalues --    0.04571   0.10304   0.27497   0.30389   0.30944
 Alpha virt. eigenvalues --    0.36493   0.44184   0.50013   0.56607   0.61726
 Alpha virt. eigenvalues --    0.65497   0.81400   0.94201   0.95767   1.03972

 Mulliken charges:
               1
     1  O   -0.433857
     2  H    0.220947
     3  H    0.212910
 Sum of Mulliken charges =   0.00000

 Dipole moment (field-independent basis, Debye):
    X=             -0.0092    Y=             -1.9834    Z=              0.0000  Tot=              1.9834
 Quadrupole moment (field-independent basis, Debye-Ang):
   XX=             -4.4270   YY=             -6.2698   ZZ=             -7.5748
   XY=             -0.0445   XZ=              0.0000   YZ=              0.0000

 1\1\GINC-NODE35\SP\RB2PLYPD3-FC\def2QZVP\H2O1\BOITTIER\26-Aug-2020\0\\
 #p B2PLYPD3/Def2QZVP\\h2o\\0,1\O,0,-5.326605,-0.764965,0.923022\H,0,-4
 .368927,-0.691426,0.902839\H,0,-5.609308,0.114908,0.73416\\Version=ES6
 4L-G09RevD.01\State=1-A'\HF=-76.3349424\MP2=-76.4247711\RMSD=4.478e-09
 \PG=CS [SG(H2O1)]\\@

 THEORY:  SUPPOSITION WHICH HAS SCIENTIFIC BASIS,

 Normal termination of Gaussian 09 at Wed Aug 26 08:05:05 2020.
