 Gaussian 09, Revision D.01,
 Gaussian 09:  ES64L-G09RevD.01 24-Apr-2013

 --------------------
 #p B2PLYPD3/Def2QZVP
 --------------------

 ---
 h2o
 ---
 Symbolic Z-matrix:
 Charge =  0 Multiplicity = 1

                         Standard orientation:
 ---------------------------------------------------------------------
 Center     Atomic      Atomic             Coordinates (Angstroms)
 Number     Number       Type             X           Y           Z
 ---------------------------------------------------------------------
      1          8           0        0.000000    0.117174    0.000000
      2          1           0        0.772758   -0.449356    0.000000
      3          1           0       -0.772758   -0.488032    0.000000
 ---------------------------------------------------------------------

 SCF Done:  E(RB2PLYPD3) =  -76.3342727532     A.U. after   10 cycles
 E2(B2PLYPD3) =    -0.9033046612D-01 E(B2PLYPD3) =    -0.76424603219329D+02

 The electronic state is 1-A'.
 Alpha  occ. eigenvalues --  -19.73261  -1.15096  -0.60958  -0.47117  -0.39847
 Alpha virt. eigenvalues --    0.04423   0.10085   0.27564   0.30443   0.30830
 Alpha virt. eigenvalues --    0.35266   0.43673   0.50355   0.55960   0.62402
 Alpha virt. eigenvalues --    0.65881   0.80791   0.93353   0.96185   1.03185

 Mulliken charges:
               1
     1  O   -0.453619
     2  H    0.221905
     3  H    0.231714
 Sum of Mulliken charges =   0.00000

 Dipole moment (field-independent basis, Debye):
    X=              0.0116    Y=             -1.9525    Z=              0.0000  Tot=              1.9526
 Quadrupole moment (field-independent basis, Debye-Ang):
   XX=             -4.2688   YY=             -6.3616   ZZ=             -7.6207
   XY=              0.0649   XZ=              0.0000   YZ=              0.0000

 1\1\GINC-NODE37\SP\RB2PLYPD3-FC\def2QZVP\H2O1\BOITTIER\26-Aug-2020\0\\
 #p B2PLYPD3/Def2QZVP\\h2o\\0,1\O,0,-5.326605,-0.764781,0.918163\H,0,-4
 .368927,-0.743564,0.940822\H,0,-5.609308,0.16411,0.774397\\Version=ES6
 4L-G09RevD.01\State=1-A'\HF=-76.3342728\MP2=-76.4246032\RMSD=4.188e-09
 \PG=CS [SG(H2O1)]\\@

      LET US REMEMBER, PLEASE, THAT THE SEARCH FOR THE CONSTITUTION

 Normal termination of Gaussian 09 at Wed Aug 26 10:14:37 2020.
