 Gaussian 09, Revision D.01,
 Gaussian 09:  ES64L-G09RevD.01 24-Apr-2013

 --------------------
 #p B2PLYPD3/Def2QZVP
 --------------------

 ---
 h2o
 ---
 Symbolic Z-matrix:
 Charge =  0 Multiplicity = 1

                         Standard orientation:
 ---------------------------------------------------------------------
 Center     Atomic      Atomic             Coordinates (Angstroms)
 Number     Number       Type             X           Y           Z
 ---------------------------------------------------------------------
      1          8           0        0.000000    0.120975    0.000000
      2          1           0        0.733306   -0.504757    0.000000
      3          1           0       -0.733306   -0.463047    0.000000
 ---------------------------------------------------------------------

 SCF Done:  E(RB2PLYPD3) =  -76.3343650596     A.U. after   10 cycles
 E2(B2PLYPD3) =    -0.8985141092D-01 E(B2PLYPD3) =    -0.76424216470558D+02

 The electronic state is 1-A'.
 Alpha  occ. eigenvalues --  -19.73144  -1.16352  -0.60940  -0.48270  -0.40124
 Alpha virt. eigenvalues --    0.04538   0.10352   0.27517   0.30380   0.30784
 Alpha virt. eigenvalues --    0.36837   0.44244   0.49732   0.56909   0.61197
 Alpha virt. eigenvalues --    0.65491   0.81477   0.94439   0.95725   1.03698

 Mulliken charges:
               1
     1  O   -0.428733
     2  H    0.220488
     3  H    0.208245
 Sum of Mulliken charges =   0.00000

 Dipole moment (field-independent basis, Debye):
    X=             -0.0146    Y=             -2.0111    Z=              0.0000  Tot=              2.0111
 Quadrupole moment (field-independent basis, Debye-Ang):
   XX=             -4.5113   YY=             -6.2122   ZZ=             -7.5686
   XY=             -0.0644   XZ=              0.0000   YZ=              0.0000

 1\1\GINC-NODE33\SP\RB2PLYPD3-FC\def2QZVP\H2O1\BOITTIER\26-Aug-2020\0\\
 #p B2PLYPD3/Def2QZVP\\h2o\\0,1\O,0,-5.326605,-0.766198,0.92455\H,0,-4.
 368927,-0.659296,0.898042\H,0,-5.609308,0.102511,0.71421\\Version=ES64
 L-G09RevD.01\State=1-A'\HF=-76.3343651\MP2=-76.4242165\RMSD=4.890e-09\
 PG=CS [SG(H2O1)]\\@

 When cryptography is outlawed, bayl bhgynjf jvyy unir cevinpl.

 Normal termination of Gaussian 09 at Wed Aug 26 12:55:07 2020.
