 Gaussian 09, Revision D.01,
 Gaussian 09:  ES64L-G09RevD.01 24-Apr-2013

 --------------------
 #p B2PLYPD3/Def2QZVP
 --------------------

 ---
 h2o
 ---
 Symbolic Z-matrix:
 Charge =  0 Multiplicity = 1

                         Standard orientation:
 ---------------------------------------------------------------------
 Center     Atomic      Atomic             Coordinates (Angstroms)
 Number     Number       Type             X           Y           Z
 ---------------------------------------------------------------------
      1          8           0        0.000000    0.118010    0.000000
      2          1           0        0.798764   -0.415384    0.000000
      3          1           0       -0.798764   -0.528700    0.000000
 ---------------------------------------------------------------------

 SCF Done:  E(RB2PLYPD3) =  -76.3297399016     A.U. after   10 cycles
 E2(B2PLYPD3) =    -0.9109551103D-01 E(B2PLYPD3) =    -0.76420835412655D+02

 The electronic state is 1-A'.
 Alpha  occ. eigenvalues --  -19.73539  -1.13994  -0.60155  -0.46487  -0.39615
 Alpha virt. eigenvalues --    0.04097   0.09825   0.27644   0.30151   0.30504
 Alpha virt. eigenvalues --    0.34224   0.43123   0.50468   0.55381   0.62692
 Alpha virt. eigenvalues --    0.66388   0.79921   0.92078   0.96666   1.01553

 Mulliken charges:
               1
     1  O   -0.472066
     2  H    0.223612
     3  H    0.248454
 Sum of Mulliken charges =   0.00000

 Dipole moment (field-independent basis, Debye):
    X=              0.0321    Y=             -1.9434    Z=              0.0000  Tot=              1.9437
 Quadrupole moment (field-independent basis, Debye-Ang):
   XX=             -4.1495   YY=             -6.4100   ZZ=             -7.6775
   XY=              0.1968   XZ=              0.0000   YZ=              0.0000

 1\1\GINC-NODE25\SP\RB2PLYPD3-FC\def2QZVP\H2O1\BOITTIER\26-Aug-2020\0\\
 #p B2PLYPD3/Def2QZVP\\h2o\\0,1\O,0,-5.326605,-0.765742,0.913373\H,0,-4
 .368927,-0.780697,0.985228\H,0,-5.609308,0.216614,0.807\\Version=ES64L
 -G09RevD.01\State=1-A'\HF=-76.3297399\MP2=-76.4208354\RMSD=5.658e-09\P
 G=CS [SG(H2O1)]\\@

 There are more things in heaven and earth, Horatio,

 Normal termination of Gaussian 09 at Wed Aug 26 09:08:12 2020.
