 Gaussian 09, Revision D.01,
 Gaussian 09:  ES64L-G09RevD.01 24-Apr-2013

 --------------------
 #p B2PLYPD3/Def2QZVP
 --------------------

 ---
 h2o
 ---
 Symbolic Z-matrix:
 Charge =  0 Multiplicity = 1

                         Standard orientation:
 ---------------------------------------------------------------------
 Center     Atomic      Atomic             Coordinates (Angstroms)
 Number     Number       Type             X           Y           Z
 ---------------------------------------------------------------------
      1          8           0        0.000000    0.119356    0.000000
      2          1           0        0.791431   -0.421483    0.000000
      3          1           0       -0.791431   -0.533365    0.000000
 ---------------------------------------------------------------------

 SCF Done:  E(RB2PLYPD3) =  -76.3301524751     A.U. after   10 cycles
 E2(B2PLYPD3) =    -0.9106472989D-01 E(B2PLYPD3) =    -0.76421217205020D+02

 The electronic state is 1-A'.
 Alpha  occ. eigenvalues --  -19.73562  -1.14150  -0.60049  -0.46723  -0.39660
 Alpha virt. eigenvalues --    0.04107   0.09862   0.27662   0.30093   0.30495
 Alpha virt. eigenvalues --    0.34456   0.43183   0.50240   0.55570   0.62370
 Alpha virt. eigenvalues --    0.66360   0.80101   0.92229   0.96614   1.01502

 Mulliken charges:
               1
     1  O   -0.467985
     2  H    0.221518
     3  H    0.246467
 Sum of Mulliken charges =   0.00000

 Dipole moment (field-independent basis, Debye):
    X=              0.0331    Y=             -1.9605    Z=              0.0000  Tot=              1.9607
 Quadrupole moment (field-independent basis, Debye-Ang):
   XX=             -4.2053   YY=             -6.3747   ZZ=             -7.6709
   XY=              0.1910   XZ=              0.0000   YZ=              0.0000

 1\1\GINC-NODE15\SP\RB2PLYPD3-FC\def2QZVP\H2O1\BOITTIER\26-Aug-2020\0\\
 #p B2PLYPD3/Def2QZVP\\h2o\\0,1\O,0,-5.326605,-0.766383,0.917211\H,0,-4
 .368927,-0.762919,0.958577\H,0,-5.609308,0.209086,0.772478\\Version=ES
 64L-G09RevD.01\State=1-A'\HF=-76.3301525\MP2=-76.4212172\RMSD=5.576e-0
 9\PG=CS [SG(H2O1)]\\@

 YE HAVE SOWN MUCH, AND BRING IN LITTLE.

 Normal termination of Gaussian 09 at Wed Aug 26 08:31:26 2020.
