 Gaussian 09, Revision D.01,
 Gaussian 09:  ES64L-G09RevD.01 24-Apr-2013

 --------------------
 #p B2PLYPD3/Def2QZVP
 --------------------

 ---
 h2o
 ---
 Symbolic Z-matrix:
 Charge =  0 Multiplicity = 1

                         Standard orientation:
 ---------------------------------------------------------------------
 Center     Atomic      Atomic             Coordinates (Angstroms)
 Number     Number       Type             X           Y           Z
 ---------------------------------------------------------------------
      1          8           0        0.000000    0.118390    0.000000
      2          1           0        0.743348   -0.490232    0.000000
      3          1           0       -0.743348   -0.456891    0.000000
 ---------------------------------------------------------------------

 SCF Done:  E(RB2PLYPD3) =  -76.3348824810     A.U. after   10 cycles
 E2(B2PLYPD3) =    -0.8977271650D-01 E(B2PLYPD3) =    -0.76424655197475D+02

 The electronic state is 1-A'.
 Alpha  occ. eigenvalues --  -19.73062  -1.16215  -0.61340  -0.47898  -0.40080
 Alpha virt. eigenvalues --    0.04589   0.10319   0.27484   0.30385   0.30976
 Alpha virt. eigenvalues --    0.36559   0.44236   0.50038   0.56617   0.61757
 Alpha virt. eigenvalues --    0.65452   0.81435   0.94229   0.95736   1.04087

 Mulliken charges:
               1
     1  O   -0.432541
     2  H    0.221107
     3  H    0.211434
 Sum of Mulliken charges =   0.00000

 Dipole moment (field-independent basis, Debye):
    X=             -0.0110    Y=             -1.9813    Z=              0.0000  Tot=              1.9813
 Quadrupole moment (field-independent basis, Debye-Ang):
   XX=             -4.4280   YY=             -6.2703   ZZ=             -7.5711
   XY=             -0.0531   XZ=              0.0000   YZ=              0.0000

 1\1\GINC-NODE25\SP\RB2PLYPD3-FC\def2QZVP\H2O1\BOITTIER\26-Aug-2020\0\\
 #p B2PLYPD3/Def2QZVP\\h2o\\0,1\O,0,-5.326605,-0.764761,0.923063\H,0,-4
 .368927,-0.691515,0.901247\H,0,-5.609308,0.111739,0.735069\\Version=ES
 64L-G09RevD.01\State=1-A'\HF=-76.3348825\MP2=-76.4246552\RMSD=4.561e-0
 9\PG=CS [SG(H2O1)]\\@

 THE ONLY TROUBLE WITH A SURE THING IS THE UNCERTAINTY.

 Normal termination of Gaussian 09 at Wed Aug 26 10:00:31 2020.
