 Gaussian 09, Revision D.01,
 Gaussian 09:  ES64L-G09RevD.01 24-Apr-2013

 --------------------
 #p B2PLYPD3/Def2QZVP
 --------------------

 ---
 h2o
 ---
 Symbolic Z-matrix:
 Charge =  0 Multiplicity = 1

                         Standard orientation:
 ---------------------------------------------------------------------
 Center     Atomic      Atomic             Coordinates (Angstroms)
 Number     Number       Type             X           Y           Z
 ---------------------------------------------------------------------
      1          8           0        0.000000    0.116170    0.000000
      2          1           0        0.754788   -0.476108    0.000000
      3          1           0       -0.754788   -0.453253    0.000000
 ---------------------------------------------------------------------

 SCF Done:  E(RB2PLYPD3) =  -76.3351728472     A.U. after   10 cycles
 E2(B2PLYPD3) =    -0.8978404286D-01 E(B2PLYPD3) =    -0.76424956890034D+02

 The electronic state is 1-A'.
 Alpha  occ. eigenvalues --  -19.73022  -1.15967  -0.61601  -0.47509  -0.40015
 Alpha virt. eigenvalues --    0.04607   0.10264   0.27469   0.30397   0.31121
 Alpha virt. eigenvalues --    0.36155   0.44157   0.50351   0.56306   0.62294
 Alpha virt. eigenvalues --    0.65469   0.81302   0.93985   0.95810   1.04333

 Mulliken charges:
               1
     1  O   -0.438383
     2  H    0.222422
     3  H    0.215962
 Sum of Mulliken charges =   0.00000

 Dipole moment (field-independent basis, Debye):
    X=             -0.0071    Y=             -1.9537    Z=              0.0000  Tot=              1.9538
 Quadrupole moment (field-independent basis, Debye-Ang):
   XX=             -4.3427   YY=             -6.3275   ZZ=             -7.5795
   XY=             -0.0375   XZ=              0.0000   YZ=              0.0000

 1\1\GINC-NODE20\SP\RB2PLYPD3-FC\def2QZVP\H2O1\BOITTIER\26-Aug-2020\0\\
 #p B2PLYPD3/Def2QZVP\\h2o\\0,1\O,0,-5.326605,-0.762842,0.924637\H,0,-4
 .368927,-0.729643,0.877225\H,0,-5.609308,0.119157,0.734628\\Version=ES
 64L-G09RevD.01\State=1-A'\HF=-76.3351728\MP2=-76.4249569\RMSD=4.227e-0
 9\PG=CS [SG(H2O1)]\\@

 THERE ARE TWO THINGS THAT EVERYBODY THINKS THEY CAN DO BETTER THAN

 Normal termination of Gaussian 09 at Wed Aug 26 10:15:49 2020.
