 Gaussian 09, Revision D.01,
 Gaussian 09:  ES64L-G09RevD.01 24-Apr-2013

 --------------------
 #p B2PLYPD3/Def2QZVP
 --------------------

 ---
 h2o
 ---
 Symbolic Z-matrix:
 Charge =  0 Multiplicity = 1

                         Standard orientation:
 ---------------------------------------------------------------------
 Center     Atomic      Atomic             Coordinates (Angstroms)
 Number     Number       Type             X           Y           Z
 ---------------------------------------------------------------------
      1          8           0        0.000000    0.116810    0.000000
      2          1           0        0.759446   -0.473529    0.000000
      3          1           0       -0.759446   -0.460951    0.000000
 ---------------------------------------------------------------------

 SCF Done:  E(RB2PLYPD3) =  -76.3351325205     A.U. after   10 cycles
 E2(B2PLYPD3) =    -0.8996621791D-01 E(B2PLYPD3) =    -0.76425098738378D+02

 The electronic state is 1-A'.
 Alpha  occ. eigenvalues --  -19.73111  -1.15693  -0.61348  -0.47429  -0.39966
 Alpha virt. eigenvalues --    0.04548   0.10211   0.27506   0.30411   0.31022
 Alpha virt. eigenvalues --    0.35899   0.43992   0.50306   0.56234   0.62256
 Alpha virt. eigenvalues --    0.65611   0.81160   0.93830   0.95924   1.03948

 Mulliken charges:
               1
     1  O   -0.443079
     2  H    0.223258
     3  H    0.219821
 Sum of Mulliken charges =   0.00000

 Dipole moment (field-independent basis, Debye):
    X=             -0.0039    Y=             -1.9571    Z=              0.0000  Tot=              1.9571
 Quadrupole moment (field-independent basis, Debye-Ang):
   XX=             -4.3290   YY=             -6.3323   ZZ=             -7.5924
   XY=             -0.0207   XZ=              0.0000   YZ=              0.0000

 1\1\GINC-NODE11\SP\RB2PLYPD3-FC\def2QZVP\H2O1\BOITTIER\26-Aug-2020\0\\
 #p B2PLYPD3/Def2QZVP\\h2o\\0,1\O,0,-5.326605,-0.764955,0.912151\H,0,-4
 .368927,-0.718518,0.989318\H,0,-5.609308,0.141848,0.820755\\Version=ES
 64L-G09RevD.01\State=1-A'\HF=-76.3351325\MP2=-76.4250987\RMSD=4.081e-0
 9\PG=CS [SG(H2O1)]\\@

 READER, WHETHER YOU BE DILETTANTE OR PROFESSOR ... SHOW YOURSELF TO BE

 Normal termination of Gaussian 09 at Wed Aug 26 08:44:40 2020.
