 Gaussian 09, Revision D.01,
 Gaussian 09:  ES64L-G09RevD.01 24-Apr-2013

 --------------------
 #p B2PLYPD3/Def2QZVP
 --------------------

 ---
 h2o
 ---
 Symbolic Z-matrix:
 Charge =  0 Multiplicity = 1

                         Standard orientation:
 ---------------------------------------------------------------------
 Center     Atomic      Atomic             Coordinates (Angstroms)
 Number     Number       Type             X           Y           Z
 ---------------------------------------------------------------------
      1          8           0        0.000000    0.114562    0.000000
      2          1           0        0.773669   -0.449982    0.000000
      3          1           0       -0.773669   -0.466513    0.000000
 ---------------------------------------------------------------------

 SCF Done:  E(RB2PLYPD3) =  -76.3348625669     A.U. after   10 cycles
 E2(B2PLYPD3) =    -0.9005826553D-01 E(B2PLYPD3) =    -0.76424920832410D+02

 The electronic state is 1-A'.
 Alpha  occ. eigenvalues --  -19.73096  -1.15330  -0.61516  -0.46971  -0.39875
 Alpha virt. eigenvalues --    0.04532   0.10131   0.27500   0.30430   0.31136
 Alpha virt. eigenvalues --    0.35343   0.43853   0.50681   0.55863   0.62848
 Alpha virt. eigenvalues --    0.65680   0.80884   0.93500   0.96076   1.04057

 Mulliken charges:
               1
     1  O   -0.451372
     2  H    0.223518
     3  H    0.227854
 Sum of Mulliken charges =   0.00000

 Dipole moment (field-independent basis, Debye):
    X=              0.0047    Y=             -1.9273    Z=              0.0000  Tot=              1.9273
 Quadrupole moment (field-independent basis, Debye-Ang):
   XX=             -4.2285   YY=             -6.3966   ZZ=             -7.6070
   XY=              0.0282   XZ=              0.0000   YZ=              0.0000

 1\1\GINC-NODE34\SP\RB2PLYPD3-FC\def2QZVP\H2O1\BOITTIER\26-Aug-2020\0\\
 #p B2PLYPD3/Def2QZVP\\h2o\\0,1\O,0,-5.326605,-0.762975,0.918217\H,0,-4
 .368927,-0.761123,0.929331\H,0,-5.609308,0.152761,0.785103\\Version=ES
 64L-G09RevD.01\State=1-A'\HF=-76.3348626\MP2=-76.4249208\RMSD=3.898e-0
 9\PG=CS [SG(H2O1)]\\@

 THE ONLY EXISTING THINGS ARE ATOMS AND EMPTY SPACE;

 Normal termination of Gaussian 09 at Wed Aug 26 10:54:25 2020.
