 Gaussian 09, Revision D.01,
 Gaussian 09:  ES64L-G09RevD.01 24-Apr-2013

 --------------------
 #p B2PLYPD3/Def2QZVP
 --------------------

 ---
 h2o
 ---
 Symbolic Z-matrix:
 Charge =  0 Multiplicity = 1

                         Standard orientation:
 ---------------------------------------------------------------------
 Center     Atomic      Atomic             Coordinates (Angstroms)
 Number     Number       Type             X           Y           Z
 ---------------------------------------------------------------------
      1          8           0        0.000000    0.114861    0.000000
      2          1           0        0.763153   -0.464759    0.000000
      3          1           0       -0.763153   -0.454130    0.000000
 ---------------------------------------------------------------------

 SCF Done:  E(RB2PLYPD3) =  -76.3352192556     A.U. after   10 cycles
 E2(B2PLYPD3) =    -0.8983617098D-01 E(B2PLYPD3) =    -0.76425055426539D+02

 The electronic state is 1-A'.
 Alpha  occ. eigenvalues --  -19.73014  -1.15747  -0.61705  -0.47241  -0.39962
 Alpha virt. eigenvalues --    0.04603   0.10217   0.27468   0.30407   0.31197
 Alpha virt. eigenvalues --    0.35826   0.44070   0.50563   0.56091   0.62639
 Alpha virt. eigenvalues --    0.65511   0.81158   0.93805   0.95893   1.04429

 Mulliken charges:
               1
     1  O   -0.443331
     2  H    0.223132
     3  H    0.220200
 Sum of Mulliken charges =   0.00000

 Dipole moment (field-independent basis, Debye):
    X=             -0.0031    Y=             -1.9364    Z=              0.0000  Tot=              1.9364
 Quadrupole moment (field-independent basis, Debye-Ang):
   XX=             -4.2843   YY=             -6.3656   ZZ=             -7.5879
   XY=             -0.0178   XZ=              0.0000   YZ=              0.0000

 1\1\GINC-NODE33\SP\RB2PLYPD3-FC\def2QZVP\H2O1\BOITTIER\26-Aug-2020\0\\
 #p B2PLYPD3/Def2QZVP\\h2o\\0,1\O,0,-5.326605,-0.763344,0.916824\H,0,-4
 .368927,-0.739705,0.942443\H,0,-5.609308,0.137249,0.79368\\Version=ES6
 4L-G09RevD.01\State=1-A'\HF=-76.3352193\MP2=-76.4250554\RMSD=3.996e-09
 \PG=CS [SG(H2O1)]\\@

 IN NATURE THERE ARE NEITHER REWARDS OR

 Normal termination of Gaussian 09 at Wed Aug 26 10:59:21 2020.
