 Gaussian 09, Revision D.01,
 Gaussian 09:  ES64L-G09RevD.01 24-Apr-2013

 --------------------
 #p B2PLYPD3/Def2QZVP
 --------------------

 ---
 h2o
 ---
 Symbolic Z-matrix:
 Charge =  0 Multiplicity = 1

                         Standard orientation:
 ---------------------------------------------------------------------
 Center     Atomic      Atomic             Coordinates (Angstroms)
 Number     Number       Type             X           Y           Z
 ---------------------------------------------------------------------
      1          8           0        0.000000    0.115365    0.000000
      2          1           0        0.776916   -0.444646    0.000000
      3          1           0       -0.776916   -0.478274    0.000000
 ---------------------------------------------------------------------

 SCF Done:  E(RB2PLYPD3) =  -76.3344222167     A.U. after   10 cycles
 E2(B2PLYPD3) =    -0.9022824069D-01 E(B2PLYPD3) =    -0.76424650457426D+02

 The electronic state is 1-A'.
 Alpha  occ. eigenvalues --  -19.73179  -1.15112  -0.61258  -0.46930  -0.39836
 Alpha virt. eigenvalues --    0.04468   0.10086   0.27531   0.30442   0.30999
 Alpha virt. eigenvalues --    0.35161   0.43721   0.50608   0.55818   0.62765
 Alpha virt. eigenvalues --    0.65806   0.80754   0.93332   0.96175   1.03592

 Mulliken charges:
               1
     1  O   -0.454770
     2  H    0.223098
     3  H    0.231672
 Sum of Mulliken charges =   0.00000

 Dipole moment (field-independent basis, Debye):
    X=              0.0097    Y=             -1.9329    Z=              0.0000  Tot=              1.9329
 Quadrupole moment (field-independent basis, Debye-Ang):
   XX=             -4.2234   YY=             -6.3948   ZZ=             -7.6182
   XY=              0.0573   XZ=              0.0000   YZ=              0.0000

 1\1\GINC-NODE35\SP\RB2PLYPD3-FC\def2QZVP\H2O1\BOITTIER\26-Aug-2020\0\\
 #p B2PLYPD3/Def2QZVP\\h2o\\0,1\O,0,-5.326605,-0.763438,0.918901\H,0,-4
 .368927,-0.762673,0.926812\H,0,-5.609308,0.161721,0.776895\\Version=ES
 64L-G09RevD.01\State=1-A'\HF=-76.3344222\MP2=-76.4246505\RMSD=4.066e-0
 9\PG=CS [SG(H2O1)]\\@

 A SOLDIER'S LIFE IS A LIFE OF HONOR, BUT A DOG WOULD NOT LEAD IT.

 Normal termination of Gaussian 09 at Wed Aug 26 11:04:26 2020.
