 Gaussian 09, Revision D.01,
 Gaussian 09:  ES64L-G09RevD.01 24-Apr-2013

 --------------------
 #p B2PLYPD3/Def2QZVP
 --------------------

 ---
 h2o
 ---
 Symbolic Z-matrix:
 Charge =  0 Multiplicity = 1

                         Standard orientation:
 ---------------------------------------------------------------------
 Center     Atomic      Atomic             Coordinates (Angstroms)
 Number     Number       Type             X           Y           Z
 ---------------------------------------------------------------------
      1          8           0        0.000000    0.117151    0.000000
      2          1           0        0.759268   -0.471469    0.000000
      3          1           0       -0.759268   -0.465741    0.000000
 ---------------------------------------------------------------------

 SCF Done:  E(RB2PLYPD3) =  -76.3351210292     A.U. after   10 cycles
 E2(B2PLYPD3) =    -0.9000058654D-01 E(B2PLYPD3) =    -0.76425121615703D+02

 The electronic state is 1-A'.
 Alpha  occ. eigenvalues --  -19.73133  -1.15663  -0.61274  -0.47451  -0.39963
 Alpha virt. eigenvalues --    0.04535   0.10205   0.27515   0.30413   0.30990
 Alpha virt. eigenvalues --    0.35888   0.43966   0.50265   0.56250   0.62197
 Alpha virt. eigenvalues --    0.65638   0.81148   0.93826   0.95938   1.03854

 Mulliken charges:
               1
     1  O   -0.443430
     2  H    0.222494
     3  H    0.220936
 Sum of Mulliken charges =   0.00000

 Dipole moment (field-independent basis, Debye):
    X=             -0.0018    Y=             -1.9605    Z=              0.0000  Tot=              1.9605
 Quadrupole moment (field-independent basis, Debye-Ang):
   XX=             -4.3346   YY=             -6.3277   ZZ=             -7.5941
   XY=             -0.0094   XZ=              0.0000   YZ=              0.0000

 1\1\GINC-NODE32\SP\RB2PLYPD3-FC\def2QZVP\H2O1\BOITTIER\26-Aug-2020\0\\
 #p B2PLYPD3/Def2QZVP\\h2o\\0,1\O,0,-5.326605,-0.762765,0.927365\H,0,-4
 .368927,-0.738109,0.855204\H,0,-5.609308,0.126399,0.713546\\Version=ES
 64L-G09RevD.01\State=1-A'\HF=-76.335121\MP2=-76.4251216\RMSD=4.060e-09
 \PG=CS [SG(H2O1)]\\@

 WE ARE PERHAPS NOT FAR REMOVED FROM THE TIME WHEN WE SHALL BE ABLE TO SUBMIT

 Normal termination of Gaussian 09 at Wed Aug 26 09:01:11 2020.
