 Gaussian 09, Revision D.01,
 Gaussian 09:  ES64L-G09RevD.01 24-Apr-2013

 --------------------
 #p B2PLYPD3/Def2QZVP
 --------------------

 ---
 h2o
 ---
 Symbolic Z-matrix:
 Charge =  0 Multiplicity = 1

                         Standard orientation:
 ---------------------------------------------------------------------
 Center     Atomic      Atomic             Coordinates (Angstroms)
 Number     Number       Type             X           Y           Z
 ---------------------------------------------------------------------
      1          8           0        0.000000    0.116239    0.000000
      2          1           0        0.746010   -0.487106    0.000000
      3          1           0       -0.746010   -0.442807    0.000000
 ---------------------------------------------------------------------

 SCF Done:  E(RB2PLYPD3) =  -76.3347976795     A.U. after   10 cycles
 E2(B2PLYPD3) =    -0.8958894030D-01 E(B2PLYPD3) =    -0.76424386619816D+02

 The electronic state is 1-A'.
 Alpha  occ. eigenvalues --  -19.72938  -1.16349  -0.61785  -0.47722  -0.40090
 Alpha virt. eigenvalues --    0.04659   0.10338   0.27432   0.30378   0.31158
 Alpha virt. eigenvalues --    0.36565   0.44371   0.50290   0.56481   0.62155
 Alpha virt. eigenvalues --    0.65311   0.81490   0.94190   0.95669   1.04592

 Mulliken charges:
               1
     1  O   -0.431061
     2  H    0.222081
     3  H    0.208980
 Sum of Mulliken charges =   0.00000

 Dipole moment (field-independent basis, Debye):
    X=             -0.0140    Y=             -1.9593    Z=              0.0000  Tot=              1.9594
 Quadrupole moment (field-independent basis, Debye-Ang):
   XX=             -4.3857   YY=             -6.3026   ZZ=             -7.5629
   XY=             -0.0717   XZ=              0.0000   YZ=              0.0000

 1\1\GINC-NODE21\SP\RB2PLYPD3-FC\def2QZVP\H2O1\BOITTIER\26-Aug-2020\0\\
 #p B2PLYPD3/Def2QZVP\\h2o\\0,1\O,0,-5.326605,-0.763539,0.921775\H,0,-4
 .368927,-0.707918,0.904029\H,0,-5.609308,0.108591,0.752863\\Version=ES
 64L-G09RevD.01\State=1-A'\HF=-76.3347977\MP2=-76.4243866\RMSD=4.677e-0
 9\PG=CS [SG(H2O1)]\\@

 THOSE WITH THE GOLD MAKE THE RULES.

 Normal termination of Gaussian 09 at Wed Aug 26 09:56:40 2020.
