 Gaussian 09, Revision D.01,
 Gaussian 09:  ES64L-G09RevD.01 24-Apr-2013

 --------------------
 #p B2PLYPD3/Def2QZVP
 --------------------

 ---
 h2o
 ---
 Symbolic Z-matrix:
 Charge =  0 Multiplicity = 1

                         Standard orientation:
 ---------------------------------------------------------------------
 Center     Atomic      Atomic             Coordinates (Angstroms)
 Number     Number       Type             X           Y           Z
 ---------------------------------------------------------------------
      1          8           0        0.000000    0.117669    0.000000
      2          1           0        0.762941   -0.462955    0.000000
      3          1           0       -0.762941   -0.478395    0.000000
 ---------------------------------------------------------------------

 SCF Done:  E(RB2PLYPD3) =  -76.3348931568     A.U. after   10 cycles
 E2(B2PLYPD3) =    -0.9014778446D-01 E(B2PLYPD3) =    -0.76425040941266D+02

 The electronic state is 1-A'.
 Alpha  occ. eigenvalues --  -19.73203  -1.15450  -0.61074  -0.47385  -0.39924
 Alpha virt. eigenvalues --    0.04484   0.10162   0.27543   0.30424   0.30897
 Alpha virt. eigenvalues --    0.35687   0.43842   0.50229   0.56189   0.62168
 Alpha virt. eigenvalues --    0.65749   0.81031   0.93682   0.96031   1.03517

 Mulliken charges:
               1
     1  O   -0.446931
     2  H    0.221421
     3  H    0.225510
 Sum of Mulliken charges =   0.00000

 Dipole moment (field-independent basis, Debye):
    X=              0.0048    Y=             -1.9632    Z=              0.0000  Tot=              1.9632
 Quadrupole moment (field-independent basis, Debye-Ang):
   XX=             -4.3238   YY=             -6.3309   ZZ=             -7.6044
   XY=              0.0255   XZ=              0.0000   YZ=              0.0000

 1\1\GINC-NODE04\SP\RB2PLYPD3-FC\def2QZVP\H2O1\BOITTIER\26-Aug-2020\0\\
 #p B2PLYPD3/Def2QZVP\\h2o\\0,1\O,0,-5.326605,-0.765043,0.91873\H,0,-4.
 368927,-0.723878,0.937733\H,0,-5.609308,0.148609,0.768095\\Version=ES6
 4L-G09RevD.01\State=1-A'\HF=-76.3348932\MP2=-76.4250409\RMSD=4.057e-09
 \PG=CS [SG(H2O1)]\\@

 IF IT'S NOT TRUE, IT'S WELL INVENTED -- DANTE

 Normal termination of Gaussian 09 at Wed Aug 26 10:52:43 2020.
