 Gaussian 09, Revision D.01,
 Gaussian 09:  ES64L-G09RevD.01 24-Apr-2013

 --------------------
 #p B2PLYPD3/Def2QZVP
 --------------------

 ---
 h2o
 ---
 Symbolic Z-matrix:
 Charge =  0 Multiplicity = 1

                         Standard orientation:
 ---------------------------------------------------------------------
 Center     Atomic      Atomic             Coordinates (Angstroms)
 Number     Number       Type             X           Y           Z
 ---------------------------------------------------------------------
      1          8           0        0.000000    0.114944    0.000000
      2          1           0        0.758661   -0.470287    0.000000
      3          1           0       -0.758661   -0.449262    0.000000
 ---------------------------------------------------------------------

 SCF Done:  E(RB2PLYPD3) =  -76.3352110335     A.U. after   10 cycles
 E2(B2PLYPD3) =    -0.8973857850D-01 E(B2PLYPD3) =    -0.76424949611976D+02

 The electronic state is 1-A'.
 Alpha  occ. eigenvalues --  -19.72976  -1.15934  -0.61793  -0.47353  -0.40000
 Alpha virt. eigenvalues --    0.04631   0.10254   0.27452   0.30398   0.31218
 Alpha virt. eigenvalues --    0.36036   0.44170   0.50521   0.56184   0.62558
 Alpha virt. eigenvalues --    0.65435   0.81267   0.93923   0.95816   1.04570

 Mulliken charges:
               1
     1  O   -0.439728
     2  H    0.222829
     3  H    0.216899
 Sum of Mulliken charges =   0.00000

 Dipole moment (field-independent basis, Debye):
    X=             -0.0063    Y=             -1.9398    Z=              0.0000  Tot=              1.9398
 Quadrupole moment (field-independent basis, Debye-Ang):
   XX=             -4.3073   YY=             -6.3525   ZZ=             -7.5796
   XY=             -0.0349   XZ=              0.0000   YZ=              0.0000

 1\1\GINC-NODE37\SP\RB2PLYPD3-FC\def2QZVP\H2O1\BOITTIER\26-Aug-2020\0\\
 #p B2PLYPD3/Def2QZVP\\h2o\\0,1\O,0,-5.326605,-0.763154,0.918804\H,0,-4
 .368927,-0.733652,0.925483\H,0,-5.609308,0.128161,0.779051\\Version=ES
 64L-G09RevD.01\State=1-A'\HF=-76.335211\MP2=-76.4249496\RMSD=4.142e-09
 \PG=CS [SG(H2O1)]\\@

 A COMPUTER IS LIKE A HORSE, IT WILL SENSE WEAKNESS.

 Normal termination of Gaussian 09 at Wed Aug 26 08:35:12 2020.
