 Gaussian 09, Revision D.01,
 Gaussian 09:  ES64L-G09RevD.01 24-Apr-2013

 --------------------
 #p B2PLYPD3/Def2QZVP
 --------------------

 ---
 h2o
 ---
 Symbolic Z-matrix:
 Charge =  0 Multiplicity = 1

                         Standard orientation:
 ---------------------------------------------------------------------
 Center     Atomic      Atomic             Coordinates (Angstroms)
 Number     Number       Type             X           Y           Z
 ---------------------------------------------------------------------
      1          8           0        0.000000    0.112882    0.000000
      2          1           0        0.774692   -0.457344    0.000000
      3          1           0       -0.774692   -0.445708    0.000000
 ---------------------------------------------------------------------

 SCF Done:  E(RB2PLYPD3) =  -76.3349852754     A.U. after   10 cycles
 E2(B2PLYPD3) =    -0.8990069606D-01 E(B2PLYPD3) =    -0.76424885971449D+02

 The electronic state is 1-A'.
 Alpha  occ. eigenvalues --  -19.72993  -1.15462  -0.61866  -0.46862  -0.39889
 Alpha virt. eigenvalues --    0.04595   0.10155   0.27461   0.30422   0.31310
 Alpha virt. eigenvalues --    0.35368   0.43964   0.50903   0.55785   0.63152
 Alpha virt. eigenvalues --    0.65560   0.80921   0.93561   0.96024   1.04578

 Mulliken charges:
               1
     1  O   -0.450101
     2  H    0.226605
     3  H    0.223496
 Sum of Mulliken charges =   0.00000

 Dipole moment (field-independent basis, Debye):
    X=             -0.0032    Y=             -1.9104    Z=              0.0000  Tot=              1.9104
 Quadrupole moment (field-independent basis, Debye-Ang):
   XX=             -4.2007   YY=             -6.4197   ZZ=             -7.5992
   XY=             -0.0200   XZ=              0.0000   YZ=              0.0000

 1\1\GINC-NODE35\SP\RB2PLYPD3-FC\def2QZVP\H2O1\BOITTIER\26-Aug-2020\0\\
 #p B2PLYPD3/Def2QZVP\\h2o\\0,1\O,0,-5.326605,-0.7622,0.908855\H,0,-4.3
 68927,-0.769733,0.998865\H,0,-5.609308,0.148981,0.864151\\Version=ES64
 L-G09RevD.01\State=1-A'\HF=-76.3349853\MP2=-76.424886\RMSD=3.841e-09\P
 G=CS [SG(H2O1)]\\@

 EVANS BOLDLY PUT 50 ATM. OF ETHYLENE IN A CELL WITH 25 ATM. OF OXYGEN.

 Normal termination of Gaussian 09 at Wed Aug 26 07:57:31 2020.
