 Gaussian 09, Revision D.01,
 Gaussian 09:  ES64L-G09RevD.01 24-Apr-2013

 --------------------
 #p B2PLYPD3/Def2QZVP
 --------------------

 ---
 h2o
 ---
 Symbolic Z-matrix:
 Charge =  0 Multiplicity = 1

                         Standard orientation:
 ---------------------------------------------------------------------
 Center     Atomic      Atomic             Coordinates (Angstroms)
 Number     Number       Type             X           Y           Z
 ---------------------------------------------------------------------
      1          8           0        0.000000    0.119402    0.000000
      2          1           0        0.781531   -0.446780    0.000000
      3          1           0       -0.781531   -0.508440    0.000000
 ---------------------------------------------------------------------

 SCF Done:  E(RB2PLYPD3) =  -76.3325630493     A.U. after   10 cycles
 E2(B2PLYPD3) =    -0.9080580389D-01 E(B2PLYPD3) =    -0.76423368853159D+02

 The electronic state is 1-A'.
 Alpha  occ. eigenvalues --  -19.73487  -1.14512  -0.60268  -0.47002  -0.39744
 Alpha virt. eigenvalues --    0.04240   0.09953   0.27650   0.30431   0.30474
 Alpha virt. eigenvalues --    0.34772   0.43328   0.50150   0.55832   0.62174
 Alpha virt. eigenvalues --    0.66222   0.80436   0.92859   0.96429   1.02106

 Mulliken charges:
               1
     1  O   -0.462081
     2  H    0.223814
     3  H    0.238268
 Sum of Mulliken charges =   0.00000

 Dipole moment (field-independent basis, Debye):
    X=              0.0188    Y=             -1.9679    Z=              0.0000  Tot=              1.9680
 Quadrupole moment (field-independent basis, Debye-Ang):
   XX=             -4.2560   YY=             -6.3550   ZZ=             -7.6511
   XY=              0.1036   XZ=              0.0000   YZ=              0.0000

 1\1\GINC-NODE01\SP\RB2PLYPD3-FC\def2QZVP\H2O1\BOITTIER\26-Aug-2020\0\\
 #p B2PLYPD3/Def2QZVP\\h2o\\0,1\O,0,-5.326605,-0.766663,0.908963\H,0,-4
 .368927,-0.741712,1.02551\H,0,-5.609308,0.192361,0.83597\\Version=ES64
 L-G09RevD.01\State=1-A'\HF=-76.332563\MP2=-76.4233689\RMSD=4.490e-09\P
 G=CS [SG(H2O1)]\\@

 A COMPUTER IS LIKE A HORSE, IT WILL SENSE WEAKNESS.

 Normal termination of Gaussian 09 at Wed Aug 26 09:04:29 2020.
