 Gaussian 09, Revision D.01,
 Gaussian 09:  ES64L-G09RevD.01 24-Apr-2013

 --------------------
 #p B2PLYPD3/Def2QZVP
 --------------------

 ---
 h2o
 ---
 Symbolic Z-matrix:
 Charge =  0 Multiplicity = 1

                         Standard orientation:
 ---------------------------------------------------------------------
 Center     Atomic      Atomic             Coordinates (Angstroms)
 Number     Number       Type             X           Y           Z
 ---------------------------------------------------------------------
      1          8           0        0.000000    0.123785    0.000000
      2          1           0        0.715982   -0.531970    0.000000
      3          1           0       -0.715982   -0.458311    0.000000
 ---------------------------------------------------------------------

 SCF Done:  E(RB2PLYPD3) =  -76.3326046989     A.U. after   10 cycles
 E2(B2PLYPD3) =    -0.8981970719D-01 E(B2PLYPD3) =    -0.76422424406124D+02

 The electronic state is 1-A'.
 Alpha  occ. eigenvalues --  -19.73169  -1.16787  -0.60598  -0.48818  -0.40221
 Alpha virt. eigenvalues --    0.04496   0.10440   0.27521   0.30362   0.30582
 Alpha virt. eigenvalues --    0.37349   0.44435   0.49443   0.57328   0.60535
 Alpha virt. eigenvalues --    0.65391   0.81567   0.94757   0.95644   1.03523

 Mulliken charges:
               1
     1  O   -0.419444
     2  H    0.221034
     3  H    0.198410
 Sum of Mulliken charges =   0.00000

 Dipole moment (field-independent basis, Debye):
    X=             -0.0277    Y=             -2.0462    Z=              0.0000  Tot=              2.0464
 Quadrupole moment (field-independent basis, Debye-Ang):
   XX=             -4.6305   YY=             -6.1304   ZZ=             -7.5552
   XY=             -0.1087   XZ=              0.0000   YZ=              0.0000

 1\1\GINC-NODE12\SP\RB2PLYPD3-FC\def2QZVP\H2O1\BOITTIER\26-Aug-2020\0\\
 #p B2PLYPD3/Def2QZVP\\h2o\\0,1\O,0,-5.326605,-0.767758,0.925981\H,0,-4
 .368927,-0.610945,0.89587\H,0,-5.609308,0.079121,0.692871\\Version=ES6
 4L-G09RevD.01\State=1-A'\HF=-76.3326047\MP2=-76.4224244\RMSD=5.738e-09
 \PG=CS [SG(H2O1)]\\@

 IT IS A CAPITAL MISTAKE TO THEORIZE BEFORE ONE HAS

 Normal termination of Gaussian 09 at Wed Aug 26 08:19:02 2020.
