 Gaussian 09, Revision D.01,
 Gaussian 09:  ES64L-G09RevD.01 24-Apr-2013

 --------------------
 #p B2PLYPD3/Def2QZVP
 --------------------

 ---
 h2o
 ---
 Symbolic Z-matrix:
 Charge =  0 Multiplicity = 1

                         Standard orientation:
 ---------------------------------------------------------------------
 Center     Atomic      Atomic             Coordinates (Angstroms)
 Number     Number       Type             X           Y           Z
 ---------------------------------------------------------------------
      1          8           0        0.000000    0.118870    0.000000
      2          1           0        0.762044   -0.469308    0.000000
      3          1           0       -0.762044   -0.481649    0.000000
 ---------------------------------------------------------------------

 SCF Done:  E(RB2PLYPD3) =  -76.3347184540     A.U. after   10 cycles
 E2(B2PLYPD3) =    -0.9026508979D-01 E(B2PLYPD3) =    -0.76424983543830D+02

 The electronic state is 1-A'.
 Alpha  occ. eigenvalues --  -19.73276  -1.15356  -0.60824  -0.47465  -0.39915
 Alpha virt. eigenvalues --    0.04440   0.10144   0.27574   0.30429   0.30777
 Alpha virt. eigenvalues --    0.35658   0.43762   0.50086   0.56247   0.61957
 Alpha virt. eigenvalues --    0.65837   0.80995   0.93660   0.96077   1.03182

 Mulliken charges:
               1
     1  O   -0.447798
     2  H    0.222287
     3  H    0.225511
 Sum of Mulliken charges =   0.00000

 Dipole moment (field-independent basis, Debye):
    X=              0.0039    Y=             -1.9750    Z=              0.0000  Tot=              1.9750
 Quadrupole moment (field-independent basis, Debye-Ang):
   XX=             -4.3448   YY=             -6.3139   ZZ=             -7.6100
   XY=              0.0202   XZ=              0.0000   YZ=              0.0000

 1\1\GINC-NODE33\SP\RB2PLYPD3-FC\def2QZVP\H2O1\BOITTIER\26-Aug-2020\0\\
 #p B2PLYPD3/Def2QZVP\\h2o\\0,1\O,0,-5.326605,-0.766338,0.912805\H,0,-4
 .368927,-0.710292,0.992655\H,0,-5.609308,0.155747,0.807104\\Version=ES
 64L-G09RevD.01\State=1-A'\HF=-76.3347185\MP2=-76.4249835\RMSD=4.069e-0
 9\PG=CS [SG(H2O1)]\\@

 MICRO CREDO - NEVER TRUST A COMPUTER BIGGER

 Normal termination of Gaussian 09 at Wed Aug 26 09:03:51 2020.
