 Gaussian 09, Revision D.01,
 Gaussian 09:  ES64L-G09RevD.01 24-Apr-2013

 --------------------
 #p B2PLYPD3/Def2QZVP
 --------------------

 ---
 h2o
 ---
 Symbolic Z-matrix:
 Charge =  0 Multiplicity = 1

                         Standard orientation:
 ---------------------------------------------------------------------
 Center     Atomic      Atomic             Coordinates (Angstroms)
 Number     Number       Type             X           Y           Z
 ---------------------------------------------------------------------
      1          8           0        0.000000    0.115199    0.000000
      2          1           0        0.754614   -0.478116    0.000000
      3          1           0       -0.754614   -0.443475    0.000000
 ---------------------------------------------------------------------

 SCF Done:  E(RB2PLYPD3) =  -76.3350650528     A.U. after   10 cycles
 E2(B2PLYPD3) =    -0.8967253455D-01 E(B2PLYPD3) =    -0.76424737587358D+02

 The electronic state is 1-A'.
 Alpha  occ. eigenvalues --  -19.72952  -1.16085  -0.61829  -0.47461  -0.40031
 Alpha virt. eigenvalues --    0.04646   0.10284   0.27441   0.30390   0.31208
 Alpha virt. eigenvalues --    0.36216   0.44250   0.50464   0.56272   0.62457
 Alpha virt. eigenvalues --    0.65380   0.81350   0.94005   0.95762   1.04599

 Mulliken charges:
               1
     1  O   -0.436655
     2  H    0.223299
     3  H    0.213356
 Sum of Mulliken charges =   0.00000

 Dipole moment (field-independent basis, Debye):
    X=             -0.0105    Y=             -1.9445    Z=              0.0000  Tot=              1.9445
 Quadrupole moment (field-independent basis, Debye-Ang):
   XX=             -4.3303   YY=             -6.3382   ZZ=             -7.5733
   XY=             -0.0571   XZ=              0.0000   YZ=              0.0000

 1\1\GINC-NODE21\SP\RB2PLYPD3-FC\def2QZVP\H2O1\BOITTIER\26-Aug-2020\0\\
 #p B2PLYPD3/Def2QZVP\\h2o\\0,1\O,0,-5.326605,-0.761912,0.925538\H,0,-4
 .368927,-0.737897,0.864367\H,0,-5.609308,0.112527,0.733199\\Version=ES
 64L-G09RevD.01\State=1-A'\HF=-76.3350651\MP2=-76.4247376\RMSD=4.375e-0
 9\PG=CS [SG(H2O1)]\\@

 OF ALL THE WONDERS OF THE UNIVERSE, THE GREATEST IS MAN.

 Normal termination of Gaussian 09 at Wed Aug 26 12:39:45 2020.
