 Gaussian 09, Revision D.01,
 Gaussian 09:  ES64L-G09RevD.01 24-Apr-2013

 --------------------
 #p B2PLYPD3/Def2QZVP
 --------------------

 ---
 h2o
 ---
 Symbolic Z-matrix:
 Charge =  0 Multiplicity = 1

                         Standard orientation:
 ---------------------------------------------------------------------
 Center     Atomic      Atomic             Coordinates (Angstroms)
 Number     Number       Type             X           Y           Z
 ---------------------------------------------------------------------
      1          8           0        0.000000    0.119840    0.000000
      2          1           0        0.754193   -0.474431    0.000000
      3          1           0       -0.754193   -0.484292    0.000000
 ---------------------------------------------------------------------

 SCF Done:  E(RB2PLYPD3) =  -76.3348166569     A.U. after   10 cycles
 E2(B2PLYPD3) =    -0.9019349415D-01 E(B2PLYPD3) =    -0.76425010151064D+02

 The electronic state is 1-A'.
 Alpha  occ. eigenvalues --  -19.73268  -1.15578  -0.60775  -0.47704  -0.39967
 Alpha virt. eigenvalues --    0.04455   0.10193   0.27571   0.30418   0.30746
 Alpha virt. eigenvalues --    0.35960   0.43854   0.49935   0.56444   0.61682
 Alpha virt. eigenvalues --    0.65780   0.81129   0.93876   0.95999   1.03211

 Mulliken charges:
               1
     1  O   -0.443199
     2  H    0.220278
     3  H    0.222921
 Sum of Mulliken charges =   0.00000

 Dipole moment (field-independent basis, Debye):
    X=              0.0032    Y=             -1.9886    Z=              0.0000  Tot=              1.9886
 Quadrupole moment (field-independent basis, Debye-Ang):
   XX=             -4.3964   YY=             -6.2816   ZZ=             -7.6009
   XY=              0.0159   XZ=              0.0000   YZ=              0.0000

 1\1\GINC-NODE36\SP\RB2PLYPD3-FC\def2QZVP\H2O1\BOITTIER\26-Aug-2020\0\\
 #p B2PLYPD3/Def2QZVP\\h2o\\0,1\O,0,-5.326605,-0.765303,0.925045\H,0,-4
 .368927,-0.70594,0.889061\H,0,-5.609308,0.134839,0.716221\\Version=ES6
 4L-G09RevD.01\State=1-A'\HF=-76.3348167\MP2=-76.4250102\RMSD=4.195e-09
 \PG=CS [SG(H2O1)]\\@

 A true friend is someone who is there for

 Normal termination of Gaussian 09 at Wed Aug 26 10:06:39 2020.
