 Gaussian 09, Revision D.01,
 Gaussian 09:  ES64L-G09RevD.01 24-Apr-2013

 --------------------
 #p B2PLYPD3/Def2QZVP
 --------------------

 ---
 h2o
 ---
 Symbolic Z-matrix:
 Charge =  0 Multiplicity = 1

                         Standard orientation:
 ---------------------------------------------------------------------
 Center     Atomic      Atomic             Coordinates (Angstroms)
 Number     Number       Type             X           Y           Z
 ---------------------------------------------------------------------
      1          8           0        0.000000    0.116306    0.000000
      2          1           0        0.758228   -0.470788    0.000000
      3          1           0       -0.758228   -0.459659    0.000000
 ---------------------------------------------------------------------

 SCF Done:  E(RB2PLYPD3) =  -76.3352081169     A.U. after   10 cycles
 E2(B2PLYPD3) =    -0.8988005196D-01 E(B2PLYPD3) =    -0.76425088168810D+02

 The electronic state is 1-A'.
 Alpha  occ. eigenvalues --  -19.73065  -1.15801  -0.61491  -0.47434  -0.39984
 Alpha virt. eigenvalues --    0.04579   0.10232   0.27488   0.30405   0.31086
 Alpha virt. eigenvalues --    0.35984   0.44062   0.50357   0.56243   0.62321
 Alpha virt. eigenvalues --    0.65545   0.81215   0.93890   0.95875   1.04168

 Mulliken charges:
               1
     1  O   -0.441410
     2  H    0.222246
     3  H    0.219163
 Sum of Mulliken charges =   0.00000

 Dipole moment (field-independent basis, Debye):
    X=             -0.0034    Y=             -1.9531    Z=              0.0000  Tot=              1.9531
 Quadrupole moment (field-independent basis, Debye-Ang):
   XX=             -4.3280   YY=             -6.3352   ZZ=             -7.5870
   XY=             -0.0183   XZ=              0.0000   YZ=              0.0000

 1\1\GINC-NODE33\SP\RB2PLYPD3-FC\def2QZVP\H2O1\BOITTIER\26-Aug-2020\0\\
 #p B2PLYPD3/Def2QZVP\\h2o\\0,1\O,0,-5.326605,-0.763118,0.923923\H,0,-4
 .368927,-0.733126,0.884647\H,0,-5.609308,0.127052,0.738662\\Version=ES
 64L-G09RevD.01\State=1-A'\HF=-76.3352081\MP2=-76.4250882\RMSD=4.086e-0
 9\PG=CS [SG(H2O1)]\\@

 FORGIVE MY NONSENSE AS I ALSO FORGIVE THOSE WHO THINK THEY TALK SENSE

 Normal termination of Gaussian 09 at Wed Aug 26 10:07:07 2020.
