 Gaussian 09, Revision D.01,
 Gaussian 09:  ES64L-G09RevD.01 24-Apr-2013

 --------------------
 #p B2PLYPD3/Def2QZVP
 --------------------

 ---
 h2o
 ---
 Symbolic Z-matrix:
 Charge =  0 Multiplicity = 1

                         Standard orientation:
 ---------------------------------------------------------------------
 Center     Atomic      Atomic             Coordinates (Angstroms)
 Number     Number       Type             X           Y           Z
 ---------------------------------------------------------------------
      1          8           0        0.000000    0.121809    0.000000
      2          1           0        0.759029   -0.466709    0.000000
      3          1           0       -0.759029   -0.507761    0.000000
 ---------------------------------------------------------------------

 SCF Done:  E(RB2PLYPD3) =  -76.3338281461     A.U. after   10 cycles
 E2(B2PLYPD3) =    -0.9054587010D-01 E(B2PLYPD3) =    -0.76424374016199D+02

 The electronic state is 1-A'.
 Alpha  occ. eigenvalues --  -19.73446  -1.15162  -0.60231  -0.47668  -0.39898
 Alpha virt. eigenvalues --    0.04324   0.10104   0.27644   0.30439   0.30446
 Alpha virt. eigenvalues --    0.35614   0.43601   0.49749   0.56390   0.61450
 Alpha virt. eigenvalues --    0.66031   0.80907   0.93571   0.96202   1.02351

 Mulliken charges:
               1
     1  O   -0.448976
     2  H    0.219289
     3  H    0.229687
 Sum of Mulliken charges =   0.00000

 Dipole moment (field-independent basis, Debye):
    X=              0.0137    Y=             -2.0038    Z=              0.0000  Tot=              2.0038
 Quadrupole moment (field-independent basis, Debye-Ang):
   XX=             -4.4005   YY=             -6.2686   ZZ=             -7.6225
   XY=              0.0658   XZ=              0.0000   YZ=              0.0000

 1\1\GINC-NODE32\SP\RB2PLYPD3-FC\def2QZVP\H2O1\BOITTIER\26-Aug-2020\0\\
 #p B2PLYPD3/Def2QZVP\\h2o\\0,1\O,0,-5.326605,-0.766363,0.926216\H,0,-4
 .368927,-0.705175,0.886373\H,0,-5.609308,0.151035,0.700511\\Version=ES
 64L-G09RevD.01\State=1-A'\HF=-76.3338281\MP2=-76.424374\RMSD=4.410e-09
 \PG=CS [SG(H2O1)]\\@

 IT TAKES GREATER CHARACTER TO CARRY OFF GOOD FORTUNE THAN BAD.

 Normal termination of Gaussian 09 at Wed Aug 26 08:32:20 2020.
