 Gaussian 09, Revision D.01,
 Gaussian 09:  ES64L-G09RevD.01 24-Apr-2013

 --------------------
 #p B2PLYPD3/Def2QZVP
 --------------------

 ---
 h2o
 ---
 Symbolic Z-matrix:
 Charge =  0 Multiplicity = 1

                         Standard orientation:
 ---------------------------------------------------------------------
 Center     Atomic      Atomic             Coordinates (Angstroms)
 Number     Number       Type             X           Y           Z
 ---------------------------------------------------------------------
      1          8           0        0.000000    0.122081    0.000000
      2          1           0        0.799997   -0.411860    0.000000
      3          1           0       -0.799997   -0.564788    0.000000
 ---------------------------------------------------------------------

 SCF Done:  E(RB2PLYPD3) =  -76.3261988523     A.U. after   10 cycles
 E2(B2PLYPD3) =    -0.9162256641D-01 E(B2PLYPD3) =    -0.76417821418730D+02

 The electronic state is 1-A'.
 Alpha  occ. eigenvalues --  -19.73801  -1.13585  -0.59291  -0.46594  -0.39559
 Alpha virt. eigenvalues --    0.03838   0.09711   0.27731   0.29384   0.30524
 Alpha virt. eigenvalues --    0.34123   0.42885   0.49979   0.55400   0.62107
 Alpha virt. eigenvalues --    0.66687   0.79672   0.91334   0.96813   1.00594

 Mulliken charges:
               1
     1  O   -0.474561
     2  H    0.221653
     3  H    0.252909
 Sum of Mulliken charges =   0.00000

 Dipole moment (field-independent basis, Debye):
    X=              0.0463    Y=             -1.9789    Z=              0.0000  Tot=              1.9794
 Quadrupole moment (field-independent basis, Debye-Ang):
   XX=             -4.1997   YY=             -6.3542   ZZ=             -7.7039
   XY=              0.2607   XZ=              0.0000   YZ=              0.0000

 1\1\GINC-NODE22\SP\RB2PLYPD3-FC\def2QZVP\H2O1\BOITTIER\26-Aug-2020\0\\
 #p B2PLYPD3/Def2QZVP\\h2o\\0,1\O,0,-5.326605,-0.768479,0.913368\H,0,-4
 .368927,-0.760133,1.002091\H,0,-5.609308,0.239838,0.79024\\Version=ES6
 4L-G09RevD.01\State=1-A'\HF=-76.3261989\MP2=-76.4178214\RMSD=6.424e-09
 \PG=CS [SG(H2O1)]\\@

 I KNOW YOU BELIEVE YOU UNDERSTAND WHAT YOU THINK I SAID,

 Normal termination of Gaussian 09 at Wed Aug 26 09:13:49 2020.
