 Gaussian 09, Revision D.01,
 Gaussian 09:  ES64L-G09RevD.01 24-Apr-2013

 --------------------
 #p B2PLYPD3/Def2QZVP
 --------------------

 ---
 h2o
 ---
 Symbolic Z-matrix:
 Charge =  0 Multiplicity = 1

                         Standard orientation:
 ---------------------------------------------------------------------
 Center     Atomic      Atomic             Coordinates (Angstroms)
 Number     Number       Type             X           Y           Z
 ---------------------------------------------------------------------
      1          8           0        0.000000    0.118829    0.000000
      2          1           0        0.780909   -0.436235    0.000000
      3          1           0       -0.780909   -0.514400    0.000000
 ---------------------------------------------------------------------

 SCF Done:  E(RB2PLYPD3) =  -76.3324363475     A.U. after   10 cycles
 E2(B2PLYPD3) =    -0.9072934276D-01 E(B2PLYPD3) =    -0.76423165690232D+02

 The electronic state is 1-A'.
 Alpha  occ. eigenvalues --  -19.73441  -1.14604  -0.60406  -0.46978  -0.39756
 Alpha virt. eigenvalues --    0.04258   0.09973   0.27629   0.30444   0.30469
 Alpha virt. eigenvalues --    0.34855   0.43402   0.50220   0.55812   0.62273
 Alpha virt. eigenvalues --    0.66151   0.80467   0.92836   0.96417   1.02183

 Mulliken charges:
               1
     1  O   -0.460798
     2  H    0.221127
     3  H    0.239671
 Sum of Mulliken charges =   0.00000

 Dipole moment (field-independent basis, Debye):
    X=              0.0236    Y=             -1.9627    Z=              0.0000  Tot=              1.9628
 Quadrupole moment (field-independent basis, Debye-Ang):
   XX=             -4.2510   YY=             -6.3589   ZZ=             -7.6468
   XY=              0.1317   XZ=              0.0000   YZ=              0.0000

 1\1\GINC-NODE22\SP\RB2PLYPD3-FC\def2QZVP\H2O1\BOITTIER\26-Aug-2020\0\\
 #p B2PLYPD3/Def2QZVP\\h2o\\0,1\O,0,-5.326605,-0.765811,0.918948\H,0,-4
 .368927,-0.749134,0.941079\H,0,-5.609308,0.186158,0.762002\\Version=ES
 64L-G09RevD.01\State=1-A'\HF=-76.3324363\MP2=-76.4231657\RMSD=4.851e-0
 9\PG=CS [SG(H2O1)]\\@

 THERE'S NOTHING SO GREAT AS THE GREAT OUTDOORS.

 Normal termination of Gaussian 09 at Wed Aug 26 11:29:32 2020.
