 Gaussian 09, Revision D.01,
 Gaussian 09:  ES64L-G09RevD.01 24-Apr-2013

 --------------------
 #p B2PLYPD3/Def2QZVP
 --------------------

 ---
 h2o
 ---
 Symbolic Z-matrix:
 Charge =  0 Multiplicity = 1

                         Standard orientation:
 ---------------------------------------------------------------------
 Center     Atomic      Atomic             Coordinates (Angstroms)
 Number     Number       Type             X           Y           Z
 ---------------------------------------------------------------------
      1          8           0        0.000000    0.115013    0.000000
      2          1           0        0.750039   -0.493390    0.000000
      3          1           0       -0.750039   -0.426718    0.000000
 ---------------------------------------------------------------------

 SCF Done:  E(RB2PLYPD3) =  -76.3343630495     A.U. after   10 cycles
 E2(B2PLYPD3) =    -0.8955134785D-01 E(B2PLYPD3) =    -0.76423914397342D+02

 The electronic state is 1-A'.
 Alpha  occ. eigenvalues --  -19.72890  -1.16319  -0.61978  -0.47548  -0.40072
 Alpha virt. eigenvalues --    0.04671   0.10326   0.27411   0.30379   0.31199
 Alpha virt. eigenvalues --    0.36441   0.44404   0.50462   0.56336   0.62436
 Alpha virt. eigenvalues --    0.65269   0.81451   0.94035   0.95706   1.04595

 Mulliken charges:
               1
     1  O   -0.431985
     2  H    0.225823
     3  H    0.206162
 Sum of Mulliken charges =   0.00000

 Dipole moment (field-independent basis, Debye):
    X=             -0.0204    Y=             -1.9451    Z=              0.0000  Tot=              1.9452
 Quadrupole moment (field-independent basis, Debye-Ang):
   XX=             -4.3495   YY=             -6.3261   ZZ=             -7.5636
   XY=             -0.1093   XZ=              0.0000   YZ=              0.0000

 1\1\GINC-NODE26\SP\RB2PLYPD3-FC\def2QZVP\H2O1\BOITTIER\26-Aug-2020\0\\
 #p B2PLYPD3/Def2QZVP\\h2o\\0,1\O,0,-5.326605,-0.759842,0.931175\H,0,-4
 .368927,-0.749047,0.806883\H,0,-5.609308,0.090566,0.701139\\Version=ES
 64L-G09RevD.01\State=1-A'\HF=-76.334363\MP2=-76.4239144\RMSD=5.056e-09
 \PG=CS [SG(H2O1)]\\@

 SUCCESS-- IF YOU HAVE TRIED TO DO SOMETHING AND FAILED

 Normal termination of Gaussian 09 at Wed Aug 26 08:50:07 2020.
