 Gaussian 09, Revision D.01,
 Gaussian 09:  ES64L-G09RevD.01 24-Apr-2013

 --------------------
 #p B2PLYPD3/Def2QZVP
 --------------------

 ---
 h2o
 ---
 Symbolic Z-matrix:
 Charge =  0 Multiplicity = 1

                         Standard orientation:
 ---------------------------------------------------------------------
 Center     Atomic      Atomic             Coordinates (Angstroms)
 Number     Number       Type             X           Y           Z
 ---------------------------------------------------------------------
      1          8           0        0.000000    0.120710    0.000000
      2          1           0        0.740464   -0.494137    0.000000
      3          1           0       -0.740464   -0.471542    0.000000
 ---------------------------------------------------------------------

 SCF Done:  E(RB2PLYPD3) =  -76.3347543862     A.U. after   10 cycles
 E2(B2PLYPD3) =    -0.8997983028D-01 E(B2PLYPD3) =    -0.76424734216520D+02

 The electronic state is 1-A'.
 Alpha  occ. eigenvalues --  -19.73197  -1.16067  -0.60859  -0.48084  -0.40069
 Alpha virt. eigenvalues --    0.04509   0.10295   0.27541   0.30394   0.30771
 Alpha virt. eigenvalues --    0.36532   0.44091   0.49783   0.56759   0.61339
 Alpha virt. eigenvalues --    0.65604   0.81365   0.94271   0.95819   1.03517

 Mulliken charges:
               1
     1  O   -0.434028
     2  H    0.220221
     3  H    0.213807
 Sum of Mulliken charges =   0.00000

 Dipole moment (field-independent basis, Debye):
    X=             -0.0077    Y=             -2.0046    Z=              0.0000  Tot=              2.0046
 Quadrupole moment (field-independent basis, Debye-Ang):
   XX=             -4.4740   YY=             -6.2349   ZZ=             -7.5803
   XY=             -0.0354   XZ=              0.0000   YZ=              0.0000

 1\1\GINC-NODE26\SP\RB2PLYPD3-FC\def2QZVP\H2O1\BOITTIER\26-Aug-2020\0\\
 #p B2PLYPD3/Def2QZVP\\h2o\\0,1\O,0,-5.326605,-0.766258,0.923518\H,0,-4
 .368927,-0.671946,0.906744\H,0,-5.609308,0.116119,0.722177\\Version=ES
 64L-G09RevD.01\State=1-A'\HF=-76.3347544\MP2=-76.4247342\RMSD=4.529e-0
 9\PG=CS [SG(H2O1)]\\@

 HE WHO LOVES TO READ, AND KNOWS HOW TO REFLECT,

 Normal termination of Gaussian 09 at Wed Aug 26 08:50:02 2020.
