 Gaussian 09, Revision D.01,
 Gaussian 09:  ES64L-G09RevD.01 24-Apr-2013

 --------------------
 #p B2PLYPD3/Def2QZVP
 --------------------

 ---
 h2o
 ---
 Symbolic Z-matrix:
 Charge =  0 Multiplicity = 1

                         Standard orientation:
 ---------------------------------------------------------------------
 Center     Atomic      Atomic             Coordinates (Angstroms)
 Number     Number       Type             X           Y           Z
 ---------------------------------------------------------------------
      1          8           0        0.000000    0.115469    0.000000
      2          1           0        0.762047   -0.465195    0.000000
      3          1           0       -0.762047   -0.458554    0.000000
 ---------------------------------------------------------------------

 SCF Done:  E(RB2PLYPD3) =  -76.3352166561     A.U. after   10 cycles
 E2(B2PLYPD3) =    -0.8987699462D-01 E(B2PLYPD3) =    -0.76425093650739D+02

 The electronic state is 1-A'.
 Alpha  occ. eigenvalues --  -19.73045  -1.15729  -0.61593  -0.47299  -0.39963
 Alpha virt. eigenvalues --    0.04586   0.10215   0.27480   0.30409   0.31144
 Alpha virt. eigenvalues --    0.35847   0.44044   0.50482   0.56135   0.62519
 Alpha virt. eigenvalues --    0.65543   0.81159   0.93813   0.95902   1.04283

 Mulliken charges:
               1
     1  O   -0.443299
     2  H    0.222563
     3  H    0.220737
 Sum of Mulliken charges =   0.00000

 Dipole moment (field-independent basis, Debye):
    X=             -0.0020    Y=             -1.9429    Z=              0.0000  Tot=              1.9429
 Quadrupole moment (field-independent basis, Debye-Ang):
   XX=             -4.2980   YY=             -6.3554   ZZ=             -7.5894
   XY=             -0.0111   XZ=              0.0000   YZ=              0.0000

 1\1\GINC-NODE05\SP\RB2PLYPD3-FC\def2QZVP\H2O1\BOITTIER\26-Aug-2020\0\\
 #p B2PLYPD3/Def2QZVP\\h2o\\0,1\O,0,-5.326605,-0.763459,0.919215\H,0,-4
 .368927,-0.736719,0.924154\H,0,-5.609308,0.136099,0.773981\\Version=ES
 64L-G09RevD.01\State=1-A'\HF=-76.3352167\MP2=-76.4250937\RMSD=4.001e-0
 9\PG=CS [SG(H2O1)]\\@

 DON'T WORRY CHARLIE BROWN...WE LEARN MORE FROM LOSING  THAN WE DO FROM WINNING.

 Normal termination of Gaussian 09 at Wed Aug 26 11:51:39 2020.
