 Gaussian 09, Revision D.01,
 Gaussian 09:  ES64L-G09RevD.01 24-Apr-2013

 --------------------
 #p B2PLYPD3/Def2QZVP
 --------------------

 ---
 h2o
 ---
 Symbolic Z-matrix:
 Charge =  0 Multiplicity = 1

                         Standard orientation:
 ---------------------------------------------------------------------
 Center     Atomic      Atomic             Coordinates (Angstroms)
 Number     Number       Type             X           Y           Z
 ---------------------------------------------------------------------
      1          8           0        0.000000    0.112492    0.000000
      2          1           0        0.714313   -0.533887    0.000000
      3          1           0       -0.714313   -0.366047    0.000000
 ---------------------------------------------------------------------

 SCF Done:  E(RB2PLYPD3) =  -76.3245096111     A.U. after   10 cycles
 E2(B2PLYPD3) =    -0.8851015359D-01 E(B2PLYPD3) =    -0.76413019764679D+02

 The electronic state is 1-A'.
 Alpha  occ. eigenvalues --  -19.72310  -1.18362  -0.63393  -0.48184  -0.40422
 Alpha virt. eigenvalues --    0.04900   0.10645   0.27123   0.30282   0.31363
 Alpha virt. eigenvalues --    0.38010   0.45734   0.50575   0.56798   0.62408
 Alpha virt. eigenvalues --    0.64400   0.82169   0.94129   0.95369   1.05435

 Mulliken charges:
               1
     1  O   -0.388310
     2  H    0.225320
     3  H    0.162990
 Sum of Mulliken charges =   0.00000

 Dipole moment (field-independent basis, Debye):
    X=             -0.0538    Y=             -1.9387    Z=              0.0000  Tot=              1.9394
 Quadrupole moment (field-independent basis, Debye-Ang):
   XX=             -4.4801   YY=             -6.2433   ZZ=             -7.4800
   XY=             -0.2636   XZ=              0.0000   YZ=              0.0000

 1\1\GINC-NODE25\SP\RB2PLYPD3-FC\def2QZVP\H2O1\BOITTIER\26-Aug-2020\0\\
 #p B2PLYPD3/Def2QZVP\\h2o\\0,1\O,0,-5.326605,-0.759859,0.925827\H,0,-4
 .368927,-0.689446,0.848735\H,0,-5.609308,0.031228,0.74279\\Version=ES6
 4L-G09RevD.01\State=1-A'\HF=-76.3245096\MP2=-76.4130198\RMSD=6.744e-09
 \PG=CS [SG(H2O1)]\\@

 IF YOU WISH TO UNDERSTAND THE FRAGRANCE OF THE ROSE,

 Normal termination of Gaussian 09 at Wed Aug 26 09:08:18 2020.
