 Gaussian 09, Revision D.01,
 Gaussian 09:  ES64L-G09RevD.01 24-Apr-2013

 --------------------
 #p B2PLYPD3/Def2QZVP
 --------------------

 ---
 h2o
 ---
 Symbolic Z-matrix:
 Charge =  0 Multiplicity = 1

                         Standard orientation:
 ---------------------------------------------------------------------
 Center     Atomic      Atomic             Coordinates (Angstroms)
 Number     Number       Type             X           Y           Z
 ---------------------------------------------------------------------
      1          8           0        0.000000    0.117187    0.000000
      2          1           0        0.785349   -0.432504    0.000000
      3          1           0       -0.785349   -0.504993    0.000000
 ---------------------------------------------------------------------

 SCF Done:  E(RB2PLYPD3) =  -76.3326673172     A.U. after   10 cycles
 E2(B2PLYPD3) =    -0.9064932811D-01 E(B2PLYPD3) =    -0.76423316645273D+02

 The electronic state is 1-A'.
 Alpha  occ. eigenvalues --  -19.73374  -1.14589  -0.60655  -0.46799  -0.39739
 Alpha virt. eigenvalues --    0.04297   0.09970   0.27600   0.30471   0.30606
 Alpha virt. eigenvalues --    0.34733   0.43423   0.50453   0.55677   0.62602
 Alpha virt. eigenvalues --    0.66100   0.80410   0.92825   0.96414   1.02486

 Mulliken charges:
               1
     1  O   -0.462551
     2  H    0.222659
     3  H    0.239892
 Sum of Mulliken charges =   0.00000

 Dipole moment (field-independent basis, Debye):
    X=              0.0210    Y=             -1.9447    Z=              0.0000  Tot=              1.9448
 Quadrupole moment (field-independent basis, Debye-Ang):
   XX=             -4.2061   YY=             -6.3913   ZZ=             -7.6458
   XY=              0.1240   XZ=              0.0000   YZ=              0.0000

 1\1\GINC-NODE27\SP\RB2PLYPD3-FC\def2QZVP\H2O1\BOITTIER\26-Aug-2020\0\\
 #p B2PLYPD3/Def2QZVP\\h2o\\0,1\O,0,-5.326605,-0.765009,0.916155\H,0,-4
 .368927,-0.763607,0.958396\H,0,-5.609308,0.187795,0.789174\\Version=ES
 64L-G09RevD.01\State=1-A'\HF=-76.3326673\MP2=-76.4233166\RMSD=4.734e-0
 9\PG=CS [SG(H2O1)]\\@

 "MATHEMATICS IS THE ART OF GIVING THE SAME NAME

 Normal termination of Gaussian 09 at Wed Aug 26 08:30:19 2020.
