 Gaussian 09, Revision D.01,
 Gaussian 09:  ES64L-G09RevD.01 24-Apr-2013

 --------------------
 #p B2PLYPD3/Def2QZVP
 --------------------

 ---
 h2o
 ---
 Symbolic Z-matrix:
 Charge =  0 Multiplicity = 1

                         Standard orientation:
 ---------------------------------------------------------------------
 Center     Atomic      Atomic             Coordinates (Angstroms)
 Number     Number       Type             X           Y           Z
 ---------------------------------------------------------------------
      1          8           0        0.000000    0.116752    0.000000
      2          1           0        0.771937   -0.453245    0.000000
      3          1           0       -0.771937   -0.480770    0.000000
 ---------------------------------------------------------------------

 SCF Done:  E(RB2PLYPD3) =  -76.3345342863     A.U. after   10 cycles
 E2(B2PLYPD3) =    -0.9026111114D-01 E(B2PLYPD3) =    -0.76424795397453D+02

 The electronic state is 1-A'.
 Alpha  occ. eigenvalues --  -19.73226  -1.15173  -0.61070  -0.47120  -0.39860
 Alpha virt. eigenvalues --    0.04451   0.10101   0.27551   0.30439   0.30902
 Alpha virt. eigenvalues --    0.35321   0.43720   0.50399   0.55969   0.62456
 Alpha virt. eigenvalues --    0.65832   0.80836   0.93425   0.96146   1.03396

 Mulliken charges:
               1
     1  O   -0.452603
     2  H    0.222774
     3  H    0.229829
 Sum of Mulliken charges =   0.00000

 Dipole moment (field-independent basis, Debye):
    X=              0.0082    Y=             -1.9491    Z=              0.0000  Tot=              1.9491
 Quadrupole moment (field-independent basis, Debye-Ang):
   XX=             -4.2671   YY=             -6.3651   ZZ=             -7.6165
   XY=              0.0462   XZ=              0.0000   YZ=              0.0000

 1\1\GINC-NODE07\SP\RB2PLYPD3-FC\def2QZVP\H2O1\BOITTIER\26-Aug-2020\0\\
 #p B2PLYPD3/Def2QZVP\\h2o\\0,1\O,0,-5.326605,-0.764831,0.914506\H,0,-4
 .368927,-0.74151,0.970119\H,0,-5.609308,0.162846,0.803087\\Version=ES6
 4L-G09RevD.01\State=1-A'\HF=-76.3345343\MP2=-76.4247954\RMSD=4.044e-09
 \PG=CS [SG(H2O1)]\\@

 One man practicing sportsmanship is far better than 50 preaching it.

 Normal termination of Gaussian 09 at Wed Aug 26 08:31:42 2020.
