 Gaussian 09, Revision D.01,
 Gaussian 09:  ES64L-G09RevD.01 24-Apr-2013

 --------------------
 #p B2PLYPD3/Def2QZVP
 --------------------

 ---
 h2o
 ---
 Symbolic Z-matrix:
 Charge =  0 Multiplicity = 1

                         Standard orientation:
 ---------------------------------------------------------------------
 Center     Atomic      Atomic             Coordinates (Angstroms)
 Number     Number       Type             X           Y           Z
 ---------------------------------------------------------------------
      1          8           0        0.000000    0.113469    0.000000
      2          1           0        0.779430   -0.444531    0.000000
      3          1           0       -0.779430   -0.463221    0.000000
 ---------------------------------------------------------------------

 SCF Done:  E(RB2PLYPD3) =  -76.3346715382     A.U. after   10 cycles
 E2(B2PLYPD3) =    -0.9008094695D-01 E(B2PLYPD3) =    -0.76424752485176D+02

 The electronic state is 1-A'.
 Alpha  occ. eigenvalues --  -19.73077  -1.15201  -0.61615  -0.46778  -0.39839
 Alpha virt. eigenvalues --    0.04530   0.10102   0.27492   0.30436   0.31202
 Alpha virt. eigenvalues --    0.35121   0.43809   0.50869   0.55708   0.63121
 Alpha virt. eigenvalues --    0.65698   0.80758   0.93384   0.96139   1.04158

 Mulliken charges:
               1
     1  O   -0.454644
     2  H    0.224906
     3  H    0.229738
 Sum of Mulliken charges =   0.00000

 Dipole moment (field-independent basis, Debye):
    X=              0.0052    Y=             -1.9133    Z=              0.0000  Tot=              1.9133
 Quadrupole moment (field-independent basis, Debye-Ang):
   XX=             -4.1851   YY=             -6.4249   ZZ=             -7.6121
   XY=              0.0323   XZ=              0.0000   YZ=              0.0000

 1\1\GINC-NODE39\SP\RB2PLYPD3-FC\def2QZVP\H2O1\BOITTIER\26-Aug-2020\0\\
 #p B2PLYPD3/Def2QZVP\\h2o\\0,1\O,0,-5.326605,-0.761488,0.922362\H,0,-4
 .368927,-0.784039,0.887443\H,0,-5.609308,0.151899,0.761473\\Version=ES
 64L-G09RevD.01\State=1-A'\HF=-76.3346715\MP2=-76.4247525\RMSD=3.850e-0
 9\PG=CS [SG(H2O1)]\\@

     ON THE SURVIVAL OF THE FITTEST -

 Normal termination of Gaussian 09 at Wed Aug 26 09:09:49 2020.
