 Gaussian 09, Revision D.01,
 Gaussian 09:  ES64L-G09RevD.01 24-Apr-2013

 --------------------
 #p B2PLYPD3/Def2QZVP
 --------------------

 ---
 h2o
 ---
 Symbolic Z-matrix:
 Charge =  0 Multiplicity = 1

                         Standard orientation:
 ---------------------------------------------------------------------
 Center     Atomic      Atomic             Coordinates (Angstroms)
 Number     Number       Type             X           Y           Z
 ---------------------------------------------------------------------
      1          8           0        0.000000    0.113359    0.000000
      2          1           0        0.705033   -0.547024    0.000000
      3          1           0       -0.705033   -0.359844    0.000000
 ---------------------------------------------------------------------

 SCF Done:  E(RB2PLYPD3) =  -76.3212515681     A.U. after   10 cycles
 E2(B2PLYPD3) =    -0.8841510868D-01 E(B2PLYPD3) =    -0.76409666676769D+02

 The electronic state is 1-A'.
 Alpha  occ. eigenvalues --  -19.72262  -1.18738  -0.63377  -0.48428  -0.40487
 Alpha virt. eigenvalues --    0.04886   0.10701   0.27082   0.30269   0.31263
 Alpha virt. eigenvalues --    0.38287   0.45970   0.50437   0.56961   0.62152
 Alpha virt. eigenvalues --    0.64308   0.82230   0.94073   0.95371   1.05332

 Mulliken charges:
               1
     1  O   -0.379160
     2  H    0.225661
     3  H    0.153498
 Sum of Mulliken charges =   0.00000

 Dipole moment (field-independent basis, Debye):
    X=             -0.0621    Y=             -1.9515    Z=              0.0000  Tot=              1.9525
 Quadrupole moment (field-independent basis, Debye-Ang):
   XX=             -4.5326   YY=             -6.2037   ZZ=             -7.4681
   XY=             -0.2882   XZ=              0.0000   YZ=              0.0000

 1\1\GINC-NODE03\SP\RB2PLYPD3-FC\def2QZVP\H2O1\BOITTIER\26-Aug-2020\0\\
 #p B2PLYPD3/Def2QZVP\\h2o\\0,1\O,0,-5.326605,-0.759963,0.92747\H,0,-4.
 368927,-0.672253,0.836162\H,0,-5.609308,0.015702,0.728937\\Version=ES6
 4L-G09RevD.01\State=1-A'\HF=-76.3212516\MP2=-76.4096667\RMSD=6.522e-09
 \PG=CS [SG(H2O1)]\\@

 REALITY IS FOR PEOPLE WHO CAN'T FACE SCIENCE FICTION.

 Normal termination of Gaussian 09 at Wed Aug 26 08:38:34 2020.
