 Gaussian 09, Revision D.01,
 Gaussian 09:  ES64L-G09RevD.01 24-Apr-2013

 --------------------
 #p B2PLYPD3/Def2QZVP
 --------------------

 ---
 h2o
 ---
 Symbolic Z-matrix:
 Charge =  0 Multiplicity = 1

                         Standard orientation:
 ---------------------------------------------------------------------
 Center     Atomic      Atomic             Coordinates (Angstroms)
 Number     Number       Type             X           Y           Z
 ---------------------------------------------------------------------
      1          8           0        0.000000    0.114238    0.000000
      2          1           0        0.721097   -0.522242    0.000000
      3          1           0       -0.721097   -0.391665    0.000000
 ---------------------------------------------------------------------

 SCF Done:  E(RB2PLYPD3) =  -76.3291028850     A.U. after   10 cycles
 E2(B2PLYPD3) =    -0.8882761933D-01 E(B2PLYPD3) =    -0.76417930504284D+02

 The electronic state is 1-A'.
 Alpha  occ. eigenvalues --  -19.72522  -1.17783  -0.62815  -0.48164  -0.40336
 Alpha virt. eigenvalues --    0.04834   0.10571   0.27231   0.30309   0.31302
 Alpha virt. eigenvalues --    0.37730   0.45313   0.50393   0.56808   0.62173
 Alpha virt. eigenvalues --    0.64662   0.82007   0.94322   0.95385   1.05308

 Mulliken charges:
               1
     1  O   -0.401871
     2  H    0.223703
     3  H    0.178167
 Sum of Mulliken charges =   0.00000

 Dipole moment (field-independent basis, Debye):
    X=             -0.0424    Y=             -1.9528    Z=              0.0000  Tot=              1.9533
 Quadrupole moment (field-independent basis, Debye-Ang):
   XX=             -4.4736   YY=             -6.2493   ZZ=             -7.5032
   XY=             -0.2053   XZ=              0.0000   YZ=              0.0000

 1\1\GINC-NODE31\SP\RB2PLYPD3-FC\def2QZVP\H2O1\BOITTIER\26-Aug-2020\0\\
 #p B2PLYPD3/Def2QZVP\\h2o\\0,1\O,0,-5.326605,-0.76195,0.92261\H,0,-4.3
 68927,-0.680179,0.887187\H,0,-5.609308,0.055418,0.755551\\Version=ES64
 L-G09RevD.01\State=1-A'\HF=-76.3291029\MP2=-76.4179305\RMSD=6.653e-09\
 PG=CS [SG(H2O1)]\\@

 A FOOL CAN ASK MORE QUESTIONS THAN

 Normal termination of Gaussian 09 at Wed Aug 26 08:49:09 2020.
