 Gaussian 09, Revision D.01,
 Gaussian 09:  ES64L-G09RevD.01 24-Apr-2013

 --------------------
 #p B2PLYPD3/Def2QZVP
 --------------------

 ---
 h2o
 ---
 Symbolic Z-matrix:
 Charge =  0 Multiplicity = 1

                         Standard orientation:
 ---------------------------------------------------------------------
 Center     Atomic      Atomic             Coordinates (Angstroms)
 Number     Number       Type             X           Y           Z
 ---------------------------------------------------------------------
      1          8           0        0.000000    0.121738    0.000000
      2          1           0        0.770537   -0.451747    0.000000
      3          1           0       -0.770537   -0.522160    0.000000
 ---------------------------------------------------------------------

 SCF Done:  E(RB2PLYPD3) =  -76.3325094072     A.U. after   10 cycles
 E2(B2PLYPD3) =    -0.9081778830D-01 E(B2PLYPD3) =    -0.76423327195517D+02

 The electronic state is 1-A'.
 Alpha  occ. eigenvalues --  -19.73542  -1.14713  -0.60006  -0.47368  -0.39804
 Alpha virt. eigenvalues --    0.04220   0.09999   0.27678   0.30252   0.30462
 Alpha virt. eigenvalues --    0.35132   0.43392   0.49816   0.56121   0.61649
 Alpha virt. eigenvalues --    0.66216   0.80616   0.93053   0.96391   1.01836

 Mulliken charges:
               1
     1  O   -0.456522
     2  H    0.219845
     3  H    0.236677
 Sum of Mulliken charges =   0.00000

 Dipole moment (field-independent basis, Debye):
    X=              0.0228    Y=             -1.9959    Z=              0.0000  Tot=              1.9960
 Quadrupole moment (field-independent basis, Debye-Ang):
   XX=             -4.3431   YY=             -6.2967   ZZ=             -7.6441
   XY=              0.1150   XZ=              0.0000   YZ=              0.0000

 1\1\GINC-NODE17\SP\RB2PLYPD3-FC\def2QZVP\H2O1\BOITTIER\26-Aug-2020\0\\
 #p B2PLYPD3/Def2QZVP\\h2o\\0,1\O,0,-5.326605,-0.767949,0.917542\H,0,-4
 .368927,-0.711366,0.965132\H,0,-5.609308,0.182591,0.759792\\Version=ES
 64L-G09RevD.01\State=1-A'\HF=-76.3325094\MP2=-76.4233272\RMSD=4.731e-0
 9\PG=CS [SG(H2O1)]\\@

 You can't act like a skunk without someone's getting wind of it.

 Normal termination of Gaussian 09 at Wed Aug 26 09:28:20 2020.
