 Gaussian 09, Revision D.01,
 Gaussian 09:  ES64L-G09RevD.01 24-Apr-2013

 --------------------
 #p B2PLYPD3/Def2QZVP
 --------------------

 ---
 h2o
 ---
 Symbolic Z-matrix:
 Charge =  0 Multiplicity = 1

                         Standard orientation:
 ---------------------------------------------------------------------
 Center     Atomic      Atomic             Coordinates (Angstroms)
 Number     Number       Type             X           Y           Z
 ---------------------------------------------------------------------
      1          8           0        0.000000    0.121657    0.000000
      2          1           0        0.754519   -0.474282    0.000000
      3          1           0       -0.754519   -0.498977    0.000000
 ---------------------------------------------------------------------

 SCF Done:  E(RB2PLYPD3) =  -76.3342811311     A.U. after   10 cycles
 E2(B2PLYPD3) =    -0.9041954239D-01 E(B2PLYPD3) =    -0.76424700673484D+02

 The electronic state is 1-A'.
 Alpha  occ. eigenvalues --  -19.73395  -1.15362  -0.60357  -0.47778  -0.39938
 Alpha virt. eigenvalues --    0.04370   0.10148   0.27625   0.30429   0.30533
 Alpha virt. eigenvalues --    0.35823   0.43700   0.49744   0.56490   0.61401
 Alpha virt. eigenvalues --    0.65942   0.81022   0.93773   0.96113   1.02617

 Mulliken charges:
               1
     1  O   -0.445731
     2  H    0.219656
     3  H    0.226074
 Sum of Mulliken charges =   0.00000

 Dipole moment (field-independent basis, Debye):
    X=              0.0083    Y=             -2.0052    Z=              0.0000  Tot=              2.0052
 Quadrupole moment (field-independent basis, Debye-Ang):
   XX=             -4.4202   YY=             -6.2596   ZZ=             -7.6129
   XY=              0.0393   XZ=              0.0000   YZ=              0.0000

 1\1\GINC-NODE02\SP\RB2PLYPD3-FC\def2QZVP\H2O1\BOITTIER\26-Aug-2020\0\\
 #p B2PLYPD3/Def2QZVP\\h2o\\0,1\O,0,-5.326605,-0.765832,0.927705\H,0,-4
 .368927,-0.701766,0.871213\H,0,-5.609308,0.139127,0.691876\\Version=ES
 64L-G09RevD.01\State=1-A'\HF=-76.3342811\MP2=-76.4247007\RMSD=4.305e-0
 9\PG=CS [SG(H2O1)]\\@

 A leading authority is anyone who has guessed right more than once.

 Normal termination of Gaussian 09 at Wed Aug 26 08:31:19 2020.
