 Gaussian 09, Revision D.01,
 Gaussian 09:  ES64L-G09RevD.01 24-Apr-2013

 --------------------
 #p B2PLYPD3/Def2QZVP
 --------------------

 ---
 h2o
 ---
 Symbolic Z-matrix:
 Charge =  0 Multiplicity = 1

                         Standard orientation:
 ---------------------------------------------------------------------
 Center     Atomic      Atomic             Coordinates (Angstroms)
 Number     Number       Type             X           Y           Z
 ---------------------------------------------------------------------
      1          8           0        0.000000    0.121582    0.000000
      2          1           0        0.741543   -0.492510    0.000000
      3          1           0       -0.741543   -0.480145    0.000000
 ---------------------------------------------------------------------

 SCF Done:  E(RB2PLYPD3) =  -76.3346864357     A.U. after   10 cycles
 E2(B2PLYPD3) =    -0.9010918983D-01 E(B2PLYPD3) =    -0.76424795625499D+02

 The electronic state is 1-A'.
 Alpha  occ. eigenvalues --  -19.73268  -1.15917  -0.60636  -0.48099  -0.40046
 Alpha virt. eigenvalues --    0.04466   0.10266   0.27572   0.30401   0.30676
 Alpha virt. eigenvalues --    0.36417   0.43986   0.49700   0.56767   0.61216
 Alpha virt. eigenvalues --    0.65702   0.81296   0.94225   0.95889   1.03213

 Mulliken charges:
               1
     1  O   -0.436213
     2  H    0.219827
     3  H    0.216385
 Sum of Mulliken charges =   0.00000

 Dipole moment (field-independent basis, Debye):
    X=             -0.0043    Y=             -2.0121    Z=              0.0000  Tot=              2.0121
 Quadrupole moment (field-independent basis, Debye-Ang):
   XX=             -4.4812   YY=             -6.2273   ZZ=             -7.5879
   XY=             -0.0193   XZ=              0.0000   YZ=              0.0000

 1\1\GINC-NODE15\SP\RB2PLYPD3-FC\def2QZVP\H2O1\BOITTIER\26-Aug-2020\0\\
 #p B2PLYPD3/Def2QZVP\\h2o\\0,1\O,0,-5.326605,-0.766494,0.925065\H,0,-4
 .368927,-0.671627,0.895937\H,0,-5.609308,0.119579,0.708468\\Version=ES
 64L-G09RevD.01\State=1-A'\HF=-76.3346864\MP2=-76.4247956\RMSD=4.456e-0
 9\PG=CS [SG(H2O1)]\\@

 THE MOST INCOMPREHENSIBLE THING ABOUT THE WORLD

 Normal termination of Gaussian 09 at Wed Aug 26 08:30:06 2020.
