 Gaussian 09, Revision D.01,
 Gaussian 09:  ES64L-G09RevD.01 24-Apr-2013

 --------------------
 #p B2PLYPD3/Def2QZVP
 --------------------

 ---
 h2o
 ---
 Symbolic Z-matrix:
 Charge =  0 Multiplicity = 1

                         Standard orientation:
 ---------------------------------------------------------------------
 Center     Atomic      Atomic             Coordinates (Angstroms)
 Number     Number       Type             X           Y           Z
 ---------------------------------------------------------------------
      1          8           0        0.000000    0.113714    0.000000
      2          1           0        0.782742   -0.438464    0.000000
      3          1           0       -0.782742   -0.471250    0.000000
 ---------------------------------------------------------------------

 SCF Done:  E(RB2PLYPD3) =  -76.3343117133     A.U. after   10 cycles
 E2(B2PLYPD3) =    -0.9019112480D-01 E(B2PLYPD3) =    -0.76424502838079D+02

 The electronic state is 1-A'.
 Alpha  occ. eigenvalues --  -19.73124  -1.15038  -0.61476  -0.46708  -0.39807
 Alpha virt. eigenvalues --    0.04489   0.10068   0.27509   0.30445   0.31128
 Alpha virt. eigenvalues --    0.34963   0.43719   0.50867   0.55644   0.63131
 Alpha virt. eigenvalues --    0.65779   0.80644   0.93249   0.96216   1.03865

 Mulliken charges:
               1
     1  O   -0.457473
     2  H    0.224584
     3  H    0.232889
 Sum of Mulliken charges =   0.00000

 Dipole moment (field-independent basis, Debye):
    X=              0.0090    Y=             -1.9136    Z=              0.0000  Tot=              1.9136
 Quadrupole moment (field-independent basis, Debye-Ang):
   XX=             -4.1718   YY=             -6.4301   ZZ=             -7.6202
   XY=              0.0569   XZ=              0.0000   YZ=              0.0000

 1\1\GINC-NODE11\SP\RB2PLYPD3-FC\def2QZVP\H2O1\BOITTIER\26-Aug-2020\0\\
 #p B2PLYPD3/Def2QZVP\\h2o\\0,1\O,0,-5.326605,-0.762394,0.918173\H,0,-4
 .368927,-0.781709,0.926296\H,0,-5.609308,0.164058,0.789201\\Version=ES
 64L-G09RevD.01\State=1-A'\HF=-76.3343117\MP2=-76.4245028\RMSD=3.999e-0
 9\PG=CS [SG(H2O1)]\\@

 The lyf so short, the craft so long to lerne.

 Normal termination of Gaussian 09 at Wed Aug 26 11:57:35 2020.
