 Gaussian 09, Revision D.01,
 Gaussian 09:  ES64L-G09RevD.01 24-Apr-2013

 --------------------
 #p B2PLYPD3/Def2QZVP
 --------------------

 ---
 h2o
 ---
 Symbolic Z-matrix:
 Charge =  0 Multiplicity = 1

                         Standard orientation:
 ---------------------------------------------------------------------
 Center     Atomic      Atomic             Coordinates (Angstroms)
 Number     Number       Type             X           Y           Z
 ---------------------------------------------------------------------
      1          8           0        0.000000    0.117911    0.000000
      2          1           0        0.777127   -0.454403    0.000000
      3          1           0       -0.777127   -0.488887    0.000000
 ---------------------------------------------------------------------

 SCF Done:  E(RB2PLYPD3) =  -76.3338411439     A.U. after   10 cycles
 E2(B2PLYPD3) =    -0.9052018624D-01 E(B2PLYPD3) =    -0.76424361330114D+02

 The electronic state is 1-A'.
 Alpha  occ. eigenvalues --  -19.73351  -1.14837  -0.60693  -0.47049  -0.39801
 Alpha virt. eigenvalues --    0.04357   0.10029   0.27599   0.30457   0.30714
 Alpha virt. eigenvalues --    0.35024   0.43517   0.50295   0.55896   0.62341
 Alpha virt. eigenvalues --    0.66026   0.80639   0.93183   0.96284   1.02812

 Mulliken charges:
               1
     1  O   -0.457737
     2  H    0.224639
     3  H    0.233097
 Sum of Mulliken charges =   0.00000

 Dipole moment (field-independent basis, Debye):
    X=              0.0104    Y=             -1.9569    Z=              0.0000  Tot=              1.9569
 Quadrupole moment (field-independent basis, Debye-Ang):
   XX=             -4.2573   YY=             -6.3640   ZZ=             -7.6335
   XY=              0.0580   XZ=              0.0000   YZ=              0.0000

 1\1\GINC-NODE35\SP\RB2PLYPD3-FC\def2QZVP\H2O1\BOITTIER\26-Aug-2020\0\\
 #p B2PLYPD3/Def2QZVP\\h2o\\0,1\O,0,-5.326605,-0.76561,0.908115\H,0,-4.
 368927,-0.7433,1.025696\H,0,-5.609308,0.177112,0.849085\\Version=ES64L
 -G09RevD.01\State=1-A'\HF=-76.3338411\MP2=-76.4243613\RMSD=4.081e-09\P
 G=CS [SG(H2O1)]\\@

 GOD GAVE US TWO ENDS... ONE TO SIT ON...

 Normal termination of Gaussian 09 at Wed Aug 26 08:10:00 2020.
