 Gaussian 09, Revision D.01,
 Gaussian 09:  ES64L-G09RevD.01 24-Apr-2013

 --------------------
 #p B2PLYPD3/Def2QZVP
 --------------------

 ---
 h2o
 ---
 Symbolic Z-matrix:
 Charge =  0 Multiplicity = 1

                         Standard orientation:
 ---------------------------------------------------------------------
 Center     Atomic      Atomic             Coordinates (Angstroms)
 Number     Number       Type             X           Y           Z
 ---------------------------------------------------------------------
      1          8           0        0.000000    0.120813    0.000000
      2          1           0        0.788901   -0.422563    0.000000
      3          1           0       -0.788901   -0.543939    0.000000
 ---------------------------------------------------------------------

 SCF Done:  E(RB2PLYPD3) =  -76.3295072637     A.U. after   10 cycles
 E2(B2PLYPD3) =    -0.9117662593D-01 E(B2PLYPD3) =    -0.76420683889617D+02

 The electronic state is 1-A'.
 Alpha  occ. eigenvalues --  -19.73632  -1.14111  -0.59802  -0.46839  -0.39664
 Alpha virt. eigenvalues --    0.04051   0.09850   0.27691   0.29897   0.30496
 Alpha virt. eigenvalues --    0.34512   0.43147   0.50047   0.55648   0.62112
 Alpha virt. eigenvalues --    0.66423   0.80105   0.92127   0.96645   1.01221

 Mulliken charges:
               1
     1  O   -0.467148
     2  H    0.220173
     3  H    0.246975
 Sum of Mulliken charges =   0.00000

 Dipole moment (field-independent basis, Debye):
    X=              0.0370    Y=             -1.9752    Z=              0.0000  Tot=              1.9755
 Quadrupole moment (field-independent basis, Debye-Ang):
   XX=             -4.2383   YY=             -6.3484   ZZ=             -7.6746
   XY=              0.2049   XZ=              0.0000   YZ=              0.0000

 1\1\GINC-NODE21\SP\RB2PLYPD3-FC\def2QZVP\H2O1\BOITTIER\26-Aug-2020\0\\
 #p B2PLYPD3/Def2QZVP\\h2o\\0,1\O,0,-5.326605,-0.766965,0.920275\H,0,-4
 .368927,-0.753997,0.937797\H,0,-5.609308,0.209486,0.74454\\Version=ES6
 4L-G09RevD.01\State=1-A'\HF=-76.3295073\MP2=-76.4206839\RMSD=5.742e-09
 \PG=CS [SG(H2O1)]\\@

 ROSE IS A RED

 Normal termination of Gaussian 09 at Wed Aug 26 09:17:17 2020.
