 Gaussian 09, Revision D.01,
 Gaussian 09:  ES64L-G09RevD.01 24-Apr-2013

 --------------------
 #p B2PLYPD3/Def2QZVP
 --------------------

 ---
 h2o
 ---
 Symbolic Z-matrix:
 Charge =  0 Multiplicity = 1

                         Standard orientation:
 ---------------------------------------------------------------------
 Center     Atomic      Atomic             Coordinates (Angstroms)
 Number     Number       Type             X           Y           Z
 ---------------------------------------------------------------------
      1          8           0        0.000000    0.121189    0.000000
      2          1           0        0.750087   -0.480523    0.000000
      3          1           0       -0.750087   -0.488987    0.000000
 ---------------------------------------------------------------------

 SCF Done:  E(RB2PLYPD3) =  -76.3346489923     A.U. after   10 cycles
 E2(B2PLYPD3) =    -0.9025855168D-01 E(B2PLYPD3) =    -0.76424907544015D+02

 The electronic state is 1-A'.
 Alpha  occ. eigenvalues --  -19.73322  -1.15599  -0.60554  -0.47869  -0.39981
 Alpha virt. eigenvalues --    0.04425   0.10199   0.27595   0.30417   0.30639
 Alpha virt. eigenvalues --    0.36056   0.43830   0.49773   0.56574   0.61405
 Alpha virt. eigenvalues --    0.65824   0.81146   0.93961   0.96008   1.02968

 Mulliken charges:
               1
     1  O   -0.441982
     2  H    0.219857
     3  H    0.222125
 Sum of Mulliken charges =   0.00000

 Dipole moment (field-independent basis, Debye):
    X=              0.0029    Y=             -2.0035    Z=              0.0000  Tot=              2.0035
 Quadrupole moment (field-independent basis, Debye-Ang):
   XX=             -4.4350   YY=             -6.2543   ZZ=             -7.6015
   XY=              0.0134   XZ=              0.0000   YZ=              0.0000

 1\1\GINC-NODE06\SP\RB2PLYPD3-FC\def2QZVP\H2O1\BOITTIER\26-Aug-2020\0\\
 #p B2PLYPD3/Def2QZVP\\h2o\\0,1\O,0,-5.326605,-0.765754,0.926843\H,0,-4
 .368927,-0.694323,0.877477\H,0,-5.609308,0.130436,0.699099\\Version=ES
 64L-G09RevD.01\State=1-A'\HF=-76.334649\MP2=-76.4249075\RMSD=4.282e-09
 \PG=CS [SG(H2O1)]\\@

 NEVER LISTEN TO CRITICISM

 Normal termination of Gaussian 09 at Wed Aug 26 11:48:53 2020.
