 Gaussian 09, Revision D.01,
 Gaussian 09:  ES64L-G09RevD.01 24-Apr-2013

 --------------------
 #p B2PLYPD3/Def2QZVP
 --------------------

 ---
 h2o
 ---
 Symbolic Z-matrix:
 Charge =  0 Multiplicity = 1

                         Standard orientation:
 ---------------------------------------------------------------------
 Center     Atomic      Atomic             Coordinates (Angstroms)
 Number     Number       Type             X           Y           Z
 ---------------------------------------------------------------------
      1          8           0        0.000000    0.116928    0.000000
      2          1           0        0.791538   -0.430467    0.000000
      3          1           0       -0.791538   -0.504955    0.000000
 ---------------------------------------------------------------------

 SCF Done:  E(RB2PLYPD3) =  -76.3320796794     A.U. after   10 cycles
 E2(B2PLYPD3) =    -0.9077475839D-01 E(B2PLYPD3) =    -0.76422854437817D+02

 The electronic state is 1-A'.
 Alpha  occ. eigenvalues --  -19.73413  -1.14366  -0.60560  -0.46639  -0.39690
 Alpha virt. eigenvalues --    0.04252   0.09918   0.27611   0.30483   0.30560
 Alpha virt. eigenvalues --    0.34477   0.43310   0.50534   0.55541   0.62734
 Alpha virt. eigenvalues --    0.66193   0.80230   0.92630   0.96498   1.02319

 Mulliken charges:
               1
     1  O   -0.466808
     2  H    0.224793
     3  H    0.242015
 Sum of Mulliken charges =   0.00000

 Dipole moment (field-independent basis, Debye):
    X=              0.0212    Y=             -1.9384    Z=              0.0000  Tot=              1.9386
 Quadrupole moment (field-independent basis, Debye-Ang):
   XX=             -4.1714   YY=             -6.4102   ZZ=             -7.6564
   XY=              0.1287   XZ=              0.0000   YZ=              0.0000

 1\1\GINC-NODE12\SP\RB2PLYPD3-FC\def2QZVP\H2O1\BOITTIER\26-Aug-2020\0\\
 #p B2PLYPD3/Def2QZVP\\h2o\\0,1\O,0,-5.326605,-0.76503,0.910319\H,0,-4.
 368927,-0.773641,1.004933\H,0,-5.609308,0.198165,0.835454\\Version=ES6
 4L-G09RevD.01\State=1-A'\HF=-76.3320797\MP2=-76.4228544\RMSD=4.752e-09
 \PG=CS [SG(H2O1)]\\@

 One man practicing sportsmanship is far better than 50 preaching it.

 Normal termination of Gaussian 09 at Wed Aug 26 08:48:05 2020.
