 Gaussian 09, Revision D.01,
 Gaussian 09:  ES64L-G09RevD.01 24-Apr-2013

 --------------------
 #p B2PLYPD3/Def2QZVP
 --------------------

 ---
 h2o
 ---
 Symbolic Z-matrix:
 Charge =  0 Multiplicity = 1

                         Standard orientation:
 ---------------------------------------------------------------------
 Center     Atomic      Atomic             Coordinates (Angstroms)
 Number     Number       Type             X           Y           Z
 ---------------------------------------------------------------------
      1          8           0        0.000000    0.118243    0.000000
      2          1           0        0.766314   -0.459370    0.000000
      3          1           0       -0.766314   -0.486573    0.000000
 ---------------------------------------------------------------------

 SCF Done:  E(RB2PLYPD3) =  -76.3345422322     A.U. after   10 cycles
 E2(B2PLYPD3) =    -0.9029569007D-01 E(B2PLYPD3) =    -0.76424837922253D+02

 The electronic state is 1-A'.
 Alpha  occ. eigenvalues --  -19.73273  -1.15248  -0.60868  -0.47328  -0.39887
 Alpha virt. eigenvalues --    0.04431   0.10120   0.27571   0.30435   0.30792
 Alpha virt. eigenvalues --    0.35500   0.43724   0.50184   0.56134   0.62126
 Alpha virt. eigenvalues --    0.65858   0.80916   0.93531   0.96122   1.03167

 Mulliken charges:
               1
     1  O   -0.450136
     2  H    0.221559
     3  H    0.228577
 Sum of Mulliken charges =   0.00000

 Dipole moment (field-independent basis, Debye):
    X=              0.0084    Y=             -1.9665    Z=              0.0000  Tot=              1.9665
 Quadrupole moment (field-independent basis, Debye-Ang):
   XX=             -4.3153   YY=             -6.3323   ZZ=             -7.6145
   XY=              0.0450   XZ=              0.0000   YZ=              0.0000

 1\1\GINC-NODE09\SP\RB2PLYPD3-FC\def2QZVP\H2O1\BOITTIER\26-Aug-2020\0\\
 #p B2PLYPD3/Def2QZVP\\h2o\\0,1\O,0,-5.326605,-0.765706,0.916352\H,0,-4
 .368927,-0.723784,0.960731\H,0,-5.609308,0.159129,0.782942\\Version=ES
 64L-G09RevD.01\State=1-A'\HF=-76.3345422\MP2=-76.4248379\RMSD=4.121e-0
 9\PG=CS [SG(H2O1)]\\@

 "I COULD HAVE DONE IT IN A MUCH MORE COMPLICATED WAY"

 Normal termination of Gaussian 09 at Wed Aug 26 12:12:16 2020.
