 Gaussian 09, Revision D.01,
 Gaussian 09:  ES64L-G09RevD.01 24-Apr-2013

 --------------------
 #p B2PLYPD3/Def2QZVP
 --------------------

 ---
 h2o
 ---
 Symbolic Z-matrix:
 Charge =  0 Multiplicity = 1

                         Standard orientation:
 ---------------------------------------------------------------------
 Center     Atomic      Atomic             Coordinates (Angstroms)
 Number     Number       Type             X           Y           Z
 ---------------------------------------------------------------------
      1          8           0        0.000000    0.111016    0.000000
      2          1           0        0.788763   -0.434167    0.000000
      3          1           0       -0.788763   -0.453958    0.000000
 ---------------------------------------------------------------------

 SCF Done:  E(RB2PLYPD3) =  -76.3343190394     A.U. after   10 cycles
 E2(B2PLYPD3) =    -0.9005365842D-01 E(B2PLYPD3) =    -0.76424372697846D+02

 The electronic state is 1-A'.
 Alpha  occ. eigenvalues --  -19.73004  -1.15055  -0.61910  -0.46430  -0.39789
 Alpha virt. eigenvalues --    0.04551   0.10067   0.27464   0.30443   0.31387
 Alpha virt. eigenvalues --    0.34778   0.43786   0.51282   0.55434   0.63685
 Alpha virt. eigenvalues --    0.65684   0.80544   0.93253   0.96237   1.04544

 Mulliken charges:
               1
     1  O   -0.459409
     2  H    0.227184
     3  H    0.232226
 Sum of Mulliken charges =   0.00000

 Dipole moment (field-independent basis, Debye):
    X=              0.0051    Y=             -1.8837    Z=              0.0000  Tot=              1.8837
 Quadrupole moment (field-independent basis, Debye-Ang):
   XX=             -4.1051   YY=             -6.4788   ZZ=             -7.6170
   XY=              0.0351   XZ=              0.0000   YZ=              0.0000

 1\1\GINC-NODE15\SP\RB2PLYPD3-FC\def2QZVP\H2O1\BOITTIER\26-Aug-2020\0\\
 #p B2PLYPD3/Def2QZVP\\h2o\\0,1\O,0,-5.326605,-0.760688,0.916654\H,0,-4
 .368927,-0.806456,0.927986\H,0,-5.609308,0.161504,0.811855\\Version=ES
 64L-G09RevD.01\State=1-A'\HF=-76.334319\MP2=-76.4243727\RMSD=3.778e-09
 \PG=CS [SG(H2O1)]\\@

 GOORD'S AXIOM:  A MEETING IS AN EVENT AT WHICH

 Normal termination of Gaussian 09 at Wed Aug 26 08:52:38 2020.
