 Gaussian 09, Revision D.01,
 Gaussian 09:  ES64L-G09RevD.01 24-Apr-2013

 --------------------
 #p B2PLYPD3/Def2QZVP
 --------------------

 ---
 h2o
 ---
 Symbolic Z-matrix:
 Charge =  0 Multiplicity = 1

                         Standard orientation:
 ---------------------------------------------------------------------
 Center     Atomic      Atomic             Coordinates (Angstroms)
 Number     Number       Type             X           Y           Z
 ---------------------------------------------------------------------
      1          8           0        0.000000    0.117626    0.000000
      2          1           0        0.776133   -0.444111    0.000000
      3          1           0       -0.776133   -0.496893    0.000000
 ---------------------------------------------------------------------

 SCF Done:  E(RB2PLYPD3) =  -76.3337211080     A.U. after   10 cycles
 E2(B2PLYPD3) =    -0.9046694574D-01 E(B2PLYPD3) =    -0.76424188053734D+02

 The electronic state is 1-A'.
 Alpha  occ. eigenvalues --  -19.73321  -1.14913  -0.60779  -0.47051  -0.39812
 Alpha virt. eigenvalues --    0.04369   0.10044   0.27586   0.30453   0.30715
 Alpha virt. eigenvalues --    0.35099   0.43573   0.50327   0.55896   0.62384
 Alpha virt. eigenvalues --    0.65976   0.80671   0.93177   0.96270   1.02842

 Mulliken charges:
               1
     1  O   -0.456486
     2  H    0.221708
     3  H    0.234777
 Sum of Mulliken charges =   0.00000

 Dipole moment (field-independent basis, Debye):
    X=              0.0158    Y=             -1.9546    Z=              0.0000  Tot=              1.9547
 Quadrupole moment (field-independent basis, Debye-Ang):
   XX=             -4.2582   YY=             -6.3639   ZZ=             -7.6301
   XY=              0.0888   XZ=              0.0000   YZ=              0.0000

 1\1\GINC-NODE24\SP\RB2PLYPD3-FC\def2QZVP\H2O1\BOITTIER\26-Aug-2020\0\\
 #p B2PLYPD3/Def2QZVP\\h2o\\0,1\O,0,-5.326605,-0.765051,0.918481\H,0,-4
 .368927,-0.747181,0.940018\H,0,-5.609308,0.172036,0.770284\\Version=ES
 64L-G09RevD.01\State=1-A'\HF=-76.3337211\MP2=-76.4241881\RMSD=4.393e-0
 9\PG=CS [SG(H2O1)]\\@

 ... UNTIL SCIENCE IS MIXED WITH EMOTION AND APPEALS TO THE HEART AND

 Normal termination of Gaussian 09 at Wed Aug 26 10:04:16 2020.
