 Gaussian 09, Revision D.01,
 Gaussian 09:  ES64L-G09RevD.01 24-Apr-2013

 --------------------
 #p B2PLYPD3/Def2QZVP
 --------------------

 ---
 h2o
 ---
 Symbolic Z-matrix:
 Charge =  0 Multiplicity = 1

                         Standard orientation:
 ---------------------------------------------------------------------
 Center     Atomic      Atomic             Coordinates (Angstroms)
 Number     Number       Type             X           Y           Z
 ---------------------------------------------------------------------
      1          8           0        0.000000    0.118701    0.000000
      2          1           0        0.744921   -0.487897    0.000000
      3          1           0       -0.744921   -0.461709    0.000000
 ---------------------------------------------------------------------

 SCF Done:  E(RB2PLYPD3) =  -76.3349637780     A.U. after   10 cycles
 E2(B2PLYPD3) =    -0.8984447627D-01 E(B2PLYPD3) =    -0.76424808254290D+02

 The electronic state is 1-A'.
 Alpha  occ. eigenvalues --  -19.73100  -1.16109  -0.61234  -0.47876  -0.40062
 Alpha virt. eigenvalues --    0.04567   0.10299   0.27500   0.30391   0.30938
 Alpha virt. eigenvalues --    0.36466   0.44168   0.50012   0.56597   0.61729
 Alpha virt. eigenvalues --    0.65509   0.81388   0.94187   0.95777   1.03944

 Mulliken charges:
               1
     1  O   -0.434347
     2  H    0.220923
     3  H    0.213424
 Sum of Mulliken charges =   0.00000

 Dipole moment (field-independent basis, Debye):
    X=             -0.0086    Y=             -1.9833    Z=              0.0000  Tot=              1.9834
 Quadrupole moment (field-independent basis, Debye-Ang):
   XX=             -4.4249   YY=             -6.2709   ZZ=             -7.5761
   XY=             -0.0417   XZ=              0.0000   YZ=              0.0000

 1\1\GINC-NODE20\SP\RB2PLYPD3-FC\def2QZVP\H2O1\BOITTIER\26-Aug-2020\0\\
 #p B2PLYPD3/Def2QZVP\\h2o\\0,1\O,0,-5.326605,-0.764939,0.923233\H,0,-4
 .368927,-0.692638,0.901016\H,0,-5.609308,0.115709,0.732653\\Version=ES
 64L-G09RevD.01\State=1-A'\HF=-76.3349638\MP2=-76.4248083\RMSD=4.448e-0
 9\PG=CS [SG(H2O1)]\\@

 Just remember, when you're over the hill, you begin to pick up speed.

 Normal termination of Gaussian 09 at Wed Aug 26 10:30:46 2020.
