 Gaussian 09, Revision D.01,
 Gaussian 09:  ES64L-G09RevD.01 24-Apr-2013

 --------------------
 #p B2PLYPD3/Def2QZVP
 --------------------

 ---
 h2o
 ---
 Symbolic Z-matrix:
 Charge =  0 Multiplicity = 1

                         Standard orientation:
 ---------------------------------------------------------------------
 Center     Atomic      Atomic             Coordinates (Angstroms)
 Number     Number       Type             X           Y           Z
 ---------------------------------------------------------------------
      1          8           0        0.000000    0.119069    0.000000
      2          1           0        0.748209   -0.483005    0.000000
      3          1           0       -0.748209   -0.469544    0.000000
 ---------------------------------------------------------------------

 SCF Done:  E(RB2PLYPD3) =  -76.3350277503     A.U. after   10 cycles
 E2(B2PLYPD3) =    -0.8996287194D-01 E(B2PLYPD3) =    -0.76424990622233D+02

 The electronic state is 1-A'.
 Alpha  occ. eigenvalues --  -19.73158  -1.15922  -0.61079  -0.47815  -0.40029
 Alpha virt. eigenvalues --    0.04531   0.10262   0.27525   0.30400   0.30881
 Alpha virt. eigenvalues --    0.36289   0.44055   0.49988   0.56544   0.61717
 Alpha virt. eigenvalues --    0.65603   0.81301   0.94092   0.95852   1.03711

 Mulliken charges:
               1
     1  O   -0.437551
     2  H    0.220659
     3  H    0.216892
 Sum of Mulliken charges =   0.00000

 Dipole moment (field-independent basis, Debye):
    X=             -0.0044    Y=             -1.9849    Z=              0.0000  Tot=              1.9849
 Quadrupole moment (field-independent basis, Debye-Ang):
   XX=             -4.4143   YY=             -6.2754   ZZ=             -7.5846
   XY=             -0.0215   XZ=              0.0000   YZ=              0.0000

 1\1\GINC-NODE23\SP\RB2PLYPD3-FC\def2QZVP\H2O1\BOITTIER\26-Aug-2020\0\\
 #p B2PLYPD3/Def2QZVP\\h2o\\0,1\O,0,-5.326605,-0.765313,0.922687\H,0,-4
 .368927,-0.695047,0.907705\H,0,-5.609308,0.124092,0.734754\\Version=ES
 64L-G09RevD.01\State=1-A'\HF=-76.3350278\MP2=-76.4249906\RMSD=4.298e-0
 9\PG=CS [SG(H2O1)]\\@

 Age does not diminish the extreme disappointment of

 Normal termination of Gaussian 09 at Wed Aug 26 09:42:39 2020.
