 Gaussian 09, Revision D.01,
 Gaussian 09:  ES64L-G09RevD.01 24-Apr-2013

 --------------------
 #p B2PLYPD3/Def2QZVP
 --------------------

 ---
 h2o
 ---
 Symbolic Z-matrix:
 Charge =  0 Multiplicity = 1

                         Standard orientation:
 ---------------------------------------------------------------------
 Center     Atomic      Atomic             Coordinates (Angstroms)
 Number     Number       Type             X           Y           Z
 ---------------------------------------------------------------------
      1          8           0        0.000000    0.119834    0.000000
      2          1           0        0.755956   -0.471755    0.000000
      3          1           0       -0.755956   -0.486919    0.000000
 ---------------------------------------------------------------------

 SCF Done:  E(RB2PLYPD3) =  -76.3347384505     A.U. after   10 cycles
 E2(B2PLYPD3) =    -0.9023444852D-01 E(B2PLYPD3) =    -0.76424972898975D+02

 The electronic state is 1-A'.
 Alpha  occ. eigenvalues --  -19.73285  -1.15505  -0.60738  -0.47660  -0.39952
 Alpha virt. eigenvalues --    0.04442   0.10177   0.27578   0.30421   0.30727
 Alpha virt. eigenvalues --    0.35879   0.43817   0.49945   0.56405   0.61710
 Alpha virt. eigenvalues --    0.65811   0.81089   0.93814   0.96029   1.03132

 Mulliken charges:
               1
     1  O   -0.444484
     2  H    0.220229
     3  H    0.224256
 Sum of Mulliken charges =   0.00000

 Dipole moment (field-independent basis, Debye):
    X=              0.0049    Y=             -1.9875    Z=              0.0000  Tot=              1.9875
 Quadrupole moment (field-independent basis, Debye-Ang):
   XX=             -4.3878   YY=             -6.2861   ZZ=             -7.6042
   XY=              0.0244   XZ=              0.0000   YZ=              0.0000

 1\1\GINC-NODE14\SP\RB2PLYPD3-FC\def2QZVP\H2O1\BOITTIER\26-Aug-2020\0\\
 #p B2PLYPD3/Def2QZVP\\h2o\\0,1\O,0,-5.326605,-0.765385,0.924704\H,0,-4
 .368927,-0.708374,0.892303\H,0,-5.609308,0.138584,0.718457\\Version=ES
 64L-G09RevD.01\State=1-A'\HF=-76.3347385\MP2=-76.4249729\RMSD=4.191e-0
 9\PG=CS [SG(H2O1)]\\@

 MODELS ARE TO BE USED, NOT BELIEVED.

 Normal termination of Gaussian 09 at Wed Aug 26 10:45:42 2020.
