 Gaussian 09, Revision D.01,
 Gaussian 09:  ES64L-G09RevD.01 24-Apr-2013

 --------------------
 #p B2PLYPD3/Def2QZVP
 --------------------

 ---
 h2o
 ---
 Symbolic Z-matrix:
 Charge =  0 Multiplicity = 1

                         Standard orientation:
 ---------------------------------------------------------------------
 Center     Atomic      Atomic             Coordinates (Angstroms)
 Number     Number       Type             X           Y           Z
 ---------------------------------------------------------------------
      1          8           0        0.000000    0.113516    0.000000
      2          1           0        0.758177   -0.475344    0.000000
      3          1           0       -0.758177   -0.432786    0.000000
 ---------------------------------------------------------------------

 SCF Done:  E(RB2PLYPD3) =  -76.3349348534     A.U. after   10 cycles
 E2(B2PLYPD3) =    -0.8957343014D-01 E(B2PLYPD3) =    -0.76424508283515D+02

 The electronic state is 1-A'.
 Alpha  occ. eigenvalues --  -19.72872  -1.16117  -0.62133  -0.47285  -0.40024
 Alpha virt. eigenvalues --    0.04688   0.10285   0.27409   0.30387   0.31339
 Alpha virt. eigenvalues --    0.36130   0.44315   0.50694   0.56134   0.62800
 Alpha virt. eigenvalues --    0.65300   0.81338   0.93953   0.95750   1.04922

 Mulliken charges:
               1
     1  O   -0.436937
     2  H    0.224612
     3  H    0.212326
 Sum of Mulliken charges =   0.00000

 Dipole moment (field-independent basis, Debye):
    X=             -0.0125    Y=             -1.9262    Z=              0.0000  Tot=              1.9262
 Quadrupole moment (field-independent basis, Debye-Ang):
   XX=             -4.2902   YY=             -6.3673   ZZ=             -7.5702
   XY=             -0.0712   XZ=              0.0000   YZ=              0.0000

 1\1\GINC-NODE13\SP\RB2PLYPD3-FC\def2QZVP\H2O1\BOITTIER\26-Aug-2020\0\\
 #p B2PLYPD3/Def2QZVP\\h2o\\0,1\O,0,-5.326605,-0.762693,0.912334\H,0,-4
 .368927,-0.737356,0.973981\H,0,-5.609308,0.124492,0.83321\\Version=ES6
 4L-G09RevD.01\State=1-A'\HF=-76.3349349\MP2=-76.4245083\RMSD=4.467e-09
 \PG=CS [SG(H2O1)]\\@

 FESTINA LENTE!

 Normal termination of Gaussian 09 at Wed Aug 26 08:45:34 2020.
