 Gaussian 09, Revision D.01,
 Gaussian 09:  ES64L-G09RevD.01 24-Apr-2013

 --------------------
 #p B2PLYPD3/Def2QZVP
 --------------------

 ---
 h2o
 ---
 Symbolic Z-matrix:
 Charge =  0 Multiplicity = 1

                         Standard orientation:
 ---------------------------------------------------------------------
 Center     Atomic      Atomic             Coordinates (Angstroms)
 Number     Number       Type             X           Y           Z
 ---------------------------------------------------------------------
      1          8           0        0.000000    0.121276    0.000000
      2          1           0        0.742804   -0.492604    0.000000
      3          1           0       -0.742804   -0.477601    0.000000
 ---------------------------------------------------------------------

 SCF Done:  E(RB2PLYPD3) =  -76.3347208200     A.U. after   10 cycles
 E2(B2PLYPD3) =    -0.9010114590D-01 E(B2PLYPD3) =    -0.76424821965922D+02

 The electronic state is 1-A'.
 Alpha  occ. eigenvalues --  -19.73259  -1.15899  -0.60681  -0.48053  -0.40040
 Alpha virt. eigenvalues --    0.04470   0.10262   0.27568   0.30402   0.30695
 Alpha virt. eigenvalues --    0.36383   0.43985   0.49735   0.56730   0.61283
 Alpha virt. eigenvalues --    0.65698   0.81289   0.94190   0.95892   1.03250

 Mulliken charges:
               1
     1  O   -0.436689
     2  H    0.220429
     3  H    0.216260
 Sum of Mulliken charges =   0.00000

 Dipole moment (field-independent basis, Debye):
    X=             -0.0052    Y=             -2.0085    Z=              0.0000  Tot=              2.0085
 Quadrupole moment (field-independent basis, Debye-Ang):
   XX=             -4.4709   YY=             -6.2343   ZZ=             -7.5883
   XY=             -0.0235   XZ=              0.0000   YZ=              0.0000

 1\1\GINC-NODE22\SP\RB2PLYPD3-FC\def2QZVP\H2O1\BOITTIER\26-Aug-2020\0\\
 #p B2PLYPD3/Def2QZVP\\h2o\\0,1\O,0,-5.326605,-0.76745,0.919009\H,0,-4.
 368927,-0.664939,0.949856\H,0,-5.609308,0.128176,0.750651\\Version=ES6
 4L-G09RevD.01\State=1-A'\HF=-76.3347208\MP2=-76.424822\RMSD=4.435e-09\
 PG=CS [SG(H2O1)]\\@

 WHEN HAVING A MEETING OF THE MINDS,

 Normal termination of Gaussian 09 at Wed Aug 26 09:20:54 2020.
