 Gaussian 09, Revision D.01,
 Gaussian 09:  ES64L-G09RevD.01 24-Apr-2013

 --------------------
 #p B2PLYPD3/Def2QZVP
 --------------------

 ---
 h2o
 ---
 Symbolic Z-matrix:
 Charge =  0 Multiplicity = 1

                         Standard orientation:
 ---------------------------------------------------------------------
 Center     Atomic      Atomic             Coordinates (Angstroms)
 Number     Number       Type             X           Y           Z
 ---------------------------------------------------------------------
      1          8           0        0.000000    0.122133    0.000000
      2          1           0        0.755023   -0.473368    0.000000
      3          1           0       -0.755023   -0.503693    0.000000
 ---------------------------------------------------------------------

 SCF Done:  E(RB2PLYPD3) =  -76.3340668361     A.U. after   10 cycles
 E2(B2PLYPD3) =    -0.9048956634D-01 E(B2PLYPD3) =    -0.76424556402474D+02

 The electronic state is 1-A'.
 Alpha  occ. eigenvalues --  -19.73432  -1.15288  -0.60240  -0.47785  -0.39927
 Alpha virt. eigenvalues --    0.04343   0.10132   0.27640   0.30432   0.30468
 Alpha virt. eigenvalues --    0.35767   0.43653   0.49696   0.56491   0.61335
 Alpha virt. eigenvalues --    0.65991   0.80984   0.93725   0.96151   1.02444

 Mulliken charges:
               1
     1  O   -0.446639
     2  H    0.219419
     3  H    0.227220
 Sum of Mulliken charges =   0.00000

 Dipole moment (field-independent basis, Debye):
    X=              0.0103    Y=             -2.0092    Z=              0.0000  Tot=              2.0092
 Quadrupole moment (field-independent basis, Debye-Ang):
   XX=             -4.4244   YY=             -6.2548   ZZ=             -7.6168
   XY=              0.0482   XZ=              0.0000   YZ=              0.0000

 1\1\GINC-NODE11\SP\RB2PLYPD3-FC\def2QZVP\H2O1\BOITTIER\26-Aug-2020\0\\
 #p B2PLYPD3/Def2QZVP\\h2o\\0,1\O,0,-5.326605,-0.766107,0.927893\H,0,-4
 .368927,-0.700198,0.871419\H,0,-5.609308,0.14196,0.688704\\Version=ES6
 4L-G09RevD.01\State=1-A'\HF=-76.3340668\MP2=-76.4245564\RMSD=4.353e-09
 \PG=CS [SG(H2O1)]\\@

 "TIGER, TIGER BURNING BRIGHT

 Normal termination of Gaussian 09 at Wed Aug 26 08:32:46 2020.
