 Gaussian 09, Revision D.01,
 Gaussian 09:  ES64L-G09RevD.01 24-Apr-2013

 --------------------
 #p B2PLYPD3/Def2QZVP
 --------------------

 ---
 h2o
 ---
 Symbolic Z-matrix:
 Charge =  0 Multiplicity = 1

                         Standard orientation:
 ---------------------------------------------------------------------
 Center     Atomic      Atomic             Coordinates (Angstroms)
 Number     Number       Type             X           Y           Z
 ---------------------------------------------------------------------
      1          8           0        0.000000    0.119134    0.000000
      2          1           0        0.748843   -0.482111    0.000000
      3          1           0       -0.748843   -0.470958    0.000000
 ---------------------------------------------------------------------

 SCF Done:  E(RB2PLYPD3) =  -76.3350261489     A.U. after   10 cycles
 E2(B2PLYPD3) =    -0.8998516421D-01 E(B2PLYPD3) =    -0.76425011313060D+02

 The electronic state is 1-A'.
 Alpha  occ. eigenvalues --  -19.73169  -1.15887  -0.61050  -0.47803  -0.40022
 Alpha virt. eigenvalues --    0.04524   0.10256   0.27530   0.30402   0.30870
 Alpha virt. eigenvalues --    0.36255   0.44035   0.49985   0.56533   0.61715
 Alpha virt. eigenvalues --    0.65621   0.81284   0.94072   0.95866   1.03665

 Mulliken charges:
               1
     1  O   -0.438145
     2  H    0.220626
     3  H    0.217519
 Sum of Mulliken charges =   0.00000

 Dipole moment (field-independent basis, Debye):
    X=             -0.0037    Y=             -1.9852    Z=              0.0000  Tot=              1.9852
 Quadrupole moment (field-independent basis, Debye-Ang):
   XX=             -4.4122   YY=             -6.2763   ZZ=             -7.5862
   XY=             -0.0178   XZ=              0.0000   YZ=              0.0000

 1\1\GINC-NODE14\SP\RB2PLYPD3-FC\def2QZVP\H2O1\BOITTIER\26-Aug-2020\0\\
 #p B2PLYPD3/Def2QZVP\\h2o\\0,1\O,0,-5.326605,-0.765193,0.923444\H,0,-4
 .368927,-0.697294,0.900981\H,0,-5.609308,0.124434,0.729493\\Version=ES
 64L-G09RevD.01\State=1-A'\HF=-76.3350261\MP2=-76.4250113\RMSD=4.278e-0
 9\PG=CS [SG(H2O1)]\\@

 NOTHING WILL BE ATTEMPTED IF ALL POSSIBLE OBJECTIONS

 Normal termination of Gaussian 09 at Wed Aug 26 09:45:50 2020.
