 Gaussian 09, Revision D.01,
 Gaussian 09:  ES64L-G09RevD.01 24-Apr-2013

 --------------------
 #p B2PLYPD3/Def2QZVP
 --------------------

 ---
 h2o
 ---
 Symbolic Z-matrix:
 Charge =  0 Multiplicity = 1

                         Standard orientation:
 ---------------------------------------------------------------------
 Center     Atomic      Atomic             Coordinates (Angstroms)
 Number     Number       Type             X           Y           Z
 ---------------------------------------------------------------------
      1          8           0        0.000000    0.120633    0.000000
      2          1           0        0.771505   -0.451227    0.000000
      3          1           0       -0.771505   -0.513839    0.000000
 ---------------------------------------------------------------------

 SCF Done:  E(RB2PLYPD3) =  -76.3329979630     A.U. after   10 cycles
 E2(B2PLYPD3) =    -0.9070698183D-01 E(B2PLYPD3) =    -0.76423704944776D+02

 The electronic state is 1-A'.
 Alpha  occ. eigenvalues --  -19.73478  -1.14788  -0.60225  -0.47299  -0.39811
 Alpha virt. eigenvalues --    0.04268   0.10017   0.27651   0.30394   0.30459
 Alpha virt. eigenvalues --    0.35148   0.43448   0.49945   0.56076   0.61833
 Alpha virt. eigenvalues --    0.66144   0.80651   0.93121   0.96344   1.02128

 Mulliken charges:
               1
     1  O   -0.456189
     2  H    0.220516
     3  H    0.235673
 Sum of Mulliken charges =   0.00000

 Dipole moment (field-independent basis, Debye):
    X=              0.0199    Y=             -1.9853    Z=              0.0000  Tot=              1.9854
 Quadrupole moment (field-independent basis, Debye-Ang):
   XX=             -4.3229   YY=             -6.3138   ZZ=             -7.6392
   XY=              0.1030   XZ=              0.0000   YZ=              0.0000

 1\1\GINC-NODE27\SP\RB2PLYPD3-FC\def2QZVP\H2O1\BOITTIER\26-Aug-2020\0\\
 #p B2PLYPD3/Def2QZVP\\h2o\\0,1\O,0,-5.326605,-0.767304,0.916566\H,0,-4
 .368927,-0.718788,0.968937\H,0,-5.609308,0.179699,0.771517\\Version=ES
 64L-G09RevD.01\State=1-A'\HF=-76.332998\MP2=-76.4237049\RMSD=4.593e-09
 \PG=CS [SG(H2O1)]\\@

 The number of Unix installations has grown to 10,

 Normal termination of Gaussian 09 at Wed Aug 26 08:33:30 2020.
