 Gaussian 09, Revision D.01,
 Gaussian 09:  ES64L-G09RevD.01 24-Apr-2013

 --------------------
 #p B2PLYPD3/Def2QZVP
 --------------------

 ---
 h2o
 ---
 Symbolic Z-matrix:
 Charge =  0 Multiplicity = 1

                         Standard orientation:
 ---------------------------------------------------------------------
 Center     Atomic      Atomic             Coordinates (Angstroms)
 Number     Number       Type             X           Y           Z
 ---------------------------------------------------------------------
      1          8           0        0.000000    0.117916    0.000000
      2          1           0        0.763562   -0.462945    0.000000
      3          1           0       -0.763562   -0.480385    0.000000
 ---------------------------------------------------------------------

 SCF Done:  E(RB2PLYPD3) =  -76.3348131022     A.U. after   10 cycles
 E2(B2PLYPD3) =    -0.9019118531D-01 E(B2PLYPD3) =    -0.76425004287461D+02

 The electronic state is 1-A'.
 Alpha  occ. eigenvalues --  -19.73226  -1.15397  -0.61004  -0.47382  -0.39915
 Alpha virt. eigenvalues --    0.04469   0.10151   0.27553   0.30427   0.30863
 Alpha virt. eigenvalues --    0.35644   0.43808   0.50204   0.56184   0.62137
 Alpha virt. eigenvalues --    0.65781   0.81004   0.93649   0.96055   1.03409

 Mulliken charges:
               1
     1  O   -0.447712
     2  H    0.221563
     3  H    0.226149
 Sum of Mulliken charges =   0.00000

 Dipole moment (field-independent basis, Debye):
    X=              0.0054    Y=             -1.9651    Z=              0.0000  Tot=              1.9651
 Quadrupole moment (field-independent basis, Debye-Ang):
   XX=             -4.3242   YY=             -6.3294   ZZ=             -7.6071
   XY=              0.0287   XZ=              0.0000   YZ=              0.0000

 1\1\GINC-NODE21\SP\RB2PLYPD3-FC\def2QZVP\H2O1\BOITTIER\26-Aug-2020\0\\
 #p B2PLYPD3/Def2QZVP\\h2o\\0,1\O,0,-5.326605,-0.76542,0.917003\H,0,-4.
 368927,-0.72151,0.953757\H,0,-5.609308,0.152272,0.779487\\Version=ES64
 L-G09RevD.01\State=1-A'\HF=-76.3348131\MP2=-76.4250043\RMSD=4.066e-09\
 PG=CS [SG(H2O1)]\\@

 TRUST EVERYONE, BUT CUT THE CARDS.

 Normal termination of Gaussian 09 at Wed Aug 26 11:07:42 2020.
