 Gaussian 09, Revision D.01,
 Gaussian 09:  ES64L-G09RevD.01 24-Apr-2013

 --------------------
 #p B2PLYPD3/Def2QZVP
 --------------------

 ---
 h2o
 ---
 Symbolic Z-matrix:
 Charge =  0 Multiplicity = 1

                         Standard orientation:
 ---------------------------------------------------------------------
 Center     Atomic      Atomic             Coordinates (Angstroms)
 Number     Number       Type             X           Y           Z
 ---------------------------------------------------------------------
      1          8           0        0.000000    0.116812    0.000000
      2          1           0        0.761653   -0.472205    0.000000
      3          1           0       -0.761653   -0.462288    0.000000
 ---------------------------------------------------------------------

 SCF Done:  E(RB2PLYPD3) =  -76.3350867585     A.U. after   10 cycles
 E2(B2PLYPD3) =    -0.9001887420D-01 E(B2PLYPD3) =    -0.76425105632732D+02

 The electronic state is 1-A'.
 Alpha  occ. eigenvalues --  -19.73133  -1.15599  -0.61297  -0.47375  -0.39947
 Alpha virt. eigenvalues --    0.04532   0.10192   0.27515   0.30416   0.31004
 Alpha virt. eigenvalues --    0.35795   0.43941   0.50320   0.56189   0.62289
 Alpha virt. eigenvalues --    0.65651   0.81106   0.93765   0.95963   1.03857

 Mulliken charges:
               1
     1  O   -0.444823
     2  H    0.223751
     3  H    0.221072
 Sum of Mulliken charges =   0.00000

 Dipole moment (field-independent basis, Debye):
    X=             -0.0030    Y=             -1.9559    Z=              0.0000  Tot=              1.9559
 Quadrupole moment (field-independent basis, Debye-Ang):
   XX=             -4.3183   YY=             -6.3381   ZZ=             -7.5967
   XY=             -0.0164   XZ=              0.0000   YZ=              0.0000

 1\1\GINC-NODE36\SP\RB2PLYPD3-FC\def2QZVP\H2O1\BOITTIER\26-Aug-2020\0\\
 #p B2PLYPD3/Def2QZVP\\h2o\\0,1\O,0,-5.326605,-0.761746,0.929676\H,0,-4
 .368927,-0.751428,0.830666\H,0,-5.609308,0.12341,0.701531\\Version=ES6
 4L-G09RevD.01\State=1-A'\HF=-76.3350868\MP2=-76.4251056\RMSD=4.035e-09
 \PG=CS [SG(H2O1)]\\@

 JUST WHEN YOU THINK YOU'VE GOT THE WORLD ON A STRING,

 Normal termination of Gaussian 09 at Wed Aug 26 09:08:00 2020.
