 Gaussian 09, Revision D.01,
 Gaussian 09:  ES64L-G09RevD.01 24-Apr-2013

 --------------------
 #p B2PLYPD3/Def2QZVP
 --------------------

 ---
 h2o
 ---
 Symbolic Z-matrix:
 Charge =  0 Multiplicity = 1

                         Standard orientation:
 ---------------------------------------------------------------------
 Center     Atomic      Atomic             Coordinates (Angstroms)
 Number     Number       Type             X           Y           Z
 ---------------------------------------------------------------------
      1          8           0        0.000000    0.119592    0.000000
      2          1           0        0.748492   -0.482486    0.000000
      3          1           0       -0.748492   -0.474248    0.000000
 ---------------------------------------------------------------------

 SCF Done:  E(RB2PLYPD3) =  -76.3349771736     A.U. after   10 cycles
 E2(B2PLYPD3) =    -0.9003088078D-01 E(B2PLYPD3) =    -0.76425008054341D+02

 The electronic state is 1-A'.
 Alpha  occ. eigenvalues --  -19.73197  -1.15849  -0.60952  -0.47834  -0.40018
 Alpha virt. eigenvalues --    0.04507   0.10249   0.27542   0.30404   0.30826
 Alpha virt. eigenvalues --    0.36240   0.44003   0.49934   0.56556   0.61636
 Alpha virt. eigenvalues --    0.65655   0.81267   0.94069   0.95886   1.03538

 Mulliken charges:
               1
     1  O   -0.438553
     2  H    0.220418
     3  H    0.218135
 Sum of Mulliken charges =   0.00000

 Dipole moment (field-independent basis, Debye):
    X=             -0.0027    Y=             -1.9897    Z=              0.0000  Tot=              1.9897
 Quadrupole moment (field-independent basis, Debye-Ang):
   XX=             -4.4203   YY=             -6.2698   ZZ=             -7.5884
   XY=             -0.0131   XZ=              0.0000   YZ=              0.0000

 1\1\GINC-NODE35\SP\RB2PLYPD3-FC\def2QZVP\H2O1\BOITTIER\26-Aug-2020\0\\
 #p B2PLYPD3/Def2QZVP\\h2o\\0,1\O,0,-5.326605,-0.765483,0.923561\H,0,-4
 .368927,-0.693943,0.901818\H,0,-5.609308,0.125718,0.72677\\Version=ES6
 4L-G09RevD.01\State=1-A'\HF=-76.3349772\MP2=-76.4250081\RMSD=4.282e-09
 \PG=CS [SG(H2O1)]\\@

 THE THINKER DIES, BUT HIS THOUGHTS ARE BEYOND THE

 Normal termination of Gaussian 09 at Wed Aug 26 10:21:10 2020.
