 Gaussian 09, Revision D.01,
 Gaussian 09:  ES64L-G09RevD.01 24-Apr-2013

 --------------------
 #p B2PLYPD3/Def2QZVP
 --------------------

 ---
 h2o
 ---
 Symbolic Z-matrix:
 Charge =  0 Multiplicity = 1

                         Standard orientation:
 ---------------------------------------------------------------------
 Center     Atomic      Atomic             Coordinates (Angstroms)
 Number     Number       Type             X           Y           Z
 ---------------------------------------------------------------------
      1          8           0        0.000000    0.110738    0.000000
      2          1           0        0.766311   -0.469374    0.000000
      3          1           0       -0.766311   -0.416530    0.000000
 ---------------------------------------------------------------------

 SCF Done:  E(RB2PLYPD3) =  -76.3346052045     A.U. after   10 cycles
 E2(B2PLYPD3) =    -0.8947593709D-01 E(B2PLYPD3) =    -0.76424081141640D+02

 The electronic state is 1-A'.
 Alpha  occ. eigenvalues --  -19.72763  -1.16061  -0.62565  -0.46938  -0.39992
 Alpha virt. eigenvalues --    0.04736   0.10264   0.27371   0.30388   0.31537
 Alpha virt. eigenvalues --    0.35861   0.44358   0.51116   0.55861   0.63412
 Alpha virt. eigenvalues --    0.65220   0.81229   0.93829   0.95795   1.05300

 Mulliken charges:
               1
     1  O   -0.439562
     2  H    0.227377
     3  H    0.212185
 Sum of Mulliken charges =   0.00000

 Dipole moment (field-independent basis, Debye):
    X=             -0.0144    Y=             -1.8942    Z=              0.0000  Tot=              1.8942
 Quadrupole moment (field-independent basis, Debye-Ang):
   XX=             -4.2132   YY=             -6.4210   ZZ=             -7.5703
   XY=             -0.0908   XZ=              0.0000   YZ=              0.0000

 1\1\GINC-NODE11\SP\RB2PLYPD3-FC\def2QZVP\H2O1\BOITTIER\26-Aug-2020\0\\
 #p B2PLYPD3/Def2QZVP\\h2o\\0,1\O,0,-5.326605,-0.760704,0.908835\H,0,-4
 .368927,-0.769458,0.989701\H,0,-5.609308,0.124771,0.873366\\Version=ES
 64L-G09RevD.01\State=1-A'\HF=-76.3346052\MP2=-76.4240811\RMSD=4.623e-0
 9\PG=CS [SG(H2O1)]\\@

 THE FIRST AND LAST THING REQUIRED OF GENIUS IS THE LOVE OF TRUTH.

 Normal termination of Gaussian 09 at Wed Aug 26 09:06:22 2020.
