 Gaussian 09, Revision D.01,
 Gaussian 09:  ES64L-G09RevD.01 24-Apr-2013

 --------------------
 #p B2PLYPD3/Def2QZVP
 --------------------

 ---
 h2o
 ---
 Symbolic Z-matrix:
 Charge =  0 Multiplicity = 1

                         Standard orientation:
 ---------------------------------------------------------------------
 Center     Atomic      Atomic             Coordinates (Angstroms)
 Number     Number       Type             X           Y           Z
 ---------------------------------------------------------------------
      1          8           0        0.000000    0.116412    0.000000
      2          1           0        0.749157   -0.482677    0.000000
      3          1           0       -0.749157   -0.448616    0.000000
 ---------------------------------------------------------------------

 SCF Done:  E(RB2PLYPD3) =  -76.3350163563     A.U. after   10 cycles
 E2(B2PLYPD3) =    -0.8968028547D-01 E(B2PLYPD3) =    -0.76424696641740D+02

 The electronic state is 1-A'.
 Alpha  occ. eigenvalues --  -19.72982  -1.16188  -0.61674  -0.47657  -0.40060
 Alpha virt. eigenvalues --    0.04634   0.10308   0.27452   0.30386   0.31130
 Alpha virt. eigenvalues --    0.36407   0.44274   0.50288   0.56427   0.62170
 Alpha virt. eigenvalues --    0.65385   0.81416   0.94120   0.95727   1.04456

 Mulliken charges:
               1
     1  O   -0.434071
     2  H    0.221976
     3  H    0.212095
 Sum of Mulliken charges =   0.00000

 Dipole moment (field-independent basis, Debye):
    X=             -0.0107    Y=             -1.9593    Z=              0.0000  Tot=              1.9593
 Quadrupole moment (field-independent basis, Debye-Ang):
   XX=             -4.3731   YY=             -6.3094   ZZ=             -7.5700
   XY=             -0.0553   XZ=              0.0000   YZ=              0.0000

 1\1\GINC-NODE21\SP\RB2PLYPD3-FC\def2QZVP\H2O1\BOITTIER\26-Aug-2020\0\\
 #p B2PLYPD3/Def2QZVP\\h2o\\0,1\O,0,-5.326605,-0.763579,0.922176\H,0,-4
 .368927,-0.713036,0.90115\H,0,-5.609308,0.114346,0.749495\\Version=ES6
 4L-G09RevD.01\State=1-A'\HF=-76.3350164\MP2=-76.4246966\RMSD=4.454e-09
 \PG=CS [SG(H2O1)]\\@

     "IF I COULD JUST GET IT ON PAPER"

 Normal termination of Gaussian 09 at Wed Aug 26 10:35:36 2020.
