 Gaussian 09, Revision D.01,
 Gaussian 09:  ES64L-G09RevD.01 24-Apr-2013

 --------------------
 #p B2PLYPD3/Def2QZVP
 --------------------

 ---
 h2o
 ---
 Symbolic Z-matrix:
 Charge =  0 Multiplicity = 1

                         Standard orientation:
 ---------------------------------------------------------------------
 Center     Atomic      Atomic             Coordinates (Angstroms)
 Number     Number       Type             X           Y           Z
 ---------------------------------------------------------------------
      1          8           0        0.000000    0.116350    0.000000
      2          1           0        0.758156   -0.471002    0.000000
      3          1           0       -0.758156   -0.459796    0.000000
 ---------------------------------------------------------------------

 SCF Done:  E(RB2PLYPD3) =  -76.3352054872     A.U. after   10 cycles
 E2(B2PLYPD3) =    -0.8988329959D-01 E(B2PLYPD3) =    -0.76425088786757D+02

 The electronic state is 1-A'.
 Alpha  occ. eigenvalues --  -19.73067  -1.15800  -0.61483  -0.47438  -0.39984
 Alpha virt. eigenvalues --    0.04577   0.10231   0.27488   0.30405   0.31082
 Alpha virt. eigenvalues --    0.35985   0.44060   0.50351   0.56246   0.62313
 Alpha virt. eigenvalues --    0.65548   0.81214   0.93890   0.95876   1.04157

 Mulliken charges:
               1
     1  O   -0.441414
     2  H    0.222259
     3  H    0.219155
 Sum of Mulliken charges =   0.00000

 Dipole moment (field-independent basis, Debye):
    X=             -0.0034    Y=             -1.9535    Z=              0.0000  Tot=              1.9535
 Quadrupole moment (field-independent basis, Debye-Ang):
   XX=             -4.3290   YY=             -6.3345   ZZ=             -7.5871
   XY=             -0.0185   XZ=              0.0000   YZ=              0.0000

 1\1\GINC-NODE10\SP\RB2PLYPD3-FC\def2QZVP\H2O1\BOITTIER\26-Aug-2020\0\\
 #p B2PLYPD3/Def2QZVP\\h2o\\0,1\O,0,-5.326605,-0.763085,0.924183\H,0,-4
 .368927,-0.733297,0.882377\H,0,-5.609308,0.126696,0.736797\\Version=ES
 64L-G09RevD.01\State=1-A'\HF=-76.3352055\MP2=-76.4250888\RMSD=4.088e-0
 9\PG=CS [SG(H2O1)]\\@

 Luck is a matter of preparation meeting opportunity.

 Normal termination of Gaussian 09 at Wed Aug 26 12:51:00 2020.
