 Gaussian 09, Revision D.01,
 Gaussian 09:  ES64L-G09RevD.01 24-Apr-2013

 --------------------
 #p B2PLYPD3/Def2QZVP
 --------------------

 ---
 h2o
 ---
 Symbolic Z-matrix:
 Charge =  0 Multiplicity = 1

                         Standard orientation:
 ---------------------------------------------------------------------
 Center     Atomic      Atomic             Coordinates (Angstroms)
 Number     Number       Type             X           Y           Z
 ---------------------------------------------------------------------
      1          8           0        0.000000    0.116491    0.000000
      2          1           0        0.756596   -0.472891    0.000000
      3          1           0       -0.756596   -0.459034    0.000000
 ---------------------------------------------------------------------

 SCF Done:  E(RB2PLYPD3) =  -76.3352031943     A.U. after   10 cycles
 E2(B2PLYPD3) =    -0.8986238948D-01 E(B2PLYPD3) =    -0.76425065583781D+02

 The electronic state is 1-A'.
 Alpha  occ. eigenvalues --  -19.73062  -1.15852  -0.61486  -0.47483  -0.39995
 Alpha virt. eigenvalues --    0.04582   0.10242   0.27486   0.30403   0.31079
 Alpha virt. eigenvalues --    0.36051   0.44085   0.50325   0.56282   0.62266
 Alpha virt. eigenvalues --    0.65531   0.81245   0.93929   0.95856   1.04174

 Mulliken charges:
               1
     1  O   -0.440362
     2  H    0.222112
     3  H    0.218250
 Sum of Mulliken charges =   0.00000

 Dipole moment (field-independent basis, Debye):
    X=             -0.0043    Y=             -1.9558    Z=              0.0000  Tot=              1.9558
 Quadrupole moment (field-independent basis, Debye-Ang):
   XX=             -4.3384   YY=             -6.3286   ZZ=             -7.5849
   XY=             -0.0228   XZ=              0.0000   YZ=              0.0000

 1\1\GINC-NODE02\SP\RB2PLYPD3-FC\def2QZVP\H2O1\BOITTIER\26-Aug-2020\0\\
 #p B2PLYPD3/Def2QZVP\\h2o\\0,1\O,0,-5.326605,-0.763242,0.923942\H,0,-4
 .368927,-0.729139,0.885222\H,0,-5.609308,0.125051,0.737712\\Version=ES
 64L-G09RevD.01\State=1-A'\HF=-76.3352032\MP2=-76.4250656\RMSD=4.129e-0
 9\PG=CS [SG(H2O1)]\\@

 IF YOU WANT TO LEARN FROM THE THEORETICAL PHYSICISTS ABOUT THE

 Normal termination of Gaussian 09 at Wed Aug 26 09:43:59 2020.
