 Gaussian 09, Revision D.01,
 Gaussian 09:  ES64L-G09RevD.01 24-Apr-2013

 --------------------
 #p B2PLYPD3/Def2QZVP
 --------------------

 ---
 h2o
 ---
 Symbolic Z-matrix:
 Charge =  0 Multiplicity = 1

                         Standard orientation:
 ---------------------------------------------------------------------
 Center     Atomic      Atomic             Coordinates (Angstroms)
 Number     Number       Type             X           Y           Z
 ---------------------------------------------------------------------
      1          8           0        0.000000    0.120480    0.000000
      2          1           0        0.762775   -0.461537    0.000000
      3          1           0       -0.762775   -0.502300    0.000000
 ---------------------------------------------------------------------

 SCF Done:  E(RB2PLYPD3) =  -76.3340181448     A.U. after   10 cycles
 E2(B2PLYPD3) =    -0.9047513630D-01 E(B2PLYPD3) =    -0.76424493281117D+02

 The electronic state is 1-A'.
 Alpha  occ. eigenvalues --  -19.73390  -1.15154  -0.60448  -0.47515  -0.39886
 Alpha virt. eigenvalues --    0.04355   0.10101   0.27620   0.30439   0.30557
 Alpha virt. eigenvalues --    0.35533   0.43628   0.49911   0.56271   0.61717
 Alpha virt. eigenvalues --    0.65984   0.80888   0.93507   0.96188   1.02591

 Mulliken charges:
               1
     1  O   -0.450081
     2  H    0.219868
     3  H    0.230213
 Sum of Mulliken charges =   0.00000

 Dipole moment (field-independent basis, Debye):
    X=              0.0132    Y=             -1.9893    Z=              0.0000  Tot=              1.9894
 Quadrupole moment (field-independent basis, Debye-Ang):
   XX=             -4.3636   YY=             -6.2948   ZZ=             -7.6214
   XY=              0.0662   XZ=              0.0000   YZ=              0.0000

 1\1\GINC-NODE05\SP\RB2PLYPD3-FC\def2QZVP\H2O1\BOITTIER\26-Aug-2020\0\\
 #p B2PLYPD3/Def2QZVP\\h2o\\0,1\O,0,-5.326605,-0.765753,0.925036\H,0,-4
 .368927,-0.71744,0.892067\H,0,-5.609308,0.153538,0.7137\\Version=ES64L
 -G09RevD.01\State=1-A'\HF=-76.3340181\MP2=-76.4244933\RMSD=4.348e-09\P
 G=CS [SG(H2O1)]\\@

 WE MIGHT AS WELL ATTEMPT TO INTRODUCE A NEW PLANET

 Normal termination of Gaussian 09 at Wed Aug 26 13:00:00 2020.
