 Gaussian 09, Revision D.01,
 Gaussian 09:  ES64L-G09RevD.01 24-Apr-2013

 --------------------
 #p B2PLYPD3/Def2QZVP
 --------------------

 ---
 h2o
 ---
 Symbolic Z-matrix:
 Charge =  0 Multiplicity = 1

                         Standard orientation:
 ---------------------------------------------------------------------
 Center     Atomic      Atomic             Coordinates (Angstroms)
 Number     Number       Type             X           Y           Z
 ---------------------------------------------------------------------
      1          8           0        0.000000    0.116678    0.000000
      2          1           0        0.749691   -0.485364    0.000000
      3          1           0       -0.749691   -0.448060    0.000000
 ---------------------------------------------------------------------

 SCF Done:  E(RB2PLYPD3) =  -76.3349723013     A.U. after   10 cycles
 E2(B2PLYPD3) =    -0.8972360720D-01 E(B2PLYPD3) =    -0.76424695908518D+02

 The electronic state is 1-A'.
 Alpha  occ. eigenvalues --  -19.73005  -1.16135  -0.61600  -0.47656  -0.40051
 Alpha virt. eigenvalues --    0.04618   0.10298   0.27461   0.30389   0.31093
 Alpha virt. eigenvalues --    0.36367   0.44240   0.50262   0.56424   0.62136
 Alpha virt. eigenvalues --    0.65417   0.81389   0.94086   0.95755   1.04329

 Mulliken charges:
               1
     1  O   -0.434885
     2  H    0.222816
     3  H    0.212069
 Sum of Mulliken charges =   0.00000

 Dipole moment (field-independent basis, Debye):
    X=             -0.0118    Y=             -1.9614    Z=              0.0000  Tot=              1.9615
 Quadrupole moment (field-independent basis, Debye-Ang):
   XX=             -4.3741   YY=             -6.3074   ZZ=             -7.5727
   XY=             -0.0606   XZ=              0.0000   YZ=              0.0000

 1\1\GINC-NODE09\SP\RB2PLYPD3-FC\def2QZVP\H2O1\BOITTIER\26-Aug-2020\0\\
 #p B2PLYPD3/Def2QZVP\\h2o\\0,1\O,0,-5.326605,-0.762339,0.927625\H,0,-4
 .368927,-0.725312,0.850337\H,0,-5.609308,0.106783,0.713916\\Version=ES
 64L-G09RevD.01\State=1-A'\HF=-76.3349723\MP2=-76.4246959\RMSD=4.490e-0
 9\PG=CS [SG(H2O1)]\\@

 NOTHING RESEMBLES A NEW PHENOMENON AS MUCH AS A MISTAKE.

 Normal termination of Gaussian 09 at Wed Aug 26 08:32:25 2020.
