 Gaussian 09, Revision D.01,
 Gaussian 09:  ES64L-G09RevD.01 24-Apr-2013

 --------------------
 #p B2PLYPD3/Def2QZVP
 --------------------

 ---
 h2o
 ---
 Symbolic Z-matrix:
 Charge =  0 Multiplicity = 1

                         Standard orientation:
 ---------------------------------------------------------------------
 Center     Atomic      Atomic             Coordinates (Angstroms)
 Number     Number       Type             X           Y           Z
 ---------------------------------------------------------------------
      1          8           0        0.000000    0.121794    0.000000
      2          1           0        0.724185   -0.518588    0.000000
      3          1           0       -0.724185   -0.455765    0.000000
 ---------------------------------------------------------------------

 SCF Done:  E(RB2PLYPD3) =  -76.3335002495     A.U. after   10 cycles
 E2(B2PLYPD3) =    -0.8975076896D-01 E(B2PLYPD3) =    -0.76423251018443D+02

 The electronic state is 1-A'.
 Alpha  occ. eigenvalues --  -19.73110  -1.16664  -0.60923  -0.48526  -0.40187
 Alpha virt. eigenvalues --    0.04546   0.10413   0.27498   0.30366   0.30739
 Alpha virt. eigenvalues --    0.37173   0.44409   0.49629   0.57108   0.60947
 Alpha virt. eigenvalues --    0.65383   0.81571   0.94608   0.95645   1.03770

 Mulliken charges:
               1
     1  O   -0.422592
     2  H    0.220845
     3  H    0.201747
 Sum of Mulliken charges =   0.00000

 Dipole moment (field-independent basis, Debye):
    X=             -0.0226    Y=             -2.0235    Z=              0.0000  Tot=              2.0237
 Quadrupole moment (field-independent basis, Debye-Ang):
   XX=             -4.5649   YY=             -6.1770   ZZ=             -7.5570
   XY=             -0.0951   XZ=              0.0000   YZ=              0.0000

 1\1\GINC-NODE25\SP\RB2PLYPD3-FC\def2QZVP\H2O1\BOITTIER\26-Aug-2020\0\\
 #p B2PLYPD3/Def2QZVP\\h2o\\0,1\O,0,-5.326605,-0.766702,0.924772\H,0,-4
 .368927,-0.637356,0.899176\H,0,-5.609308,0.088637,0.709151\\Version=ES
 64L-G09RevD.01\State=1-A'\HF=-76.3335002\MP2=-76.423251\RMSD=5.406e-09
 \PG=CS [SG(H2O1)]\\@

 CONFIDENCE IS WHAT YOU FEEL BEFORE YOU FULLY

 Normal termination of Gaussian 09 at Wed Aug 26 09:12:54 2020.
