 Gaussian 09, Revision D.01,
 Gaussian 09:  ES64L-G09RevD.01 24-Apr-2013

 --------------------
 #p B2PLYPD3/Def2QZVP
 --------------------

 ---
 h2o
 ---
 Symbolic Z-matrix:
 Charge =  0 Multiplicity = 1

                         Standard orientation:
 ---------------------------------------------------------------------
 Center     Atomic      Atomic             Coordinates (Angstroms)
 Number     Number       Type             X           Y           Z
 ---------------------------------------------------------------------
      1          8           0        0.000000    0.115443    0.000000
      2          1           0        0.745743   -0.490472    0.000000
      3          1           0       -0.745743   -0.433071    0.000000
 ---------------------------------------------------------------------

 SCF Done:  E(RB2PLYPD3) =  -76.3344893677     A.U. after   10 cycles
 E2(B2PLYPD3) =    -0.8949594763D-01 E(B2PLYPD3) =    -0.76423985315338D+02

 The electronic state is 1-A'.
 Alpha  occ. eigenvalues --  -19.72878  -1.16457  -0.61977  -0.47682  -0.40104
 Alpha virt. eigenvalues --    0.04688   0.10354   0.27406   0.30372   0.31215
 Alpha virt. eigenvalues --    0.36619   0.44460   0.50381   0.56449   0.62290
 Alpha virt. eigenvalues --    0.65233   0.81531   0.94178   0.95637   1.04751

 Mulliken charges:
               1
     1  O   -0.429266
     2  H    0.223236
     3  H    0.206030
 Sum of Mulliken charges =   0.00000

 Dipole moment (field-independent basis, Debye):
    X=             -0.0179    Y=             -1.9518    Z=              0.0000  Tot=              1.9519
 Quadrupole moment (field-independent basis, Debye-Ang):
   XX=             -4.3760   YY=             -6.3104   ZZ=             -7.5576
   XY=             -0.0932   XZ=              0.0000   YZ=              0.0000

 1\1\GINC-NODE16\SP\RB2PLYPD3-FC\def2QZVP\H2O1\BOITTIER\26-Aug-2020\0\\
 #p B2PLYPD3/Def2QZVP\\h2o\\0,1\O,0,-5.326605,-0.761879,0.926239\H,0,-4
 .368927,-0.722882,0.858433\H,0,-5.609308,0.096986,0.727668\\Version=ES
 64L-G09RevD.01\State=1-A'\HF=-76.3344894\MP2=-76.4239853\RMSD=4.941e-0
 9\PG=CS [SG(H2O1)]\\@

 The earth never tires,

 Normal termination of Gaussian 09 at Wed Aug 26 09:15:21 2020.
