 Gaussian 09, Revision D.01,
 Gaussian 09:  ES64L-G09RevD.01 24-Apr-2013

 --------------------
 #p B2PLYPD3/Def2QZVP
 --------------------

 ---
 h2o
 ---
 Symbolic Z-matrix:
 Charge =  0 Multiplicity = 1

                         Standard orientation:
 ---------------------------------------------------------------------
 Center     Atomic      Atomic             Coordinates (Angstroms)
 Number     Number       Type             X           Y           Z
 ---------------------------------------------------------------------
      1          8           0        0.000000    0.119404    0.000000
      2          1           0        0.752075   -0.477477    0.000000
      3          1           0       -0.752075   -0.477752    0.000000
 ---------------------------------------------------------------------

 SCF Done:  E(RB2PLYPD3) =  -76.3349652195     A.U. after   10 cycles
 E2(B2PLYPD3) =    -0.9009210562D-01 E(B2PLYPD3) =    -0.76425057325162D+02

 The electronic state is 1-A'.
 Alpha  occ. eigenvalues --  -19.73218  -1.15717  -0.60919  -0.47736  -0.39991
 Alpha virt. eigenvalues --    0.04490   0.10221   0.27551   0.30410   0.30815
 Alpha virt. eigenvalues --    0.36087   0.43938   0.49972   0.56475   0.61720
 Alpha virt. eigenvalues --    0.65704   0.81200   0.93964   0.95937   1.03445

 Mulliken charges:
               1
     1  O   -0.441021
     2  H    0.220473
     3  H    0.220548
 Sum of Mulliken charges =   0.00000

 Dipole moment (field-independent basis, Debye):
    X=              0.0001    Y=             -1.9858    Z=              0.0000  Tot=              1.9858
 Quadrupole moment (field-independent basis, Debye-Ang):
   XX=             -4.4005   YY=             -6.2815   ZZ=             -7.5941
   XY=              0.0004   XZ=              0.0000   YZ=              0.0000

 1\1\GINC-NODE28\SP\RB2PLYPD3-FC\def2QZVP\H2O1\BOITTIER\26-Aug-2020\0\\
 #p B2PLYPD3/Def2QZVP\\h2o\\0,1\O,0,-5.326605,-0.765191,0.924268\H,0,-4
 .368927,-0.703142,0.894497\H,0,-5.609308,0.130241,0.72304\\Version=ES6
 4L-G09RevD.01\State=1-A'\HF=-76.3349652\MP2=-76.4250573\RMSD=4.205e-09
 \PG=CS [SG(H2O1)]\\@

 Everywhere is walking distance if you have the time.

 Normal termination of Gaussian 09 at Wed Aug 26 10:34:00 2020.
