 Gaussian 09, Revision D.01,
 Gaussian 09:  ES64L-G09RevD.01 24-Apr-2013

 --------------------
 #p B2PLYPD3/Def2QZVP
 --------------------

 ---
 h2o
 ---
 Symbolic Z-matrix:
 Charge =  0 Multiplicity = 1

                         Standard orientation:
 ---------------------------------------------------------------------
 Center     Atomic      Atomic             Coordinates (Angstroms)
 Number     Number       Type             X           Y           Z
 ---------------------------------------------------------------------
      1          8           0        0.000000    0.114580    0.000000
      2          1           0        0.763666   -0.464217    0.000000
      3          1           0       -0.763666   -0.452425    0.000000
 ---------------------------------------------------------------------

 SCF Done:  E(RB2PLYPD3) =  -76.3352183770     A.U. after   10 cycles
 E2(B2PLYPD3) =    -0.8981756015D-01 E(B2PLYPD3) =    -0.76425035937127D+02

 The electronic state is 1-A'.
 Alpha  occ. eigenvalues --  -19.73000  -1.15756  -0.61756  -0.47215  -0.39962
 Alpha virt. eigenvalues --    0.04611   0.10218   0.27463   0.30407   0.31221
 Alpha virt. eigenvalues --    0.35815   0.44082   0.50601   0.56070   0.62694
 Alpha virt. eigenvalues --    0.65497   0.81157   0.93801   0.95889   1.04497

 Mulliken charges:
               1
     1  O   -0.443350
     2  H    0.223304
     3  H    0.220047
 Sum of Mulliken charges =   0.00000

 Dipole moment (field-independent basis, Debye):
    X=             -0.0035    Y=             -1.9334    Z=              0.0000  Tot=              1.9334
 Quadrupole moment (field-independent basis, Debye-Ang):
   XX=             -4.2780   YY=             -6.3703   ZZ=             -7.5873
   XY=             -0.0198   XZ=              0.0000   YZ=              0.0000

 1\1\GINC-NODE17\SP\RB2PLYPD3-FC\def2QZVP\H2O1\BOITTIER\26-Aug-2020\0\\
 #p B2PLYPD3/Def2QZVP\\h2o\\0,1\O,0,-5.326605,-0.763153,0.916793\H,0,-4
 .368927,-0.742326,0.941531\H,0,-5.609308,0.136821,0.795109\\Version=ES
 64L-G09RevD.01\State=1-A'\HF=-76.3352184\MP2=-76.4250359\RMSD=3.993e-0
 9\PG=CS [SG(H2O1)]\\@

 LOVE IS BLIND, THAT'S WHY ALL THE WORLD LOVES A LOUVER.

 Normal termination of Gaussian 09 at Wed Aug 26 10:07:27 2020.
