 Gaussian 09, Revision D.01,
 Gaussian 09:  ES64L-G09RevD.01 24-Apr-2013

 --------------------
 #p B2PLYPD3/Def2QZVP
 --------------------

 ---
 h2o
 ---
 Symbolic Z-matrix:
 Charge =  0 Multiplicity = 1

                         Standard orientation:
 ---------------------------------------------------------------------
 Center     Atomic      Atomic             Coordinates (Angstroms)
 Number     Number       Type             X           Y           Z
 ---------------------------------------------------------------------
      1          8           0        0.000000    0.120468    0.000000
      2          1           0        0.808836   -0.397694    0.000000
      3          1           0       -0.808836   -0.566051    0.000000
 ---------------------------------------------------------------------

 SCF Done:  E(RB2PLYPD3) =  -76.3250137588     A.U. after   10 cycles
 E2(B2PLYPD3) =    -0.9166896821D-01 E(B2PLYPD3) =    -0.76416682726976D+02

 The electronic state is 1-A'.
 Alpha  occ. eigenvalues --  -19.73767  -1.13416  -0.59411  -0.46296  -0.39503
 Alpha virt. eigenvalues --    0.03797   0.09669   0.27686   0.29337   0.30535
 Alpha virt. eigenvalues --    0.33942   0.42835   0.50259   0.55152   0.62505
 Alpha virt. eigenvalues --    0.66704   0.79420   0.91024   0.96866   1.00591

 Mulliken charges:
               1
     1  O   -0.478985
     2  H    0.222625
     3  H    0.256360
 Sum of Mulliken charges =   0.00000

 Dipole moment (field-independent basis, Debye):
    X=              0.0484    Y=             -1.9581    Z=              0.0000  Tot=              1.9587
 Quadrupole moment (field-independent basis, Debye-Ang):
   XX=             -4.1318   YY=             -6.3933   ZZ=             -7.7123
   XY=              0.2931   XZ=              0.0000   YZ=              0.0000

 1\1\GINC-NODE33\SP\RB2PLYPD3-FC\def2QZVP\H2O1\BOITTIER\26-Aug-2020\0\\
 #p B2PLYPD3/Def2QZVP\\h2o\\0,1\O,0,-5.326605,-0.767353,0.914457\H,0,-4
 .368927,-0.785742,0.986727\H,0,-5.609308,0.247433,0.788708\\Version=ES
 64L-G09RevD.01\State=1-A'\HF=-76.3250138\MP2=-76.4166827\RMSD=6.964e-0
 9\PG=CS [SG(H2O1)]\\@

 A HARD FALL SHOULD MEAN A HIGH BOUNCE

 Normal termination of Gaussian 09 at Wed Aug 26 08:38:06 2020.
