 Gaussian 09, Revision D.01,
 Gaussian 09:  ES64L-G09RevD.01 24-Apr-2013

 --------------------
 #p B2PLYPD3/Def2QZVP
 --------------------

 ---
 h2o
 ---
 Symbolic Z-matrix:
 Charge =  0 Multiplicity = 1

                         Standard orientation:
 ---------------------------------------------------------------------
 Center     Atomic      Atomic             Coordinates (Angstroms)
 Number     Number       Type             X           Y           Z
 ---------------------------------------------------------------------
      1          8           0        0.000000    0.125309    0.000000
      2          1           0        0.752023   -0.481303    0.000000
      3          1           0       -0.752023   -0.521170    0.000000
 ---------------------------------------------------------------------

 SCF Done:  E(RB2PLYPD3) =  -76.3329823846     A.U. after   10 cycles
 E2(B2PLYPD3) =    -0.9081469925D-01 E(B2PLYPD3) =    -0.76423797083868D+02

 The electronic state is 1-A'.
 Alpha  occ. eigenvalues --  -19.73621  -1.15054  -0.59590  -0.47996  -0.39906
 Alpha virt. eigenvalues --    0.04216   0.10080   0.27723   0.30127   0.30443
 Alpha virt. eigenvalues --    0.35660   0.43461   0.49368   0.56642   0.60804
 Alpha virt. eigenvalues --    0.66208   0.80867   0.93670   0.96297   1.01637

 Mulliken charges:
               1
     1  O   -0.448294
     2  H    0.219208
     3  H    0.229086
 Sum of Mulliken charges =   0.00000

 Dipole moment (field-independent basis, Debye):
    X=              0.0142    Y=             -2.0396    Z=              0.0000  Tot=              2.0397
 Quadrupole moment (field-independent basis, Debye-Ang):
   XX=             -4.4838   YY=             -6.2067   ZZ=             -7.6313
   XY=              0.0620   XZ=              0.0000   YZ=              0.0000

 1\1\GINC-NODE08\SP\RB2PLYPD3-FC\def2QZVP\H2O1\BOITTIER\26-Aug-2020\0\\
 #p B2PLYPD3/Def2QZVP\\h2o\\0,1\O,0,-5.326605,-0.766395,0.933438\H,0,-4
 .368927,-0.692306,0.82913\H,0,-5.609308,0.138664,0.642885\\Version=ES6
 4L-G09RevD.01\State=1-A'\HF=-76.3329824\MP2=-76.4237971\RMSD=4.527e-09
 \PG=CS [SG(H2O1)]\\@

 SCIENCE AT ITS BEST PROVIDES US WITH BETTER QUESTIONS,

 Normal termination of Gaussian 09 at Wed Aug 26 08:51:55 2020.
