 Gaussian 09, Revision D.01,
 Gaussian 09:  ES64L-G09RevD.01 24-Apr-2013

 --------------------
 #p B2PLYPD3/Def2QZVP
 --------------------

 ---
 h2o
 ---
 Symbolic Z-matrix:
 Charge =  0 Multiplicity = 1

                         Standard orientation:
 ---------------------------------------------------------------------
 Center     Atomic      Atomic             Coordinates (Angstroms)
 Number     Number       Type             X           Y           Z
 ---------------------------------------------------------------------
      1          8           0        0.000000    0.121183    0.000000
      2          1           0        0.809185   -0.395056    0.000000
      3          1           0       -0.809185   -0.574405    0.000000
 ---------------------------------------------------------------------

 SCF Done:  E(RB2PLYPD3) =  -76.3240671787     A.U. after   10 cycles
 E2(B2PLYPD3) =    -0.9176972842D-01 E(B2PLYPD3) =    -0.76415836907133D+02

 The electronic state is 1-A'.
 Alpha  occ. eigenvalues --  -19.73811  -1.13348  -0.59261  -0.46302  -0.39492
 Alpha virt. eigenvalues --    0.03737   0.09647   0.27692   0.29161   0.30538
 Alpha virt. eigenvalues --    0.33947   0.42803   0.50177   0.55140   0.62416
 Alpha virt. eigenvalues --    0.66748   0.79363   0.90823   0.96890   1.00453

 Mulliken charges:
               1
     1  O   -0.479230
     2  H    0.221883
     3  H    0.257348
 Sum of Mulliken charges =   0.00000

 Dipole moment (field-independent basis, Debye):
    X=              0.0521    Y=             -1.9640    Z=              0.0000  Tot=              1.9647
 Quadrupole moment (field-independent basis, Debye-Ang):
   XX=             -4.1399   YY=             -6.3824   ZZ=             -7.7174
   XY=              0.3113   XZ=              0.0000   YZ=              0.0000

 1\1\GINC-NODE17\SP\RB2PLYPD3-FC\def2QZVP\H2O1\BOITTIER\26-Aug-2020\0\\
 #p B2PLYPD3/Def2QZVP\\h2o\\0,1\O,0,-5.326605,-0.767742,0.91584\H,0,-4.
 368927,-0.783634,0.978158\H,0,-5.609308,0.251555,0.775355\\Version=ES6
 4L-G09RevD.01\State=1-A'\HF=-76.3240672\MP2=-76.4158369\RMSD=7.195e-09
 \PG=CS [SG(H2O1)]\\@

 EXPERIMENTALISTS THINK SILICON IS REALLY FUN TO USE

 Normal termination of Gaussian 09 at Wed Aug 26 09:28:08 2020.
