 Gaussian 09, Revision D.01,
 Gaussian 09:  ES64L-G09RevD.01 24-Apr-2013

 --------------------
 #p B2PLYPD3/Def2QZVP
 --------------------

 ---
 h2o
 ---
 Symbolic Z-matrix:
 Charge =  0 Multiplicity = 1

                         Standard orientation:
 ---------------------------------------------------------------------
 Center     Atomic      Atomic             Coordinates (Angstroms)
 Number     Number       Type             X           Y           Z
 ---------------------------------------------------------------------
      1          8           0        0.000000    0.118311    0.000000
      2          1           0        0.776691   -0.442829    0.000000
      3          1           0       -0.776691   -0.503663    0.000000
 ---------------------------------------------------------------------

 SCF Done:  E(RB2PLYPD3) =  -76.3333440984     A.U. after   10 cycles
 E2(B2PLYPD3) =    -0.9056113693D-01 E(B2PLYPD3) =    -0.76423905235324D+02

 The electronic state is 1-A'.
 Alpha  occ. eigenvalues --  -19.73371  -1.14821  -0.60616  -0.47066  -0.39798
 Alpha virt. eigenvalues --    0.04329   0.10024   0.27605   0.30458   0.30609
 Alpha virt. eigenvalues --    0.35046   0.43515   0.50249   0.55900   0.62284
 Alpha virt. eigenvalues --    0.66041   0.80621   0.93089   0.96316   1.02581

 Mulliken charges:
               1
     1  O   -0.457512
     2  H    0.221324
     3  H    0.236188
 Sum of Mulliken charges =   0.00000

 Dipole moment (field-independent basis, Debye):
    X=              0.0184    Y=             -1.9606    Z=              0.0000  Tot=              1.9607
 Quadrupole moment (field-independent basis, Debye-Ang):
   XX=             -4.2649   YY=             -6.3562   ZZ=             -7.6353
   XY=              0.1021   XZ=              0.0000   YZ=              0.0000

 1\1\GINC-NODE05\SP\RB2PLYPD3-FC\def2QZVP\H2O1\BOITTIER\26-Aug-2020\0\\
 #p B2PLYPD3/Def2QZVP\\h2o\\0,1\O,0,-5.326605,-0.7655,0.918628\H,0,-4.3
 68927,-0.744258,0.941625\H,0,-5.609308,0.176305,0.766369\\Version=ES64
 L-G09RevD.01\State=1-A'\HF=-76.3333441\MP2=-76.4239052\RMSD=4.534e-09\
 PG=CS [SG(H2O1)]\\@

 IMAGINATION WILL OFTEN CARRY US TO WORLDS THAT NEVER WERE.

 Normal termination of Gaussian 09 at Wed Aug 26 10:54:48 2020.
