 Gaussian 09, Revision D.01,
 Gaussian 09:  ES64L-G09RevD.01 24-Apr-2013

 --------------------
 #p B2PLYPD3/Def2QZVP
 --------------------

 ---
 h2o
 ---
 Symbolic Z-matrix:
 Charge =  0 Multiplicity = 1

                         Standard orientation:
 ---------------------------------------------------------------------
 Center     Atomic      Atomic             Coordinates (Angstroms)
 Number     Number       Type             X           Y           Z
 ---------------------------------------------------------------------
      1          8           0        0.000000    0.117108    0.000000
      2          1           0        0.764295   -0.462170    0.000000
      3          1           0       -0.764295   -0.474694    0.000000
 ---------------------------------------------------------------------

 SCF Done:  E(RB2PLYPD3) =  -76.3349458679     A.U. after   10 cycles
 E2(B2PLYPD3) =    -0.9011587756D-01 E(B2PLYPD3) =    -0.76425061745436D+02

 The electronic state is 1-A'.
 Alpha  occ. eigenvalues --  -19.73178  -1.15454  -0.61169  -0.47325  -0.39920
 Alpha virt. eigenvalues --    0.04499   0.10162   0.27533   0.30424   0.30947
 Alpha virt. eigenvalues --    0.35655   0.43857   0.50303   0.56143   0.62280
 Alpha virt. eigenvalues --    0.65725   0.81025   0.93668   0.96026   1.03644

 Mulliken charges:
               1
     1  O   -0.447259
     2  H    0.221969
     3  H    0.225291
 Sum of Mulliken charges =   0.00000

 Dipole moment (field-independent basis, Debye):
    X=              0.0038    Y=             -1.9571    Z=              0.0000  Tot=              1.9571
 Quadrupole moment (field-independent basis, Debye-Ang):
   XX=             -4.3095   YY=             -6.3413   ZZ=             -7.6037
   XY=              0.0208   XZ=              0.0000   YZ=              0.0000

 1\1\GINC-NODE29\SP\RB2PLYPD3-FC\def2QZVP\H2O1\BOITTIER\26-Aug-2020\0\\
 #p B2PLYPD3/Def2QZVP\\h2o\\0,1\O,0,-5.326605,-0.764879,0.9169\H,0,-4.3
 68927,-0.72772,0.951273\H,0,-5.609308,0.149833,0.783644\\Version=ES64L
 -G09RevD.01\State=1-A'\HF=-76.3349459\MP2=-76.4250617\RMSD=4.014e-09\P
 G=CS [SG(H2O1)]\\@

 SCIENCE AND PEACE WILL TRIUMPH OVER IGNORANCE AND WAR

 Normal termination of Gaussian 09 at Wed Aug 26 10:14:52 2020.
