 Gaussian 09, Revision D.01,
 Gaussian 09:  ES64L-G09RevD.01 24-Apr-2013

 --------------------
 #p B2PLYPD3/Def2QZVP
 --------------------

 ---
 h2o
 ---
 Symbolic Z-matrix:
 Charge =  0 Multiplicity = 1

                         Standard orientation:
 ---------------------------------------------------------------------
 Center     Atomic      Atomic             Coordinates (Angstroms)
 Number     Number       Type             X           Y           Z
 ---------------------------------------------------------------------
      1          8           0        0.000000    0.117756    0.000000
      2          1           0        0.744359   -0.488958    0.000000
      3          1           0       -0.744359   -0.453094    0.000000
 ---------------------------------------------------------------------

 SCF Done:  E(RB2PLYPD3) =  -76.3348910346     A.U. after   10 cycles
 E2(B2PLYPD3) =    -0.8972285180D-01 E(B2PLYPD3) =    -0.76424613886372D+02

 The electronic state is 1-A'.
 Alpha  occ. eigenvalues --  -19.73028  -1.16245  -0.61466  -0.47841  -0.40081
 Alpha virt. eigenvalues --    0.04608   0.10323   0.27469   0.30384   0.31029
 Alpha virt. eigenvalues --    0.36552   0.44270   0.50112   0.56573   0.61877
 Alpha virt. eigenvalues --    0.65415   0.81448   0.94212   0.95719   1.04232

 Mulliken charges:
               1
     1  O   -0.432305
     2  H    0.221379
     3  H    0.210926
 Sum of Mulliken charges =   0.00000

 Dipole moment (field-independent basis, Debye):
    X=             -0.0117    Y=             -1.9747    Z=              0.0000  Tot=              1.9748
 Quadrupole moment (field-independent basis, Debye-Ang):
   XX=             -4.4144   YY=             -6.2805   ZZ=             -7.5691
   XY=             -0.0574   XZ=              0.0000   YZ=              0.0000

 1\1\GINC-NODE17\SP\RB2PLYPD3-FC\def2QZVP\H2O1\BOITTIER\26-Aug-2020\0\\
 #p B2PLYPD3/Def2QZVP\\h2o\\0,1\O,0,-5.326605,-0.76437,0.922843\H,0,-4.
 368927,-0.697053,0.900612\H,0,-5.609308,0.111021,0.739238\\Version=ES6
 4L-G09RevD.01\State=1-A'\HF=-76.334891\MP2=-76.4246139\RMSD=4.572e-09\
 PG=CS [SG(H2O1)]\\@

 "ANNA, YOU MUSN'T SPEAK OF OXIDIZED MURIATIC ACID

 Normal termination of Gaussian 09 at Wed Aug 26 08:30:57 2020.
