 Gaussian 09, Revision D.01,
 Gaussian 09:  ES64L-G09RevD.01 24-Apr-2013

 --------------------
 #p B2PLYPD3/Def2QZVP
 --------------------

 ---
 h2o
 ---
 Symbolic Z-matrix:
 Charge =  0 Multiplicity = 1

                         Standard orientation:
 ---------------------------------------------------------------------
 Center     Atomic      Atomic             Coordinates (Angstroms)
 Number     Number       Type             X           Y           Z
 ---------------------------------------------------------------------
      1          8           0        0.000000    0.119031    0.000000
      2          1           0        0.746210   -0.485921    0.000000
      3          1           0       -0.746210   -0.466330    0.000000
 ---------------------------------------------------------------------

 SCF Done:  E(RB2PLYPD3) =  -76.3349976962     A.U. after   10 cycles
 E2(B2PLYPD3) =    -0.8991249934D-01 E(B2PLYPD3) =    -0.76424910195558D+02

 The electronic state is 1-A'.
 Alpha  occ. eigenvalues --  -19.73136  -1.16014  -0.61130  -0.47862  -0.40046
 Alpha virt. eigenvalues --    0.04545   0.10281   0.27515   0.30396   0.30899
 Alpha virt. eigenvalues --    0.36384   0.44106   0.49983   0.56584   0.61693
 Alpha virt. eigenvalues --    0.65563   0.81344   0.94148   0.95817   1.03799

 Mulliken charges:
               1
     1  O   -0.435913
     2  H    0.220728
     3  H    0.215185
 Sum of Mulliken charges =   0.00000

 Dipole moment (field-independent basis, Debye):
    X=             -0.0065    Y=             -1.9857    Z=              0.0000  Tot=              1.9857
 Quadrupole moment (field-independent basis, Debye-Ang):
   XX=             -4.4233   YY=             -6.2705   ZZ=             -7.5806
   XY=             -0.0312   XZ=              0.0000   YZ=              0.0000

 1\1\GINC-NODE14\SP\RB2PLYPD3-FC\def2QZVP\H2O1\BOITTIER\26-Aug-2020\0\\
 #p B2PLYPD3/Def2QZVP\\h2o\\0,1\O,0,-5.326605,-0.765236,0.922924\H,0,-4
 .368927,-0.692164,0.905311\H,0,-5.609308,0.119977,0.733306\\Version=ES
 64L-G09RevD.01\State=1-A'\HF=-76.3349977\MP2=-76.4249102\RMSD=4.367e-0
 9\PG=CS [SG(H2O1)]\\@

 NEVER TEACH A PIG TO SING.

 Normal termination of Gaussian 09 at Wed Aug 26 09:58:58 2020.
