 Gaussian 09, Revision D.01,
 Gaussian 09:  ES64L-G09RevD.01 24-Apr-2013

 --------------------
 #p B2PLYPD3/Def2QZVP
 --------------------

 ---
 h2o
 ---
 Symbolic Z-matrix:
 Charge =  0 Multiplicity = 1

                         Standard orientation:
 ---------------------------------------------------------------------
 Center     Atomic      Atomic             Coordinates (Angstroms)
 Number     Number       Type             X           Y           Z
 ---------------------------------------------------------------------
      1          8           0        0.000000    0.119087    0.000000
      2          1           0        0.793585   -0.421032    0.000000
      3          1           0       -0.793585   -0.531662    0.000000
 ---------------------------------------------------------------------

 SCF Done:  E(RB2PLYPD3) =  -76.3300488085     A.U. after   10 cycles
 E2(B2PLYPD3) =    -0.9108680969D-01 E(B2PLYPD3) =    -0.76421135618171D+02

 The electronic state is 1-A'.
 Alpha  occ. eigenvalues --  -19.73564  -1.14091  -0.60055  -0.46662  -0.39646
 Alpha virt. eigenvalues --    0.04101   0.09848   0.27661   0.30106   0.30498
 Alpha virt. eigenvalues --    0.34377   0.43154   0.50289   0.55520   0.62441
 Alpha virt. eigenvalues --    0.66380   0.80047   0.92186   0.96629   1.01503

 Mulliken charges:
               1
     1  O   -0.469309
     2  H    0.222404
     3  H    0.246905
 Sum of Mulliken charges =   0.00000

 Dipole moment (field-independent basis, Debye):
    X=              0.0324    Y=             -1.9567    Z=              0.0000  Tot=              1.9569
 Quadrupole moment (field-independent basis, Debye-Ang):
   XX=             -4.1907   YY=             -6.3837   ZZ=             -7.6735
   XY=              0.1897   XZ=              0.0000   YZ=              0.0000

 1\1\GINC-NODE13\SP\RB2PLYPD3-FC\def2QZVP\H2O1\BOITTIER\26-Aug-2020\0\\
 #p B2PLYPD3/Def2QZVP\\h2o\\0,1\O,0,-5.326605,-0.766419,0.914481\H,0,-4
 .368927,-0.76601,0.980495\H,0,-5.609308,0.212765,0.793946\\Version=ES6
 4L-G09RevD.01\State=1-A'\HF=-76.3300488\MP2=-76.4211356\RMSD=5.552e-09
 \PG=CS [SG(H2O1)]\\@

 Where a calculator on the ENIAC is equipped with 18,000

 Normal termination of Gaussian 09 at Wed Aug 26 09:21:17 2020.
