 Gaussian 09, Revision D.01,
 Gaussian 09:  ES64L-G09RevD.01 24-Apr-2013

 --------------------
 #p B2PLYPD3/Def2QZVP
 --------------------

 ---
 h2o
 ---
 Symbolic Z-matrix:
 Charge =  0 Multiplicity = 1

                         Standard orientation:
 ---------------------------------------------------------------------
 Center     Atomic      Atomic             Coordinates (Angstroms)
 Number     Number       Type             X           Y           Z
 ---------------------------------------------------------------------
      1          8           0        0.000000    0.120434    0.000000
      2          1           0        0.735310   -0.501750    0.000000
      3          1           0       -0.735310   -0.461726    0.000000
 ---------------------------------------------------------------------

 SCF Done:  E(RB2PLYPD3) =  -76.3344896961     A.U. after   10 cycles
 E2(B2PLYPD3) =    -0.8983141880D-01 E(B2PLYPD3) =    -0.76424321114940D+02

 The electronic state is 1-A'.
 Alpha  occ. eigenvalues --  -19.73126  -1.16328  -0.61028  -0.48195  -0.40116
 Alpha virt. eigenvalues --    0.04550   0.10346   0.27509   0.30381   0.30825
 Alpha virt. eigenvalues --    0.36787   0.44245   0.49792   0.56850   0.61311
 Alpha virt. eigenvalues --    0.65481   0.81473   0.94397   0.95725   1.03781

 Mulliken charges:
               1
     1  O   -0.429429
     2  H    0.220578
     3  H    0.208851
 Sum of Mulliken charges =   0.00000

 Dipole moment (field-independent basis, Debye):
    X=             -0.0138    Y=             -2.0049    Z=              0.0000  Tot=              2.0050
 Quadrupole moment (field-independent basis, Debye-Ang):
   XX=             -4.4943   YY=             -6.2241   ZZ=             -7.5689
   XY=             -0.0622   XZ=              0.0000   YZ=              0.0000

 1\1\GINC-NODE36\SP\RB2PLYPD3-FC\def2QZVP\H2O1\BOITTIER\26-Aug-2020\0\\
 #p B2PLYPD3/Def2QZVP\\h2o\\0,1\O,0,-5.326605,-0.765923,0.924143\H,0,-4
 .368927,-0.665693,0.899629\H,0,-5.609308,0.104513,0.719173\\Version=ES
 64L-G09RevD.01\State=1-A'\HF=-76.3344897\MP2=-76.4243211\RMSD=4.823e-0
 9\PG=CS [SG(H2O1)]\\@

 IF IT HAPPENS, IT MUST BE POSSIBLE.

 Normal termination of Gaussian 09 at Wed Aug 26 11:32:31 2020.
