 Gaussian 09, Revision D.01,
 Gaussian 09:  ES64L-G09RevD.01 24-Apr-2013

 --------------------
 #p B2PLYPD3/Def2QZVP
 --------------------

 ---
 h2o
 ---
 Symbolic Z-matrix:
 Charge =  0 Multiplicity = 1

                         Standard orientation:
 ---------------------------------------------------------------------
 Center     Atomic      Atomic             Coordinates (Angstroms)
 Number     Number       Type             X           Y           Z
 ---------------------------------------------------------------------
      1          8           0        0.000000    0.111582    0.000000
      2          1           0        0.798653   -0.421589    0.000000
      3          1           0       -0.798653   -0.471066    0.000000
 ---------------------------------------------------------------------

 SCF Done:  E(RB2PLYPD3) =  -76.3331070630     A.U. after   10 cycles
 E2(B2PLYPD3) =    -0.9036796143D-01 E(B2PLYPD3) =    -0.76423475024459D+02

 The electronic state is 1-A'.
 Alpha  occ. eigenvalues --  -19.73132  -1.14593  -0.61518  -0.46219  -0.39694
 Alpha virt. eigenvalues --    0.04428   0.09967   0.27503   0.30471   0.31179
 Alpha virt. eigenvalues --    0.34333   0.43527   0.51308   0.55244   0.63735
 Alpha virt. eigenvalues --    0.65921   0.80182   0.92871   0.96456   1.03678

 Mulliken charges:
               1
     1  O   -0.467745
     2  H    0.227928
     3  H    0.239817
 Sum of Mulliken charges =   0.00000

 Dipole moment (field-independent basis, Debye):
    X=              0.0125    Y=             -1.8830    Z=              0.0000  Tot=              1.8831
 Quadrupole moment (field-independent basis, Debye-Ang):
   XX=             -4.0623   YY=             -6.4964   ZZ=             -7.6404
   XY=              0.0887   XZ=              0.0000   YZ=              0.0000

 1\1\GINC-NODE27\SP\RB2PLYPD3-FC\def2QZVP\H2O1\BOITTIER\26-Aug-2020\0\\
 #p B2PLYPD3/Def2QZVP\\h2o\\0,1\O,0,-5.326605,-0.761313,0.913599\H,0,-4
 .368927,-0.817463,0.956241\H,0,-5.609308,0.182517,0.832426\\Version=ES
 64L-G09RevD.01\State=1-A'\HF=-76.3331071\MP2=-76.423475\RMSD=4.233e-09
 \PG=CS [SG(H2O1)]\\@

 GARLIC THEN HAVE POWER TO SAVE FROM DEATH

 Normal termination of Gaussian 09 at Wed Aug 26 09:17:16 2020.
