 Gaussian 09, Revision D.01,
 Gaussian 09:  ES64L-G09RevD.01 24-Apr-2013

 --------------------
 #p B2PLYPD3/Def2QZVP
 --------------------

 ---
 h2o
 ---
 Symbolic Z-matrix:
 Charge =  0 Multiplicity = 1

                         Standard orientation:
 ---------------------------------------------------------------------
 Center     Atomic      Atomic             Coordinates (Angstroms)
 Number     Number       Type             X           Y           Z
 ---------------------------------------------------------------------
      1          8           0        0.000000    0.115783    0.000000
      2          1           0        0.744810   -0.489091    0.000000
      3          1           0       -0.744810   -0.437177    0.000000
 ---------------------------------------------------------------------

 SCF Done:  E(RB2PLYPD3) =  -76.3345984365     A.U. after   10 cycles
 E2(B2PLYPD3) =    -0.8951109923D-01 E(B2PLYPD3) =    -0.76424109535761D+02

 The electronic state is 1-A'.
 Alpha  occ. eigenvalues --  -19.72893  -1.16458  -0.61918  -0.47725  -0.40107
 Alpha virt. eigenvalues --    0.04683   0.10356   0.27413   0.30372   0.31199
 Alpha virt. eigenvalues --    0.36645   0.44447   0.50336   0.56484   0.62216
 Alpha virt. eigenvalues --    0.65247   0.81536   0.94213   0.95631   1.04734

 Mulliken charges:
               1
     1  O   -0.429165
     2  H    0.222361
     3  H    0.206804
 Sum of Mulliken charges =   0.00000

 Dipole moment (field-independent basis, Debye):
    X=             -0.0163    Y=             -1.9556    Z=              0.0000  Tot=              1.9557
 Quadrupole moment (field-independent basis, Debye-Ang):
   XX=             -4.3851   YY=             -6.3043   ZZ=             -7.5578
   XY=             -0.0840   XZ=              0.0000   YZ=              0.0000

 1\1\GINC-NODE12\SP\RB2PLYPD3-FC\def2QZVP\H2O1\BOITTIER\26-Aug-2020\0\\
 #p B2PLYPD3/Def2QZVP\\h2o\\0,1\O,0,-5.326605,-0.763113,0.9223\H,0,-4.3
 68927,-0.709835,0.897232\H,0,-5.609308,0.103689,0.751303\\Version=ES64
 L-G09RevD.01\State=1-A'\HF=-76.3345984\MP2=-76.4241095\RMSD=4.847e-09\
 PG=CS [SG(H2O1)]\\@

 WHEN YOU'VE SEEN ONE NUCLEAR WAR YOU'VE SEEN THEM ALL.

 Normal termination of Gaussian 09 at Wed Aug 26 10:00:54 2020.
