 Gaussian 09, Revision D.01,
 Gaussian 09:  ES64L-G09RevD.01 24-Apr-2013

 --------------------
 #p B2PLYPD3/Def2QZVP
 --------------------

 ---
 h2o
 ---
 Symbolic Z-matrix:
 Charge =  0 Multiplicity = 1

                         Standard orientation:
 ---------------------------------------------------------------------
 Center     Atomic      Atomic             Coordinates (Angstroms)
 Number     Number       Type             X           Y           Z
 ---------------------------------------------------------------------
      1          8           0        0.000000    0.119231    0.000000
      2          1           0        0.764904   -0.458680    0.000000
      3          1           0       -0.764904   -0.495170    0.000000
 ---------------------------------------------------------------------

 SCF Done:  E(RB2PLYPD3) =  -76.3342862624     A.U. after   10 cycles
 E2(B2PLYPD3) =    -0.9037802571D-01 E(B2PLYPD3) =    -0.76424664288148D+02

 The electronic state is 1-A'.
 Alpha  occ. eigenvalues --  -19.73326  -1.15201  -0.60679  -0.47407  -0.39885
 Alpha virt. eigenvalues --    0.04396   0.10110   0.27593   0.30437   0.30682
 Alpha virt. eigenvalues --    0.35511   0.43680   0.50063   0.56190   0.61948
 Alpha virt. eigenvalues --    0.65915   0.80901   0.93508   0.96154   1.02892

 Mulliken charges:
               1
     1  O   -0.450194
     2  H    0.220427
     3  H    0.229767
 Sum of Mulliken charges =   0.00000

 Dipole moment (field-independent basis, Debye):
    X=              0.0115    Y=             -1.9765    Z=              0.0000  Tot=              1.9766
 Quadrupole moment (field-independent basis, Debye-Ang):
   XX=             -4.3359   YY=             -6.3160   ZZ=             -7.6178
   XY=              0.0599   XZ=              0.0000   YZ=              0.0000

 1\1\GINC-NODE03\SP\RB2PLYPD3-FC\def2QZVP\H2O1\BOITTIER\26-Aug-2020\0\\
 #p B2PLYPD3/Def2QZVP\\h2o\\0,1\O,0,-5.326605,-0.765426,0.922717\H,0,-4
 .368927,-0.724085,0.9085\H,0,-5.609308,0.154948,0.734152\\Version=ES64
 L-G09RevD.01\State=1-A'\HF=-76.3342863\MP2=-76.4246643\RMSD=4.258e-09\
 PG=CS [SG(H2O1)]\\@

 THERE'S NOTHING WRONG WITH FOLLOWING A TRAIN OF THOUGHT...

 Normal termination of Gaussian 09 at Wed Aug 26 11:01:46 2020.
