 Gaussian 09, Revision D.01,
 Gaussian 09:  ES64L-G09RevD.01 24-Apr-2013

 --------------------
 #p B2PLYPD3/Def2QZVP
 --------------------

 ---
 h2o
 ---
 Symbolic Z-matrix:
 Charge =  0 Multiplicity = 1

                         Standard orientation:
 ---------------------------------------------------------------------
 Center     Atomic      Atomic             Coordinates (Angstroms)
 Number     Number       Type             X           Y           Z
 ---------------------------------------------------------------------
      1          8           0        0.000000    0.118611    0.000000
      2          1           0        0.768581   -0.455576    0.000000
      3          1           0       -0.768581   -0.493311    0.000000
 ---------------------------------------------------------------------

 SCF Done:  E(RB2PLYPD3) =  -76.3342124707     A.U. after   10 cycles
 E2(B2PLYPD3) =    -0.9039420776D-01 E(B2PLYPD3) =    -0.76424606678467D+02

 The electronic state is 1-A'.
 Alpha  occ. eigenvalues --  -19.73318  -1.15116  -0.60735  -0.47287  -0.39863
 Alpha virt. eigenvalues --    0.04394   0.10091   0.27588   0.30442   0.30713
 Alpha virt. eigenvalues --    0.35379   0.43650   0.50157   0.56093   0.62103
 Alpha virt. eigenvalues --    0.65928   0.80837   0.93416   0.96183   1.02925

 Mulliken charges:
               1
     1  O   -0.452169
     2  H    0.221300
     3  H    0.230869
 Sum of Mulliken charges =   0.00000

 Dipole moment (field-independent basis, Debye):
    X=              0.0117    Y=             -1.9685    Z=              0.0000  Tot=              1.9686
 Quadrupole moment (field-independent basis, Debye-Ang):
   XX=             -4.3092   YY=             -6.3331   ZZ=             -7.6212
   XY=              0.0625   XZ=              0.0000   YZ=              0.0000

 1\1\GINC-NODE32\SP\RB2PLYPD3-FC\def2QZVP\H2O1\BOITTIER\26-Aug-2020\0\\
 #p B2PLYPD3/Def2QZVP\\h2o\\0,1\O,0,-5.326605,-0.765906,0.916884\H,0,-4
 .368927,-0.726059,0.95778\H,0,-5.609308,0.164593,0.777543\\Version=ES6
 4L-G09RevD.01\State=1-A'\HF=-76.3342125\MP2=-76.4246067\RMSD=4.226e-09
 \PG=CS [SG(H2O1)]\\@

 THOSE WHO TRY TO PASS CHEMISTRY OFF AS A NEW SCIENCE

 Normal termination of Gaussian 09 at Wed Aug 26 11:37:37 2020.
