 Gaussian 09, Revision D.01,
 Gaussian 09:  ES64L-G09RevD.01 24-Apr-2013

 --------------------
 #p B2PLYPD3/Def2QZVP
 --------------------

 ---
 h2o
 ---
 Symbolic Z-matrix:
 Charge =  0 Multiplicity = 1

                         Standard orientation:
 ---------------------------------------------------------------------
 Center     Atomic      Atomic             Coordinates (Angstroms)
 Number     Number       Type             X           Y           Z
 ---------------------------------------------------------------------
      1          8           0        0.000000    0.127732    0.000000
      2          1           0        0.748712   -0.484052    0.000000
      3          1           0       -0.748712   -0.537804    0.000000
 ---------------------------------------------------------------------

 SCF Done:  E(RB2PLYPD3) =  -76.3318729252     A.U. after   10 cycles
 E2(B2PLYPD3) =    -0.9105106237D-01 E(B2PLYPD3) =    -0.76422923987597D+02

 The electronic state is 1-A'.
 Alpha  occ. eigenvalues --  -19.73755  -1.14916  -0.59116  -0.48173  -0.39898
 Alpha virt. eigenvalues --    0.04118   0.10046   0.27784   0.29856   0.30448
 Alpha virt. eigenvalues --    0.35603   0.43345   0.49135   0.56766   0.60402
 Alpha virt. eigenvalues --    0.66346   0.80789   0.93627   0.96407   1.01099

 Mulliken charges:
               1
     1  O   -0.448696
     2  H    0.217852
     3  H    0.230844
 Sum of Mulliken charges =   0.00000

 Dipole moment (field-independent basis, Debye):
    X=              0.0200    Y=             -2.0630    Z=              0.0000  Tot=              2.0631
 Quadrupole moment (field-independent basis, Debye-Ang):
   XX=             -4.5343   YY=             -6.1666   ZZ=             -7.6409
   XY=              0.0820   XZ=              0.0000   YZ=              0.0000

 1\1\GINC-NODE40\SP\RB2PLYPD3-FC\def2QZVP\H2O1\BOITTIER\26-Aug-2020\0\\
 #p B2PLYPD3/Def2QZVP\\h2o\\0,1\O,0,-5.326605,-0.7683,0.932924\H,0,-4.3
 68927,-0.668601,0.844818\H,0,-5.609308,0.145443,0.635165\\Version=ES64
 L-G09RevD.01\State=1-A'\HF=-76.3318729\MP2=-76.422924\RMSD=4.748e-09\P
 G=CS [SG(H2O1)]\\@

 MOST BUREAUCRACIES FUNCTION LIKE A SEPTIC TANK.

 Normal termination of Gaussian 09 at Wed Aug 26 09:02:10 2020.
