 Gaussian 09, Revision D.01,
 Gaussian 09:  ES64L-G09RevD.01 24-Apr-2013

 --------------------
 #p B2PLYPD3/Def2QZVP
 --------------------

 ---
 h2o
 ---
 Symbolic Z-matrix:
 Charge =  0 Multiplicity = 1

                         Standard orientation:
 ---------------------------------------------------------------------
 Center     Atomic      Atomic             Coordinates (Angstroms)
 Number     Number       Type             X           Y           Z
 ---------------------------------------------------------------------
      1          8           0        0.000000    0.113212    0.000000
      2          1           0        0.724174   -0.518052    0.000000
      3          1           0       -0.724174   -0.387646    0.000000
 ---------------------------------------------------------------------

 SCF Done:  E(RB2PLYPD3) =  -76.3291729870     A.U. after   10 cycles
 E2(B2PLYPD3) =    -0.8878407367D-01 E(B2PLYPD3) =    -0.76417957060673D+02

 The electronic state is 1-A'.
 Alpha  occ. eigenvalues --  -19.72482  -1.17760  -0.62998  -0.48033  -0.40326
 Alpha virt. eigenvalues --    0.04859   0.10562   0.27217   0.30309   0.31377
 Alpha virt. eigenvalues --    0.37646   0.45321   0.50527   0.56709   0.62391
 Alpha virt. eigenvalues --    0.64634   0.82011   0.94283   0.95377   1.05431

 Mulliken charges:
               1
     1  O   -0.402520
     2  H    0.223966
     3  H    0.178554
 Sum of Mulliken charges =   0.00000

 Dipole moment (field-independent basis, Debye):
    X=             -0.0414    Y=             -1.9412    Z=              0.0000  Tot=              1.9417
 Quadrupole moment (field-independent basis, Debye-Ang):
   XX=             -4.4457   YY=             -6.2694   ZZ=             -7.5027
   XY=             -0.2072   XZ=              0.0000   YZ=              0.0000

 1\1\GINC-NODE31\SP\RB2PLYPD3-FC\def2QZVP\H2O1\BOITTIER\26-Aug-2020\0\\
 #p B2PLYPD3/Def2QZVP\\h2o\\0,1\O,0,-5.326605,-0.761509,0.921275\H,0,-4
 .368927,-0.690152,0.895139\H,0,-5.609308,0.05834,0.768917\\Version=ES6
 4L-G09RevD.01\State=1-A'\HF=-76.329173\MP2=-76.4179571\RMSD=6.658e-09\
 PG=CS [SG(H2O1)]\\@

 IMAGINATION WILL OFTEN CARRY US TO WORLDS THAT NEVER WERE.

 Normal termination of Gaussian 09 at Wed Aug 26 09:25:31 2020.
