 Gaussian 09, Revision D.01,
 Gaussian 09:  ES64L-G09RevD.01 24-Apr-2013

 --------------------
 #p B2PLYPD3/Def2QZVP
 --------------------

 ---
 h2o
 ---
 Symbolic Z-matrix:
 Charge =  0 Multiplicity = 1

                         Standard orientation:
 ---------------------------------------------------------------------
 Center     Atomic      Atomic             Coordinates (Angstroms)
 Number     Number       Type             X           Y           Z
 ---------------------------------------------------------------------
      1          8           0        0.000000    0.118550    0.000000
      2          1           0        0.790466   -0.423269    0.000000
      3          1           0       -0.790466   -0.525128    0.000000
 ---------------------------------------------------------------------

 SCF Done:  E(RB2PLYPD3) =  -76.3308952805     A.U. after   10 cycles
 E2(B2PLYPD3) =    -0.9094308296D-01 E(B2PLYPD3) =    -0.76421838363502D+02

 The electronic state is 1-A'.
 Alpha  occ. eigenvalues --  -19.73503  -1.14262  -0.60241  -0.46718  -0.39678
 Alpha virt. eigenvalues --    0.04163   0.09890   0.27642   0.30255   0.30489
 Alpha virt. eigenvalues --    0.34508   0.43247   0.50330   0.55580   0.62476
 Alpha virt. eigenvalues --    0.66286   0.80174   0.92394   0.96565   1.01771

 Mulliken charges:
               1
     1  O   -0.466882
     2  H    0.221886
     3  H    0.244996
 Sum of Mulliken charges =   0.00000

 Dipole moment (field-independent basis, Debye):
    X=              0.0298    Y=             -1.9538    Z=              0.0000  Tot=              1.9540
 Quadrupole moment (field-independent basis, Debye-Ang):
   XX=             -4.1991   YY=             -6.3838   ZZ=             -7.6642
   XY=              0.1743   XZ=              0.0000   YZ=              0.0000

 1\1\GINC-NODE05\SP\RB2PLYPD3-FC\def2QZVP\H2O1\BOITTIER\26-Aug-2020\0\\
 #p B2PLYPD3/Def2QZVP\\h2o\\0,1\O,0,-5.326605,-0.765807,0.917476\H,0,-4
 .368927,-0.766067,0.95292\H,0,-5.609308,0.203018,0.773898\\Version=ES6
 4L-G09RevD.01\State=1-A'\HF=-76.3308953\MP2=-76.4218384\RMSD=5.370e-09
 \PG=CS [SG(H2O1)]\\@

 VIRTUE IS LEARNED AT YOUR MOTHER'S KNEE,

 Normal termination of Gaussian 09 at Wed Aug 26 12:34:18 2020.
