 Gaussian 09, Revision D.01,
 Gaussian 09:  ES64L-G09RevD.01 24-Apr-2013

 --------------------
 #p B2PLYPD3/Def2QZVP
 --------------------

 ---
 h2o
 ---
 Symbolic Z-matrix:
 Charge =  0 Multiplicity = 1

                         Standard orientation:
 ---------------------------------------------------------------------
 Center     Atomic      Atomic             Coordinates (Angstroms)
 Number     Number       Type             X           Y           Z
 ---------------------------------------------------------------------
      1          8           0        0.000000    0.117419    0.000000
      2          1           0        0.771986   -0.449797    0.000000
      3          1           0       -0.771986   -0.489558    0.000000
 ---------------------------------------------------------------------

 SCF Done:  E(RB2PLYPD3) =  -76.3342527717     A.U. after   10 cycles
 E2(B2PLYPD3) =    -0.9033990543D-01 E(B2PLYPD3) =    -0.76424592677079D+02

 The electronic state is 1-A'.
 Alpha  occ. eigenvalues --  -19.73270  -1.15103  -0.60921  -0.47147  -0.39850
 Alpha virt. eigenvalues --    0.04418   0.10086   0.27568   0.30442   0.30808
 Alpha virt. eigenvalues --    0.35290   0.43672   0.50320   0.55984   0.62351
 Alpha virt. eigenvalues --    0.65887   0.80801   0.93362   0.96184   1.03137

 Mulliken charges:
               1
     1  O   -0.453309
     2  H    0.221610
     3  H    0.231699
 Sum of Mulliken charges =   0.00000

 Dipole moment (field-independent basis, Debye):
    X=              0.0120    Y=             -1.9553    Z=              0.0000  Tot=              1.9553
 Quadrupole moment (field-independent basis, Debye-Ang):
   XX=             -4.2760   YY=             -6.3565   ZZ=             -7.6207
   XY=              0.0666   XZ=              0.0000   YZ=              0.0000

 1\1\GINC-NODE30\SP\RB2PLYPD3-FC\def2QZVP\H2O1\BOITTIER\26-Aug-2020\0\\
 #p B2PLYPD3/Def2QZVP\\h2o\\0,1\O,0,-5.326605,-0.764727,0.919742\H,0,-4
 .368927,-0.742772,0.927947\H,0,-5.609308,0.162442,0.762194\\Version=ES
 64L-G09RevD.01\State=1-A'\HF=-76.3342528\MP2=-76.4245927\RMSD=4.214e-0
 9\PG=CS [SG(H2O1)]\\@

 KNOWLEDGE IS OF TWO KINDS:  WE KNOW A SUBJECT OURSELVES OR WE KNOW

 Normal termination of Gaussian 09 at Wed Aug 26 10:34:12 2020.
