 Gaussian 09, Revision D.01,
 Gaussian 09:  ES64L-G09RevD.01 24-Apr-2013

 --------------------
 #p B2PLYPD3/Def2QZVP
 --------------------

 ---
 h2o
 ---
 Symbolic Z-matrix:
 Charge =  0 Multiplicity = 1

                         Standard orientation:
 ---------------------------------------------------------------------
 Center     Atomic      Atomic             Coordinates (Angstroms)
 Number     Number       Type             X           Y           Z
 ---------------------------------------------------------------------
      1          8           0        0.000000    0.113722    0.000000
      2          1           0        0.766577   -0.461086    0.000000
      3          1           0       -0.766577   -0.448689    0.000000
 ---------------------------------------------------------------------

 SCF Done:  E(RB2PLYPD3) =  -76.3351901863     A.U. after   10 cycles
 E2(B2PLYPD3) =    -0.8979380895D-01 E(B2PLYPD3) =    -0.76424983995249D+02

 The electronic state is 1-A'.
 Alpha  occ. eigenvalues --  -19.72971  -1.15723  -0.61881  -0.47100  -0.39948
 Alpha virt. eigenvalues --    0.04624   0.10209   0.27451   0.30408   0.31287
 Alpha virt. eigenvalues --    0.35717   0.44085   0.50730   0.55981   0.62885
 Alpha virt. eigenvalues --    0.65478   0.81117   0.93755   0.95904   1.04653

 Mulliken charges:
               1
     1  O   -0.444536
     2  H    0.223975
     3  H    0.220561
 Sum of Mulliken charges =   0.00000

 Dipole moment (field-independent basis, Debye):
    X=             -0.0036    Y=             -1.9234    Z=              0.0000  Tot=              1.9234
 Quadrupole moment (field-independent basis, Debye-Ang):
   XX=             -4.2521   YY=             -6.3882   ZZ=             -7.5880
   XY=             -0.0210   XZ=              0.0000   YZ=              0.0000

 1\1\GINC-NODE10\SP\RB2PLYPD3-FC\def2QZVP\H2O1\BOITTIER\26-Aug-2020\0\\
 #p B2PLYPD3/Def2QZVP\\h2o\\0,1\O,0,-5.326605,-0.76263,0.916072\H,0,-4.
 368927,-0.752067,0.944098\H,0,-5.609308,0.138196,0.8041\\Version=ES64L
 -G09RevD.01\State=1-A'\HF=-76.3351902\MP2=-76.424984\RMSD=3.951e-09\PG
 =CS [SG(H2O1)]\\@

 WHEN A MATHEMATICIAN ENGAGED IN INVESTIGATING

 Normal termination of Gaussian 09 at Wed Aug 26 12:54:08 2020.
