 Gaussian 09, Revision D.01,
 Gaussian 09:  ES64L-G09RevD.01 24-Apr-2013

 --------------------
 #p B2PLYPD3/Def2QZVP
 --------------------

 ---
 h2o
 ---
 Symbolic Z-matrix:
 Charge =  0 Multiplicity = 1

                         Standard orientation:
 ---------------------------------------------------------------------
 Center     Atomic      Atomic             Coordinates (Angstroms)
 Number     Number       Type             X           Y           Z
 ---------------------------------------------------------------------
      1          8           0        0.000000    0.119760    0.000000
      2          1           0        0.746302   -0.487175    0.000000
      3          1           0       -0.746302   -0.470905    0.000000
 ---------------------------------------------------------------------

 SCF Done:  E(RB2PLYPD3) =  -76.3349325295     A.U. after   10 cycles
 E2(B2PLYPD3) =    -0.9000037155D-01 E(B2PLYPD3) =    -0.76424932901059D+02

 The electronic state is 1-A'.
 Alpha  occ. eigenvalues --  -19.73187  -1.15925  -0.60960  -0.47895  -0.40034
 Alpha virt. eigenvalues --    0.04513   0.10264   0.27537   0.30400   0.30824
 Alpha virt. eigenvalues --    0.36331   0.44039   0.49906   0.56606   0.61577
 Alpha virt. eigenvalues --    0.65629   0.81303   0.94125   0.95860   1.03570

 Mulliken charges:
               1
     1  O   -0.437093
     2  H    0.220821
     3  H    0.216272
 Sum of Mulliken charges =   0.00000

 Dipole moment (field-independent basis, Debye):
    X=             -0.0054    Y=             -1.9925    Z=              0.0000  Tot=              1.9925
 Quadrupole moment (field-independent basis, Debye-Ang):
   XX=             -4.4330   YY=             -6.2619   ZZ=             -7.5853
   XY=             -0.0258   XZ=              0.0000   YZ=              0.0000

 1\1\GINC-NODE24\SP\RB2PLYPD3-FC\def2QZVP\H2O1\BOITTIER\26-Aug-2020\0\\
 #p B2PLYPD3/Def2QZVP\\h2o\\0,1\O,0,-5.326605,-0.764589,0.927404\H,0,-4
 .368927,-0.698286,0.865816\H,0,-5.609308,0.115758,0.701751\\Version=ES
 64L-G09RevD.01\State=1-A'\HF=-76.3349325\MP2=-76.4249329\RMSD=4.354e-0
 9\PG=CS [SG(H2O1)]\\@

 "THE ACADEMIC HIERARCHY"

 Normal termination of Gaussian 09 at Wed Aug 26 08:30:46 2020.
