 Gaussian 09, Revision D.01,
 Gaussian 09:  ES64L-G09RevD.01 24-Apr-2013

 --------------------
 #p B2PLYPD3/Def2QZVP
 --------------------

 ---
 h2o
 ---
 Symbolic Z-matrix:
 Charge =  0 Multiplicity = 1

                         Standard orientation:
 ---------------------------------------------------------------------
 Center     Atomic      Atomic             Coordinates (Angstroms)
 Number     Number       Type             X           Y           Z
 ---------------------------------------------------------------------
      1          8           0        0.000000    0.119991    0.000000
      2          1           0        0.749604   -0.482357    0.000000
      3          1           0       -0.749604   -0.477570    0.000000
 ---------------------------------------------------------------------

 SCF Done:  E(RB2PLYPD3) =  -76.3349071090     A.U. after   10 cycles
 E2(B2PLYPD3) =    -0.9010394306D-01 E(B2PLYPD3) =    -0.76425011052024D+02

 The electronic state is 1-A'.
 Alpha  occ. eigenvalues --  -19.73235  -1.15756  -0.60837  -0.47825  -0.40003
 Alpha virt. eigenvalues --    0.04482   0.10230   0.27558   0.30409   0.30774
 Alpha virt. eigenvalues --    0.36162   0.43943   0.49897   0.56546   0.61589
 Alpha virt. eigenvalues --    0.65710   0.81222   0.94021   0.95929   1.03365

 Mulliken charges:
               1
     1  O   -0.439974
     2  H    0.220642
     3  H    0.219332
 Sum of Mulliken charges =   0.00000

 Dipole moment (field-independent basis, Debye):
    X=             -0.0016    Y=             -1.9927    Z=              0.0000  Tot=              1.9927
 Quadrupole moment (field-independent basis, Debye-Ang):
   XX=             -4.4205   YY=             -6.2679   ZZ=             -7.5931
   XY=             -0.0076   XZ=              0.0000   YZ=              0.0000

 1\1\GINC-NODE01\SP\RB2PLYPD3-FC\def2QZVP\H2O1\BOITTIER\26-Aug-2020\0\\
 #p B2PLYPD3/Def2QZVP\\h2o\\0,1\O,0,-5.326605,-0.76473,0.927481\H,0,-4.
 368927,-0.702935,0.866132\H,0,-5.609308,0.122664,0.700334\\Version=ES6
 4L-G09RevD.01\State=1-A'\HF=-76.3349071\MP2=-76.4250111\RMSD=4.262e-09
 \PG=CS [SG(H2O1)]\\@

 SEE YOU NOW,

 Normal termination of Gaussian 09 at Wed Aug 26 11:16:56 2020.
