 Gaussian 09, Revision D.01,
 Gaussian 09:  ES64L-G09RevD.01 24-Apr-2013

 --------------------
 #p B2PLYPD3/Def2QZVP
 --------------------

 ---
 h2o
 ---
 Symbolic Z-matrix:
 Charge =  0 Multiplicity = 1

                         Standard orientation:
 ---------------------------------------------------------------------
 Center     Atomic      Atomic             Coordinates (Angstroms)
 Number     Number       Type             X           Y           Z
 ---------------------------------------------------------------------
      1          8           0        0.000000    0.115191    0.000000
      2          1           0        0.759710   -0.468708    0.000000
      3          1           0       -0.759710   -0.452823    0.000000
 ---------------------------------------------------------------------

 SCF Done:  E(RB2PLYPD3) =  -76.3352300793     A.U. after   10 cycles
 E2(B2PLYPD3) =    -0.8979068397D-01 E(B2PLYPD3) =    -0.76425020763251D+02

 The electronic state is 1-A'.
 Alpha  occ. eigenvalues --  -19.73003  -1.15861  -0.61712  -0.47341  -0.39987
 Alpha virt. eigenvalues --    0.04614   0.10241   0.27463   0.30402   0.31187
 Alpha virt. eigenvalues --    0.35973   0.44123   0.50499   0.56173   0.62531
 Alpha virt. eigenvalues --    0.65476   0.81230   0.93888   0.95846   1.04459

 Mulliken charges:
               1
     1  O   -0.440979
     2  H    0.222709
     3  H    0.218270
 Sum of Mulliken charges =   0.00000

 Dipole moment (field-independent basis, Debye):
    X=             -0.0048    Y=             -1.9416    Z=              0.0000  Tot=              1.9416
 Quadrupole moment (field-independent basis, Debye-Ang):
   XX=             -4.3056   YY=             -6.3524   ZZ=             -7.5831
   XY=             -0.0264   XZ=              0.0000   YZ=              0.0000

 1\1\GINC-NODE05\SP\RB2PLYPD3-FC\def2QZVP\H2O1\BOITTIER\26-Aug-2020\0\\
 #p B2PLYPD3/Def2QZVP\\h2o\\0,1\O,0,-5.326605,-0.76334,0.918708\H,0,-4.
 368927,-0.733761,0.927404\H,0,-5.609308,0.13124,0.778692\\Version=ES64
 L-G09RevD.01\State=1-A'\HF=-76.3352301\MP2=-76.4250208\RMSD=4.083e-09\
 PG=CS [SG(H2O1)]\\@

 THE MORE POWERFUL THE METHOD, THE MORE CATASTROPHIC THE ERRORS.

 Normal termination of Gaussian 09 at Wed Aug 26 12:13:21 2020.
