 Gaussian 09, Revision D.01,
 Gaussian 09:  ES64L-G09RevD.01 24-Apr-2013

 --------------------
 #p B2PLYPD3/Def2QZVP
 --------------------

 ---
 h2o
 ---
 Symbolic Z-matrix:
 Charge =  0 Multiplicity = 1

                         Standard orientation:
 ---------------------------------------------------------------------
 Center     Atomic      Atomic             Coordinates (Angstroms)
 Number     Number       Type             X           Y           Z
 ---------------------------------------------------------------------
      1          8           0        0.000000    0.122368    0.000000
      2          1           0        0.764149   -0.460405    0.000000
      3          1           0       -0.764149   -0.518543    0.000000
 ---------------------------------------------------------------------

 SCF Done:  E(RB2PLYPD3) =  -76.3330282246     A.U. after   10 cycles
 E2(B2PLYPD3) =    -0.9073815527D-01 E(B2PLYPD3) =    -0.76423766379902D+02

 The electronic state is 1-A'.
 Alpha  occ. eigenvalues --  -19.73529  -1.14897  -0.60002  -0.47559  -0.39848
 Alpha virt. eigenvalues --    0.04251   0.10043   0.27676   0.30289   0.30452
 Alpha virt. eigenvalues --    0.35359   0.43463   0.49713   0.56285   0.61447
 Alpha virt. eigenvalues --    0.66163   0.80750   0.93301   0.96321   1.01945

 Mulliken charges:
               1
     1  O   -0.452970
     2  H    0.219378
     3  H    0.233592
 Sum of Mulliken charges =   0.00000

 Dipole moment (field-independent basis, Debye):
    X=              0.0193    Y=             -2.0057    Z=              0.0000  Tot=              2.0057
 Quadrupole moment (field-independent basis, Debye-Ang):
   XX=             -4.3833   YY=             -6.2736   ZZ=             -7.6357
   XY=              0.0937   XZ=              0.0000   YZ=              0.0000

 1\1\GINC-NODE25\SP\RB2PLYPD3-FC\def2QZVP\H2O1\BOITTIER\26-Aug-2020\0\\
 #p B2PLYPD3/Def2QZVP\\h2o\\0,1\O,0,-5.326605,-0.76821,0.918878\H,0,-4.
 368927,-0.69734,0.956003\H,0,-5.609308,0.172739,0.747459\\Version=ES64
 L-G09RevD.01\State=1-A'\HF=-76.3330282\MP2=-76.4237664\RMSD=4.589e-09\
 PG=CS [SG(H2O1)]\\@

 SOME THINGS ARE EASY, THEY ARE ONLY HARD TO DO.

 Normal termination of Gaussian 09 at Wed Aug 26 08:49:03 2020.
