 Gaussian 09, Revision D.01,
 Gaussian 09:  ES64L-G09RevD.01 24-Apr-2013

 --------------------
 #p B2PLYPD3/Def2QZVP
 --------------------

 ---
 h2o
 ---
 Symbolic Z-matrix:
 Charge =  0 Multiplicity = 1

                         Standard orientation:
 ---------------------------------------------------------------------
 Center     Atomic      Atomic             Coordinates (Angstroms)
 Number     Number       Type             X           Y           Z
 ---------------------------------------------------------------------
      1          8           0        0.000000    0.116539    0.000000
      2          1           0        0.737526   -0.506964    0.000000
      3          1           0       -0.737526   -0.425348    0.000000
 ---------------------------------------------------------------------

 SCF Done:  E(RB2PLYPD3) =  -76.3335239554     A.U. after   10 cycles
 E2(B2PLYPD3) =    -0.8943696688D-01 E(B2PLYPD3) =    -0.76422960922328D+02

 The electronic state is 1-A'.
 Alpha  occ. eigenvalues --  -19.72868  -1.16711  -0.61901  -0.47923  -0.40157
 Alpha virt. eigenvalues --    0.04680   0.10403   0.27395   0.30361   0.31109
 Alpha virt. eigenvalues --    0.36930   0.44595   0.50216   0.56632   0.62001
 Alpha virt. eigenvalues --    0.65166   0.81628   0.94251   0.95596   1.04557

 Mulliken charges:
               1
     1  O   -0.423580
     2  H    0.224361
     3  H    0.199219
 Sum of Mulliken charges =   0.00000

 Dipole moment (field-independent basis, Debye):
    X=             -0.0264    Y=             -1.9666    Z=              0.0000  Tot=              1.9668
 Quadrupole moment (field-independent basis, Debye-Ang):
   XX=             -4.4295   YY=             -6.2733   ZZ=             -7.5488
   XY=             -0.1301   XZ=              0.0000   YZ=              0.0000

 1\1\GINC-NODE24\SP\RB2PLYPD3-FC\def2QZVP\H2O1\BOITTIER\26-Aug-2020\0\\
 #p B2PLYPD3/Def2QZVP\\h2o\\0,1\O,0,-5.326605,-0.760996,0.931076\H,0,-4
 .368927,-0.716721,0.81449\H,0,-5.609308,0.076698,0.694574\\Version=ES6
 4L-G09RevD.01\State=1-A'\HF=-76.333524\MP2=-76.4229609\RMSD=5.563e-09\
 PG=CS [SG(H2O1)]\\@

 NECESSARY EVIL: ONE WE LIKE TOO MUCH TO RELINQUISH.

 Normal termination of Gaussian 09 at Wed Aug 26 08:46:50 2020.
