 Gaussian 09, Revision D.01,
 Gaussian 09:  ES64L-G09RevD.01 24-Apr-2013

 --------------------
 #p B2PLYPD3/Def2QZVP
 --------------------

 ---
 h2o
 ---
 Symbolic Z-matrix:
 Charge =  0 Multiplicity = 1

                         Standard orientation:
 ---------------------------------------------------------------------
 Center     Atomic      Atomic             Coordinates (Angstroms)
 Number     Number       Type             X           Y           Z
 ---------------------------------------------------------------------
      1          8           0        0.000000    0.113804    0.000000
      2          1           0        0.766152   -0.466153    0.000000
      3          1           0       -0.766152   -0.444276    0.000000
 ---------------------------------------------------------------------

 SCF Done:  E(RB2PLYPD3) =  -76.3351372315     A.U. after   10 cycles
 E2(B2PLYPD3) =    -0.8979321377D-01 E(B2PLYPD3) =    -0.76424930445263D+02

 The electronic state is 1-A'.
 Alpha  occ. eigenvalues --  -19.72972  -1.15733  -0.61872  -0.47113  -0.39951
 Alpha virt. eigenvalues --    0.04622   0.10211   0.27451   0.30408   0.31274
 Alpha virt. eigenvalues --    0.35735   0.44091   0.50717   0.55990   0.62866
 Alpha virt. eigenvalues --    0.65476   0.81123   0.93754   0.95903   1.04609

 Mulliken charges:
               1
     1  O   -0.444252
     2  H    0.225142
     3  H    0.219110
 Sum of Mulliken charges =   0.00000

 Dipole moment (field-independent basis, Debye):
    X=             -0.0063    Y=             -1.9244    Z=              0.0000  Tot=              1.9244
 Quadrupole moment (field-independent basis, Debye-Ang):
   XX=             -4.2553   YY=             -6.3859   ZZ=             -7.5876
   XY=             -0.0370   XZ=              0.0000   YZ=              0.0000

 1\1\GINC-NODE39\SP\RB2PLYPD3-FC\def2QZVP\H2O1\BOITTIER\26-Aug-2020\0\\
 #p B2PLYPD3/Def2QZVP\\h2o\\0,1\O,0,-5.326605,-0.762897,0.910721\H,0,-4
 .368927,-0.749033,0.988175\H,0,-5.609308,0.139427,0.844902\\Version=ES
 64L-G09RevD.01\State=1-A'\HF=-76.3351372\MP2=-76.4249304\RMSD=4.038e-0
 9\PG=CS [SG(H2O1)]\\@

 WE MIGHT AS WELL ATTEMPT TO INTRODUCE A NEW PLANET

 Normal termination of Gaussian 09 at Wed Aug 26 08:54:53 2020.
