 Gaussian 09, Revision D.01,
 Gaussian 09:  ES64L-G09RevD.01 24-Apr-2013

 --------------------
 #p B2PLYPD3/Def2QZVP
 --------------------

 ---
 h2o
 ---
 Symbolic Z-matrix:
 Charge =  0 Multiplicity = 1

                         Standard orientation:
 ---------------------------------------------------------------------
 Center     Atomic      Atomic             Coordinates (Angstroms)
 Number     Number       Type             X           Y           Z
 ---------------------------------------------------------------------
      1          8           0        0.000000    0.122214    0.000000
      2          1           0        0.750552   -0.479000    0.000000
      3          1           0       -0.750552   -0.498715    0.000000
 ---------------------------------------------------------------------

 SCF Done:  E(RB2PLYPD3) =  -76.3343200940     A.U. after   10 cycles
 E2(B2PLYPD3) =    -0.9039429466D-01 E(B2PLYPD3) =    -0.76424714388706D+02

 The electronic state is 1-A'.
 Alpha  occ. eigenvalues --  -19.73397  -1.15463  -0.60312  -0.47903  -0.39962
 Alpha virt. eigenvalues --    0.04374   0.10171   0.27626   0.30423   0.30516
 Alpha virt. eigenvalues --    0.35961   0.43737   0.49670   0.56593   0.61253
 Alpha virt. eigenvalues --    0.65920   0.81078   0.93895   0.96080   1.02622

 Mulliken charges:
               1
     1  O   -0.443632
     2  H    0.219225
     3  H    0.224408
 Sum of Mulliken charges =   0.00000

 Dipole moment (field-independent basis, Debye):
    X=              0.0068    Y=             -2.0126    Z=              0.0000  Tot=              2.0126
 Quadrupole moment (field-independent basis, Debye-Ang):
   XX=             -4.4471   YY=             -6.2426   ZZ=             -7.6089
   XY=              0.0311   XZ=              0.0000   YZ=              0.0000

 1\1\GINC-NODE34\SP\RB2PLYPD3-FC\def2QZVP\H2O1\BOITTIER\26-Aug-2020\0\\
 #p B2PLYPD3/Def2QZVP\\h2o\\0,1\O,0,-5.326605,-0.76735,0.92325\H,0,-4.3
 68927,-0.680265,0.915765\H,0,-5.609308,0.141905,0.717785\\Version=ES64
 L-G09RevD.01\State=1-A'\HF=-76.3343201\MP2=-76.4247144\RMSD=4.342e-09\
 PG=CS [SG(H2O1)]\\@

 IF YOU GIVE A BOY AND A PIG EVERYTHING THEY WANT,

 Normal termination of Gaussian 09 at Wed Aug 26 09:05:33 2020.
