 Gaussian 09, Revision D.01,
 Gaussian 09:  ES64L-G09RevD.01 24-Apr-2013

 --------------------
 #p B2PLYPD3/Def2QZVP
 --------------------

 ---
 h2o
 ---
 Symbolic Z-matrix:
 Charge =  0 Multiplicity = 1

                         Standard orientation:
 ---------------------------------------------------------------------
 Center     Atomic      Atomic             Coordinates (Angstroms)
 Number     Number       Type             X           Y           Z
 ---------------------------------------------------------------------
      1          8           0        0.000000    0.118852    0.000000
      2          1           0        0.745029   -0.487722    0.000000
      3          1           0       -0.745029   -0.463097    0.000000
 ---------------------------------------------------------------------

 SCF Done:  E(RB2PLYPD3) =  -76.3349674583     A.U. after   10 cycles
 E2(B2PLYPD3) =    -0.8986457994D-01 E(B2PLYPD3) =    -0.76424832038232D+02

 The electronic state is 1-A'.
 Alpha  occ. eigenvalues --  -19.73111  -1.16086  -0.61197  -0.47881  -0.40059
 Alpha virt. eigenvalues --    0.04560   0.10295   0.27505   0.30392   0.30923
 Alpha virt. eigenvalues --    0.36451   0.44151   0.49996   0.56601   0.61706
 Alpha virt. eigenvalues --    0.65525   0.81377   0.94182   0.95788   1.03895

 Mulliken charges:
               1
     1  O   -0.434681
     2  H    0.220855
     3  H    0.213825
 Sum of Mulliken charges =   0.00000

 Dipole moment (field-independent basis, Debye):
    X=             -0.0081    Y=             -1.9847    Z=              0.0000  Tot=              1.9847
 Quadrupole moment (field-independent basis, Debye-Ang):
   XX=             -4.4265   YY=             -6.2694   ZZ=             -7.5772
   XY=             -0.0392   XZ=              0.0000   YZ=              0.0000

 1\1\GINC-NODE01\SP\RB2PLYPD3-FC\def2QZVP\H2O1\BOITTIER\26-Aug-2020\0\\
 #p B2PLYPD3/Def2QZVP\\h2o\\0,1\O,0,-5.326605,-0.764995,0.923454\H,0,-4
 .368927,-0.692299,0.899601\H,0,-5.609308,0.116256,0.730557\\Version=ES
 64L-G09RevD.01\State=1-A'\HF=-76.3349675\MP2=-76.424832\RMSD=4.431e-09
 \PG=CS [SG(H2O1)]\\@

 NOBODY LOSES ALL THE TIME

 Normal termination of Gaussian 09 at Wed Aug 26 11:13:43 2020.
