 Gaussian 09, Revision D.01,
 Gaussian 09:  ES64L-G09RevD.01 24-Apr-2013

 --------------------
 #p B2PLYPD3/Def2QZVP
 --------------------

 ---
 h2o
 ---
 Symbolic Z-matrix:
 Charge =  0 Multiplicity = 1

                         Standard orientation:
 ---------------------------------------------------------------------
 Center     Atomic      Atomic             Coordinates (Angstroms)
 Number     Number       Type             X           Y           Z
 ---------------------------------------------------------------------
      1          8           0        0.000000    0.123807    0.000000
      2          1           0        0.723652   -0.520131    0.000000
      3          1           0       -0.723652   -0.470322    0.000000
 ---------------------------------------------------------------------

 SCF Done:  E(RB2PLYPD3) =  -76.3335932503     A.U. after   10 cycles
 E2(B2PLYPD3) =    -0.8998558999D-01 E(B2PLYPD3) =    -0.76423578840257D+02

 The electronic state is 1-A'.
 Alpha  occ. eigenvalues --  -19.73250  -1.16432  -0.60455  -0.48639  -0.40158
 Alpha virt. eigenvalues --    0.04466   0.10373   0.27562   0.30377   0.30563
 Alpha virt. eigenvalues --    0.37028   0.44217   0.49450   0.57196   0.60622
 Alpha virt. eigenvalues --    0.65551   0.81464   0.94649   0.95745   1.03260

 Mulliken charges:
               1
     1  O   -0.425919
     2  H    0.220299
     3  H    0.205620
 Sum of Mulliken charges =   0.00000

 Dipole moment (field-independent basis, Debye):
    X=             -0.0185    Y=             -2.0424    Z=              0.0000  Tot=              2.0425
 Quadrupole moment (field-independent basis, Debye-Ang):
   XX=             -4.5960   YY=             -6.1520   ZZ=             -7.5693
   XY=             -0.0745   XZ=              0.0000   YZ=              0.0000

 1\1\GINC-NODE39\SP\RB2PLYPD3-FC\def2QZVP\H2O1\BOITTIER\26-Aug-2020\0\\
 #p B2PLYPD3/Def2QZVP\\h2o\\0,1\O,0,-5.326605,-0.767281,0.927775\H,0,-4
 .368927,-0.630199,0.878886\H,0,-5.609308,0.090746,0.681746\\Version=ES
 64L-G09RevD.01\State=1-A'\HF=-76.3335933\MP2=-76.4235788\RMSD=5.213e-0
 9\PG=CS [SG(H2O1)]\\@

 THE MOST SERIOUS THREAT TO THE SURVIVAL OF MANKIND IS NOT NOW

 Normal termination of Gaussian 09 at Wed Aug 26 09:09:43 2020.
