 Gaussian 09, Revision D.01,
 Gaussian 09:  ES64L-G09RevD.01 24-Apr-2013

 --------------------
 #p B2PLYPD3/Def2QZVP
 --------------------

 ---
 h2o
 ---
 Symbolic Z-matrix:
 Charge =  0 Multiplicity = 1

                         Standard orientation:
 ---------------------------------------------------------------------
 Center     Atomic      Atomic             Coordinates (Angstroms)
 Number     Number       Type             X           Y           Z
 ---------------------------------------------------------------------
      1          8           0        0.000000    0.119620    0.000000
      2          1           0        0.760869   -0.464440    0.000000
      3          1           0       -0.760869   -0.492524    0.000000
 ---------------------------------------------------------------------

 SCF Done:  E(RB2PLYPD3) =  -76.3344900171     A.U. after   10 cycles
 E2(B2PLYPD3) =    -0.9032646471D-01 E(B2PLYPD3) =    -0.76424816481807D+02

 The electronic state is 1-A'.
 Alpha  occ. eigenvalues --  -19.73315  -1.15325  -0.60681  -0.47526  -0.39914
 Alpha virt. eigenvalues --    0.04412   0.10138   0.27590   0.30431   0.30691
 Alpha virt. eigenvalues --    0.35669   0.43732   0.49995   0.56291   0.61822
 Alpha virt. eigenvalues --    0.65879   0.80982   0.93642   0.96104   1.02965

 Mulliken charges:
               1
     1  O   -0.447769
     2  H    0.220237
     3  H    0.227532
 Sum of Mulliken charges =   0.00000

 Dipole moment (field-independent basis, Debye):
    X=              0.0090    Y=             -1.9826    Z=              0.0000  Tot=              1.9826
 Quadrupole moment (field-independent basis, Debye-Ang):
   XX=             -4.3610   YY=             -6.3011   ZZ=             -7.6124
   XY=              0.0457   XZ=              0.0000   YZ=              0.0000

 1\1\GINC-NODE11\SP\RB2PLYPD3-FC\def2QZVP\H2O1\BOITTIER\26-Aug-2020\0\\
 #p B2PLYPD3/Def2QZVP\\h2o\\0,1\O,0,-5.326605,-0.765505,0.92358\H,0,-4.
 368927,-0.716139,0.902052\H,0,-5.609308,0.148264,0.726737\\Version=ES6
 4L-G09RevD.01\State=1-A'\HF=-76.33449\MP2=-76.4248165\RMSD=4.217e-09\P
 G=CS [SG(H2O1)]\\@

 UNDER MOST GREENE GRASSE LY MOST GREATE SNAKES.

 Normal termination of Gaussian 09 at Wed Aug 26 10:21:05 2020.
