 Gaussian 09, Revision D.01,
 Gaussian 09:  ES64L-G09RevD.01 24-Apr-2013

 --------------------
 #p B2PLYPD3/Def2QZVP
 --------------------

 ---
 h2o
 ---
 Symbolic Z-matrix:
 Charge =  0 Multiplicity = 1

                         Standard orientation:
 ---------------------------------------------------------------------
 Center     Atomic      Atomic             Coordinates (Angstroms)
 Number     Number       Type             X           Y           Z
 ---------------------------------------------------------------------
      1          8           0        0.000000    0.111585    0.000000
      2          1           0        0.728828   -0.513128    0.000000
      3          1           0       -0.728828   -0.379551    0.000000
 ---------------------------------------------------------------------

 SCF Done:  E(RB2PLYPD3) =  -76.3290049397     A.U. after   10 cycles
 E2(B2PLYPD3) =    -0.8871663197D-01 E(B2PLYPD3) =    -0.76417721571711D+02

 The electronic state is 1-A'.
 Alpha  occ. eigenvalues --  -19.72415  -1.17734  -0.63288  -0.47826  -0.40310
 Alpha virt. eigenvalues --    0.04895   0.10549   0.27195   0.30307   0.31483
 Alpha virt. eigenvalues --    0.37506   0.45345   0.50752   0.56548   0.62743
 Alpha virt. eigenvalues --    0.64586   0.82008   0.94208   0.95376   1.05570

 Mulliken charges:
               1
     1  O   -0.403226
     2  H    0.224833
     3  H    0.178393
 Sum of Mulliken charges =   0.00000

 Dipole moment (field-independent basis, Debye):
    X=             -0.0408    Y=             -1.9227    Z=              0.0000  Tot=              1.9231
 Quadrupole moment (field-independent basis, Debye-Ang):
   XX=             -4.4025   YY=             -6.2999   ZZ=             -7.5019
   XY=             -0.2158   XZ=              0.0000   YZ=              0.0000

 1\1\GINC-NODE16\SP\RB2PLYPD3-FC\def2QZVP\H2O1\BOITTIER\26-Aug-2020\0\\
 #p B2PLYPD3/Def2QZVP\\h2o\\0,1\O,0,-5.326605,-0.760121,0.922379\H,0,-4
 .368927,-0.711766,0.877972\H,0,-5.609308,0.057742,0.768806\\Version=ES
 64L-G09RevD.01\State=1-A'\HF=-76.3290049\MP2=-76.4177216\RMSD=6.711e-0
 9\PG=CS [SG(H2O1)]\\@

 IMAGINATION WILL OFTEN CARRY US TO WORLDS THAT NEVER WERE.

 Normal termination of Gaussian 09 at Wed Aug 26 08:56:14 2020.
