 Gaussian 09, Revision D.01,
 Gaussian 09:  ES64L-G09RevD.01 24-Apr-2013

 --------------------
 #p B2PLYPD3/Def2QZVP
 --------------------

 ---
 h2o
 ---
 Symbolic Z-matrix:
 Charge =  0 Multiplicity = 1

                         Standard orientation:
 ---------------------------------------------------------------------
 Center     Atomic      Atomic             Coordinates (Angstroms)
 Number     Number       Type             X           Y           Z
 ---------------------------------------------------------------------
      1          8           0        0.000000    0.120445    0.000000
      2          1           0        0.740991   -0.493384    0.000000
      3          1           0       -0.740991   -0.470174    0.000000
 ---------------------------------------------------------------------

 SCF Done:  E(RB2PLYPD3) =  -76.3347865398     A.U. after   10 cycles
 E2(B2PLYPD3) =    -0.8996014443D-01 E(B2PLYPD3) =    -0.76424746684224D+02

 The electronic state is 1-A'.
 Alpha  occ. eigenvalues --  -19.73183  -1.16076  -0.60910  -0.48058  -0.40068
 Alpha virt. eigenvalues --    0.04518   0.10296   0.27535   0.30393   0.30794
 Alpha virt. eigenvalues --    0.36527   0.44103   0.49812   0.56739   0.61389
 Alpha virt. eigenvalues --    0.65591   0.81370   0.94261   0.95812   1.03575

 Mulliken charges:
               1
     1  O   -0.434018
     2  H    0.220309
     3  H    0.213709
 Sum of Mulliken charges =   0.00000

 Dipole moment (field-independent basis, Debye):
    X=             -0.0079    Y=             -2.0019    Z=              0.0000  Tot=              2.0019
 Quadrupole moment (field-independent basis, Debye-Ang):
   XX=             -4.4678   YY=             -6.2395   ZZ=             -7.5796
   XY=             -0.0364   XZ=              0.0000   YZ=              0.0000

 1\1\GINC-NODE19\SP\RB2PLYPD3-FC\def2QZVP\H2O1\BOITTIER\26-Aug-2020\0\\
 #p B2PLYPD3/Def2QZVP\\h2o\\0,1\O,0,-5.326605,-0.766149,0.923186\H,0,-4
 .368927,-0.673972,0.908723\H,0,-5.609308,0.116401,0.725495\\Version=ES
 64L-G09RevD.01\State=1-A'\HF=-76.3347865\MP2=-76.4247467\RMSD=4.520e-0
 9\PG=CS [SG(H2O1)]\\@

 GOOD SENSE ABOUT TRIVIALITIES IS BETTER THAN NONSENSE

 Normal termination of Gaussian 09 at Wed Aug 26 11:15:37 2020.
