 Gaussian 09, Revision D.01,
 Gaussian 09:  ES64L-G09RevD.01 24-Apr-2013

 --------------------
 #p B2PLYPD3/Def2QZVP
 --------------------

 ---
 h2o
 ---
 Symbolic Z-matrix:
 Charge =  0 Multiplicity = 1

                         Standard orientation:
 ---------------------------------------------------------------------
 Center     Atomic      Atomic             Coordinates (Angstroms)
 Number     Number       Type             X           Y           Z
 ---------------------------------------------------------------------
      1          8           0        0.000000    0.117147    0.000000
      2          1           0        0.778137   -0.441779    0.000000
      3          1           0       -0.778137   -0.495397    0.000000
 ---------------------------------------------------------------------

 SCF Done:  E(RB2PLYPD3) =  -76.3336758128     A.U. after   10 cycles
 E2(B2PLYPD3) =    -0.9046176923D-01 E(B2PLYPD3) =    -0.76424137582048D+02

 The electronic state is 1-A'.
 Alpha  occ. eigenvalues --  -19.73307  -1.14881  -0.60836  -0.46980  -0.39801
 Alpha virt. eigenvalues --    0.04372   0.10037   0.27580   0.30455   0.30746
 Alpha virt. eigenvalues --    0.35033   0.43567   0.50400   0.55839   0.62493
 Alpha virt. eigenvalues --    0.65972   0.80635   0.93137   0.96283   1.02896

 Mulliken charges:
               1
     1  O   -0.457454
     2  H    0.222110
     3  H    0.235344
 Sum of Mulliken charges =   0.00000

 Dipole moment (field-independent basis, Debye):
    X=              0.0159    Y=             -1.9489    Z=              0.0000  Tot=              1.9490
 Quadrupole moment (field-independent basis, Debye-Ang):
   XX=             -4.2417   YY=             -6.3749   ZZ=             -7.6312
   XY=              0.0907   XZ=              0.0000   YZ=              0.0000

 1\1\GINC-NODE21\SP\RB2PLYPD3-FC\def2QZVP\H2O1\BOITTIER\26-Aug-2020\0\\
 #p B2PLYPD3/Def2QZVP\\h2o\\0,1\O,0,-5.326605,-0.764791,0.917955\H,0,-4
 .368927,-0.752953,0.942636\H,0,-5.609308,0.173646,0.776098\\Version=ES
 64L-G09RevD.01\State=1-A'\HF=-76.3336758\MP2=-76.4241376\RMSD=4.393e-0
 9\PG=CS [SG(H2O1)]\\@

 BLACK HOLES SUCK.

 Normal termination of Gaussian 09 at Wed Aug 26 12:54:55 2020.
