 Gaussian 09, Revision D.01,
 Gaussian 09:  ES64L-G09RevD.01 24-Apr-2013

 --------------------
 #p B2PLYPD3/Def2QZVP
 --------------------

 ---
 h2o
 ---
 Symbolic Z-matrix:
 Charge =  0 Multiplicity = 1

                         Standard orientation:
 ---------------------------------------------------------------------
 Center     Atomic      Atomic             Coordinates (Angstroms)
 Number     Number       Type             X           Y           Z
 ---------------------------------------------------------------------
      1          8           0        0.000000    0.115068    0.000000
      2          1           0        0.761171   -0.474578    0.000000
      3          1           0       -0.761171   -0.445969    0.000000
 ---------------------------------------------------------------------

 SCF Done:  E(RB2PLYPD3) =  -76.3351116674     A.U. after   10 cycles
 E2(B2PLYPD3) =    -0.8981326711D-01 E(B2PLYPD3) =    -0.76424924934546D+02

 The electronic state is 1-A'.
 Alpha  occ. eigenvalues --  -19.73008  -1.15813  -0.61705  -0.47296  -0.39976
 Alpha virt. eigenvalues --    0.04606   0.10230   0.27465   0.30404   0.31176
 Alpha virt. eigenvalues --    0.35912   0.44104   0.50526   0.56134   0.62578
 Alpha virt. eigenvalues --    0.65490   0.81196   0.93831   0.95874   1.04383

 Mulliken charges:
               1
     1  O   -0.441905
     2  H    0.224927
     3  H    0.216978
 Sum of Mulliken charges =   0.00000

 Dipole moment (field-independent basis, Debye):
    X=             -0.0085    Y=             -1.9395    Z=              0.0000  Tot=              1.9395
 Quadrupole moment (field-independent basis, Debye-Ang):
   XX=             -4.2968   YY=             -6.3573   ZZ=             -7.5854
   XY=             -0.0477   XZ=              0.0000   YZ=              0.0000

 1\1\GINC-NODE29\SP\RB2PLYPD3-FC\def2QZVP\H2O1\BOITTIER\26-Aug-2020\0\\
 #p B2PLYPD3/Def2QZVP\\h2o\\0,1\O,0,-5.326605,-0.760712,0.929029\H,0,-4
 .368927,-0.759957,0.829451\H,0,-5.609308,0.115395,0.71302\\Version=ES6
 4L-G09RevD.01\State=1-A'\HF=-76.3351117\MP2=-76.4249249\RMSD=4.190e-09
 \PG=CS [SG(H2O1)]\\@

 NATURE REVEALS EVERY SECRET ONCE.

 Normal termination of Gaussian 09 at Wed Aug 26 09:07:59 2020.
