 Gaussian 09, Revision D.01,
 Gaussian 09:  ES64L-G09RevD.01 24-Apr-2013

 --------------------
 #p B2PLYPD3/Def2QZVP
 --------------------

 ---
 h2o
 ---
 Symbolic Z-matrix:
 Charge =  0 Multiplicity = 1

                         Standard orientation:
 ---------------------------------------------------------------------
 Center     Atomic      Atomic             Coordinates (Angstroms)
 Number     Number       Type             X           Y           Z
 ---------------------------------------------------------------------
      1          8           0        0.000000    0.118622    0.000000
      2          1           0        0.768398   -0.453954    0.000000
      3          1           0       -0.768398   -0.495024    0.000000
 ---------------------------------------------------------------------

 SCF Done:  E(RB2PLYPD3) =  -76.3341747224     A.U. after   10 cycles
 E2(B2PLYPD3) =    -0.9039170998D-01 E(B2PLYPD3) =    -0.76424566432417D+02

 The electronic state is 1-A'.
 Alpha  occ. eigenvalues --  -19.73317  -1.15123  -0.60737  -0.47291  -0.39864
 Alpha virt. eigenvalues --    0.04393   0.10092   0.27588   0.30441   0.30707
 Alpha virt. eigenvalues --    0.35389   0.43656   0.50155   0.56096   0.62100
 Alpha virt. eigenvalues --    0.65925   0.80839   0.93412   0.96183   1.02915

 Mulliken charges:
               1
     1  O   -0.452009
     2  H    0.220793
     3  H    0.231216
 Sum of Mulliken charges =   0.00000

 Dipole moment (field-independent basis, Debye):
    X=              0.0128    Y=             -1.9687    Z=              0.0000  Tot=              1.9688
 Quadrupole moment (field-independent basis, Debye-Ang):
   XX=             -4.3103   YY=             -6.3323   ZZ=             -7.6209
   XY=              0.0680   XZ=              0.0000   YZ=              0.0000

 1\1\GINC-NODE05\SP\RB2PLYPD3-FC\def2QZVP\H2O1\BOITTIER\26-Aug-2020\0\\
 #p B2PLYPD3/Def2QZVP\\h2o\\0,1\O,0,-5.326605,-0.76524,0.921552\H,0,-4.
 368927,-0.731946,0.916673\H,0,-5.609308,0.159837,0.744609\\Version=ES6
 4L-G09RevD.01\State=1-A'\HF=-76.3341747\MP2=-76.4245664\RMSD=4.276e-09
 \PG=CS [SG(H2O1)]\\@

 IF YOU PERCEIVE THAT THERE ARE FOUR POSSIBLE WAYS IN

 Normal termination of Gaussian 09 at Wed Aug 26 09:48:10 2020.
