 Gaussian 09, Revision D.01,
 Gaussian 09:  ES64L-G09RevD.01 24-Apr-2013

 --------------------
 #p B2PLYPD3/Def2QZVP
 --------------------

 ---
 h2o
 ---
 Symbolic Z-matrix:
 Charge =  0 Multiplicity = 1

                         Standard orientation:
 ---------------------------------------------------------------------
 Center     Atomic      Atomic             Coordinates (Angstroms)
 Number     Number       Type             X           Y           Z
 ---------------------------------------------------------------------
      1          8           0        0.000000    0.118118    0.000000
      2          1           0        0.766562   -0.456958    0.000000
      3          1           0       -0.766562   -0.487982    0.000000
 ---------------------------------------------------------------------

 SCF Done:  E(RB2PLYPD3) =  -76.3345166237     A.U. after   10 cycles
 E2(B2PLYPD3) =    -0.9028769684D-01 E(B2PLYPD3) =    -0.76424804320574D+02

 The electronic state is 1-A'.
 Alpha  occ. eigenvalues --  -19.73267  -1.15252  -0.60891  -0.47315  -0.39887
 Alpha virt. eigenvalues --    0.04433   0.10120   0.27568   0.30434   0.30798
 Alpha virt. eigenvalues --    0.35497   0.43731   0.50201   0.56123   0.62152
 Alpha virt. eigenvalues --    0.65851   0.80914   0.93521   0.96122   1.03182

 Mulliken charges:
               1
     1  O   -0.450138
     2  H    0.221064
     3  H    0.229074
 Sum of Mulliken charges =   0.00000

 Dipole moment (field-independent basis, Debye):
    X=              0.0096    Y=             -1.9652    Z=              0.0000  Tot=              1.9652
 Quadrupole moment (field-independent basis, Debye-Ang):
   XX=             -4.3123   YY=             -6.3343   ZZ=             -7.6142
   XY=              0.0513   XZ=              0.0000   YZ=              0.0000

 1\1\GINC-NODE21\SP\RB2PLYPD3-FC\def2QZVP\H2O1\BOITTIER\26-Aug-2020\0\\
 #p B2PLYPD3/Def2QZVP\\h2o\\0,1\O,0,-5.326605,-0.765017,0.920868\H,0,-4
 .368927,-0.73062,0.92069\H,0,-5.609308,0.154941,0.751366\\Version=ES64
 L-G09RevD.01\State=1-A'\HF=-76.3345166\MP2=-76.4248043\RMSD=4.160e-09\
 PG=CS [SG(H2O1)]\\@

 GETTING A SIMPLE ANSWER FROM A PROFESSOR IS LIKE

 Normal termination of Gaussian 09 at Wed Aug 26 08:30:12 2020.
