 Gaussian 09, Revision D.01,
 Gaussian 09:  ES64L-G09RevD.01 24-Apr-2013

 --------------------
 #p B2PLYPD3/Def2QZVP
 --------------------

 ---
 h2o
 ---
 Symbolic Z-matrix:
 Charge =  0 Multiplicity = 1

                         Standard orientation:
 ---------------------------------------------------------------------
 Center     Atomic      Atomic             Coordinates (Angstroms)
 Number     Number       Type             X           Y           Z
 ---------------------------------------------------------------------
      1          8           0        0.000000    0.119889    0.000000
      2          1           0        0.783927   -0.430958    0.000000
      3          1           0       -0.783927   -0.528152    0.000000
 ---------------------------------------------------------------------

 SCF Done:  E(RB2PLYPD3) =  -76.3312420266     A.U. after   10 cycles
 E2(B2PLYPD3) =    -0.9093387401D-01 E(B2PLYPD3) =    -0.76422175900626D+02

 The electronic state is 1-A'.
 Alpha  occ. eigenvalues --  -19.73534  -1.14384  -0.60109  -0.46940  -0.39717
 Alpha virt. eigenvalues --    0.04167   0.09919   0.27661   0.30201   0.30481
 Alpha virt. eigenvalues --    0.34706   0.43283   0.50117   0.55759   0.62162
 Alpha virt. eigenvalues --    0.66280   0.80317   0.92549   0.96521   1.01706

 Mulliken charges:
               1
     1  O   -0.463529
     2  H    0.220595
     3  H    0.242933
 Sum of Mulliken charges =   0.00000

 Dipole moment (field-independent basis, Debye):
    X=              0.0296    Y=             -1.9703    Z=              0.0000  Tot=              1.9705
 Quadrupole moment (field-independent basis, Debye-Ang):
   XX=             -4.2505   YY=             -6.3510   ZZ=             -7.6592
   XY=              0.1636   XZ=              0.0000   YZ=              0.0000

 1\1\GINC-NODE24\SP\RB2PLYPD3-FC\def2QZVP\H2O1\BOITTIER\26-Aug-2020\0\\
 #p B2PLYPD3/Def2QZVP\\h2o\\0,1\O,0,-5.326605,-0.766477,0.919342\H,0,-4
 .368927,-0.748917,0.942099\H,0,-5.609308,0.196599,0.754837\\Version=ES
 64L-G09RevD.01\State=1-A'\HF=-76.331242\MP2=-76.4221759\RMSD=5.237e-09
 \PG=CS [SG(H2O1)]\\@

 TO BEHOLD HARMS OF OUR OWN HANDS DOING,

 Normal termination of Gaussian 09 at Wed Aug 26 08:31:33 2020.
