 Gaussian 09, Revision D.01,
 Gaussian 09:  ES64L-G09RevD.01 24-Apr-2013

 --------------------
 #p B2PLYPD3/Def2QZVP
 --------------------

 ---
 h2o
 ---
 Symbolic Z-matrix:
 Charge =  0 Multiplicity = 1

                         Standard orientation:
 ---------------------------------------------------------------------
 Center     Atomic      Atomic             Coordinates (Angstroms)
 Number     Number       Type             X           Y           Z
 ---------------------------------------------------------------------
      1          8           0        0.000000    0.112068    0.000000
      2          1           0        0.790239   -0.431483    0.000000
      3          1           0       -0.790239   -0.465058    0.000000
 ---------------------------------------------------------------------

 SCF Done:  E(RB2PLYPD3) =  -76.3339821944     A.U. after   10 cycles
 E2(B2PLYPD3) =    -0.9020268556D-01 E(B2PLYPD3) =    -0.76424184879972D+02

 The electronic state is 1-A'.
 Alpha  occ. eigenvalues --  -19.73086  -1.14891  -0.61641  -0.46447  -0.39762
 Alpha virt. eigenvalues --    0.04491   0.10033   0.27492   0.30453   0.31240
 Alpha virt. eigenvalues --    0.34681   0.43675   0.51155   0.55437   0.63525
 Alpha virt. eigenvalues --    0.65793   0.80460   0.93124   0.96302   1.04049

 Mulliken charges:
               1
     1  O   -0.461659
     2  H    0.226645
     3  H    0.235014
 Sum of Mulliken charges =   0.00000

 Dipole moment (field-independent basis, Debye):
    X=              0.0088    Y=             -1.8930    Z=              0.0000  Tot=              1.8931
 Quadrupole moment (field-independent basis, Debye-Ang):
   XX=             -4.1117   YY=             -6.4695   ZZ=             -7.6260
   XY=              0.0594   XZ=              0.0000   YZ=              0.0000

 1\1\GINC-NODE35\SP\RB2PLYPD3-FC\def2QZVP\H2O1\BOITTIER\26-Aug-2020\0\\
 #p B2PLYPD3/Def2QZVP\\h2o\\0,1\O,0,-5.326605,-0.760835,0.920716\H,0,-4
 .368927,-0.80776,0.896697\H,0,-5.609308,0.165166,0.778755\\Version=ES6
 4L-G09RevD.01\State=1-A'\HF=-76.3339822\MP2=-76.4241849\RMSD=3.955e-09
 \PG=CS [SG(H2O1)]\\@

 A MAN IS NEVER SO BRILLIANT AS WHEN HE TAKES THE WORDS RIGHT OUT

 Normal termination of Gaussian 09 at Wed Aug 26 08:02:56 2020.
