 Gaussian 09, Revision D.01,
 Gaussian 09:  ES64L-G09RevD.01 24-Apr-2013

 --------------------
 #p B2PLYPD3/Def2QZVP
 --------------------

 ---
 h2o
 ---
 Symbolic Z-matrix:
 Charge =  0 Multiplicity = 1

                         Standard orientation:
 ---------------------------------------------------------------------
 Center     Atomic      Atomic             Coordinates (Angstroms)
 Number     Number       Type             X           Y           Z
 ---------------------------------------------------------------------
      1          8           0        0.000000    0.118287    0.000000
      2          1           0        0.760900   -0.465143    0.000000
      3          1           0       -0.760900   -0.481151    0.000000
 ---------------------------------------------------------------------

 SCF Done:  E(RB2PLYPD3) =  -76.3348598361     A.U. after   10 cycles
 E2(B2PLYPD3) =    -0.9017039425D-01 E(B2PLYPD3) =    -0.76425030230324D+02

 The electronic state is 1-A'.
 Alpha  occ. eigenvalues --  -19.73226  -1.15469  -0.60980  -0.47465  -0.39933
 Alpha virt. eigenvalues --    0.04473   0.10167   0.27553   0.30423   0.30849
 Alpha virt. eigenvalues --    0.35747   0.43837   0.50145   0.56252   0.62036
 Alpha virt. eigenvalues --    0.65765   0.81051   0.93719   0.96029   1.03407

 Mulliken charges:
               1
     1  O   -0.446172
     2  H    0.220964
     3  H    0.225208
 Sum of Mulliken charges =   0.00000

 Dipole moment (field-independent basis, Debye):
    X=              0.0050    Y=             -1.9702    Z=              0.0000  Tot=              1.9702
 Quadrupole moment (field-independent basis, Debye-Ang):
   XX=             -4.3423   YY=             -6.3180   ZZ=             -7.6042
   XY=              0.0262   XZ=              0.0000   YZ=              0.0000

 1\1\GINC-NODE38\SP\RB2PLYPD3-FC\def2QZVP\H2O1\BOITTIER\26-Aug-2020\0\\
 #p B2PLYPD3/Def2QZVP\\h2o\\0,1\O,0,-5.326605,-0.764671,0.923186\H,0,-4
 .368927,-0.723721,0.900063\H,0,-5.609308,0.142499,0.734996\\Version=ES
 64L-G09RevD.01\State=1-A'\HF=-76.3348598\MP2=-76.4250302\RMSD=4.098e-0
 9\PG=CS [SG(H2O1)]\\@

 EXPERIENCE IS THE FRUIT OF THE TREE OF ERRORS.

 Normal termination of Gaussian 09 at Wed Aug 26 08:31:37 2020.
