 Gaussian 09, Revision D.01,
 Gaussian 09:  ES64L-G09RevD.01 24-Apr-2013

 --------------------
 #p B2PLYPD3/Def2QZVP
 --------------------

 ---
 h2o
 ---
 Symbolic Z-matrix:
 Charge =  0 Multiplicity = 1

                         Standard orientation:
 ---------------------------------------------------------------------
 Center     Atomic      Atomic             Coordinates (Angstroms)
 Number     Number       Type             X           Y           Z
 ---------------------------------------------------------------------
      1          8           0        0.000000    0.121117    0.000000
      2          1           0        0.756602   -0.470712    0.000000
      3          1           0       -0.756602   -0.498227    0.000000
 ---------------------------------------------------------------------

 SCF Done:  E(RB2PLYPD3) =  -76.3343119111     A.U. after   10 cycles
 E2(B2PLYPD3) =    -0.9040360690D-01 E(B2PLYPD3) =    -0.76424715517986D+02

 The electronic state is 1-A'.
 Alpha  occ. eigenvalues --  -19.73378  -1.15336  -0.60436  -0.47701  -0.39928
 Alpha virt. eigenvalues --    0.04378   0.10142   0.27617   0.30430   0.30569
 Alpha virt. eigenvalues --    0.35766   0.43701   0.49810   0.56428   0.61518
 Alpha virt. eigenvalues --    0.65932   0.81004   0.93720   0.96117   1.02688

 Mulliken charges:
               1
     1  O   -0.446529
     2  H    0.219697
     3  H    0.226832
 Sum of Mulliken charges =   0.00000

 Dipole moment (field-independent basis, Debye):
    X=              0.0091    Y=             -1.9990    Z=              0.0000  Tot=              1.9990
 Quadrupole moment (field-independent basis, Debye-Ang):
   XX=             -4.4026   YY=             -6.2716   ZZ=             -7.6135
   XY=              0.0441   XZ=              0.0000   YZ=              0.0000

 1\1\GINC-NODE06\SP\RB2PLYPD3-FC\def2QZVP\H2O1\BOITTIER\26-Aug-2020\0\\
 #p B2PLYPD3/Def2QZVP\\h2o\\0,1\O,0,-5.326605,-0.76587,0.926265\H,0,-4.
 368927,-0.705187,0.882907\H,0,-5.609308,0.143149,0.70311\\Version=ES64
 L-G09RevD.01\State=1-A'\HF=-76.3343119\MP2=-76.4247155\RMSD=4.291e-09\
 PG=CS [SG(H2O1)]\\@

 ... I FELL INTO A REVERIE ... THE ATOMS WERE GAMBOLING BEFORE MY EYES

 Normal termination of Gaussian 09 at Wed Aug 26 11:45:26 2020.
