 Gaussian 09, Revision D.01,
 Gaussian 09:  ES64L-G09RevD.01 24-Apr-2013

 --------------------
 #p B2PLYPD3/Def2QZVP
 --------------------

 ---
 h2o
 ---
 Symbolic Z-matrix:
 Charge =  0 Multiplicity = 1

                         Standard orientation:
 ---------------------------------------------------------------------
 Center     Atomic      Atomic             Coordinates (Angstroms)
 Number     Number       Type             X           Y           Z
 ---------------------------------------------------------------------
      1          8           0        0.000000    0.118025    0.000000
      2          1           0        0.765738   -0.459726    0.000000
      3          1           0       -0.765738   -0.484473    0.000000
 ---------------------------------------------------------------------

 SCF Done:  E(RB2PLYPD3) =  -76.3346387881     A.U. after   10 cycles
 E2(B2PLYPD3) =    -0.9025645551D-01 E(B2PLYPD3) =    -0.76424895243559D+02

 The electronic state is 1-A'.
 Alpha  occ. eigenvalues --  -19.73253  -1.15295  -0.60930  -0.47332  -0.39895
 Alpha virt. eigenvalues --    0.04446   0.10129   0.27563   0.30432   0.30824
 Alpha virt. eigenvalues --    0.35539   0.43754   0.50206   0.56140   0.62153
 Alpha virt. eigenvalues --    0.65829   0.80942   0.93564   0.96100   1.03265

 Mulliken charges:
               1
     1  O   -0.449453
     2  H    0.221514
     3  H    0.227939
 Sum of Mulliken charges =   0.00000

 Dipole moment (field-independent basis, Debye):
    X=              0.0077    Y=             -1.9648    Z=              0.0000  Tot=              1.9648
 Quadrupole moment (field-independent basis, Debye-Ang):
   XX=             -4.3151   YY=             -6.3335   ZZ=             -7.6120
   XY=              0.0409   XZ=              0.0000   YZ=              0.0000

 1\1\GINC-NODE19\SP\RB2PLYPD3-FC\def2QZVP\H2O1\BOITTIER\26-Aug-2020\0\\
 #p B2PLYPD3/Def2QZVP\\h2o\\0,1\O,0,-5.326605,-0.765488,0.917065\H,0,-4
 .368927,-0.724762,0.953728\H,0,-5.609308,0.156613,0.778622\\Version=ES
 64L-G09RevD.01\State=1-A'\HF=-76.3346388\MP2=-76.4248952\RMSD=4.101e-0
 9\PG=CS [SG(H2O1)]\\@

 THEORY:  SUPPOSITION WHICH HAS SCIENTIFIC BASIS,

 Normal termination of Gaussian 09 at Wed Aug 26 09:17:59 2020.
