 Gaussian 09, Revision D.01,
 Gaussian 09:  ES64L-G09RevD.01 24-Apr-2013

 --------------------
 #p B2PLYPD3/Def2QZVP
 --------------------

 ---
 h2o
 ---
 Symbolic Z-matrix:
 Charge =  0 Multiplicity = 1

                         Standard orientation:
 ---------------------------------------------------------------------
 Center     Atomic      Atomic             Coordinates (Angstroms)
 Number     Number       Type             X           Y           Z
 ---------------------------------------------------------------------
      1          8           0        0.000000    0.112298    0.000000
      2          1           0        0.767969   -0.464933    0.000000
      3          1           0       -0.767969   -0.433453    0.000000
 ---------------------------------------------------------------------

 SCF Done:  E(RB2PLYPD3) =  -76.3350212010     A.U. after   10 cycles
 E2(B2PLYPD3) =    -0.8967626701D-01 E(B2PLYPD3) =    -0.76424697468025D+02

 The electronic state is 1-A'.
 Alpha  occ. eigenvalues --  -19.72887  -1.15817  -0.62168  -0.46989  -0.39956
 Alpha virt. eigenvalues --    0.04668   0.10223   0.27419   0.30402   0.31404
 Alpha virt. eigenvalues --    0.35716   0.44177   0.50924   0.55896   0.63156
 Alpha virt. eigenvalues --    0.65382   0.81132   0.93758   0.95876   1.04961

 Mulliken charges:
               1
     1  O   -0.443571
     2  H    0.226176
     3  H    0.217395
 Sum of Mulliken charges =   0.00000

 Dipole moment (field-independent basis, Debye):
    X=             -0.0088    Y=             -1.9087    Z=              0.0000  Tot=              1.9087
 Quadrupole moment (field-independent basis, Debye-Ang):
   XX=             -4.2260   YY=             -6.4082   ZZ=             -7.5825
   XY=             -0.0538   XZ=              0.0000   YZ=              0.0000

 1\1\GINC-NODE35\SP\RB2PLYPD3-FC\def2QZVP\H2O1\BOITTIER\26-Aug-2020\0\\
 #p B2PLYPD3/Def2QZVP\\h2o\\0,1\O,0,-5.326605,-0.759834,0.92555\H,0,-4.
 368927,-0.779418,0.851787\H,0,-5.609308,0.120799,0.746149\\Version=ES6
 4L-G09RevD.01\State=1-A'\HF=-76.3350212\MP2=-76.4246975\RMSD=4.146e-09
 \PG=CS [SG(H2O1)]\\@

 The earth never tires,

 Normal termination of Gaussian 09 at Wed Aug 26 08:15:21 2020.
