 Gaussian 09, Revision D.01,
 Gaussian 09:  ES64L-G09RevD.01 24-Apr-2013

 --------------------
 #p B2PLYPD3/Def2QZVP
 --------------------

 ---
 h2o
 ---
 Symbolic Z-matrix:
 Charge =  0 Multiplicity = 1

                         Standard orientation:
 ---------------------------------------------------------------------
 Center     Atomic      Atomic             Coordinates (Angstroms)
 Number     Number       Type             X           Y           Z
 ---------------------------------------------------------------------
      1          8           0        0.000000    0.119288    0.000000
      2          1           0        0.761517   -0.466755    0.000000
      3          1           0       -0.761517   -0.487553    0.000000
 ---------------------------------------------------------------------

 SCF Done:  E(RB2PLYPD3) =  -76.3346005322     A.U. after   10 cycles
 E2(B2PLYPD3) =    -0.9030210407D-01 E(B2PLYPD3) =    -0.76424902636264D+02

 The electronic state is 1-A'.
 Alpha  occ. eigenvalues --  -19.73299  -1.15333  -0.60741  -0.47497  -0.39913
 Alpha virt. eigenvalues --    0.04424   0.10139   0.27583   0.30430   0.30730
 Alpha virt. eigenvalues --    0.35658   0.43742   0.50036   0.56270   0.61883
 Alpha virt. eigenvalues --    0.65863   0.80985   0.93649   0.96093   1.03059

 Mulliken charges:
               1
     1  O   -0.447888
     2  H    0.221238
     3  H    0.226650
 Sum of Mulliken charges =   0.00000

 Dipole moment (field-independent basis, Debye):
    X=              0.0066    Y=             -1.9792    Z=              0.0000  Tot=              1.9792
 Quadrupole moment (field-independent basis, Debye-Ang):
   XX=             -4.3532   YY=             -6.3072   ZZ=             -7.6116
   XY=              0.0339   XZ=              0.0000   YZ=              0.0000

 1\1\GINC-NODE01\SP\RB2PLYPD3-FC\def2QZVP\H2O1\BOITTIER\26-Aug-2020\0\\
 #p B2PLYPD3/Def2QZVP\\h2o\\0,1\O,0,-5.326605,-0.766456,0.915867\H,0,-4
 .368927,-0.708347,0.969076\H,0,-5.609308,0.155685,0.782078\\Version=ES
 64L-G09RevD.01\State=1-A'\HF=-76.3346005\MP2=-76.4249026\RMSD=4.137e-0
 9\PG=CS [SG(H2O1)]\\@

 We make a living by what we get,

 Normal termination of Gaussian 09 at Wed Aug 26 11:34:37 2020.
