 Gaussian 09, Revision D.01,
 Gaussian 09:  ES64L-G09RevD.01 24-Apr-2013

 --------------------
 #p B2PLYPD3/Def2QZVP
 --------------------

 ---
 h2o
 ---
 Symbolic Z-matrix:
 Charge =  0 Multiplicity = 1

                         Standard orientation:
 ---------------------------------------------------------------------
 Center     Atomic      Atomic             Coordinates (Angstroms)
 Number     Number       Type             X           Y           Z
 ---------------------------------------------------------------------
      1          8           0        0.000000    0.119308    0.000000
      2          1           0        0.751602   -0.478001    0.000000
      3          1           0       -0.751602   -0.476462    0.000000
 ---------------------------------------------------------------------

 SCF Done:  E(RB2PLYPD3) =  -76.3349889852     A.U. after   10 cycles
 E2(B2PLYPD3) =    -0.9006976329D-01 E(B2PLYPD3) =    -0.76425058748463D+02

 The electronic state is 1-A'.
 Alpha  occ. eigenvalues --  -19.73207  -1.15749  -0.60951  -0.47743  -0.39996
 Alpha virt. eigenvalues --    0.04498   0.10228   0.27546   0.30409   0.30829
 Alpha virt. eigenvalues --    0.36115   0.43956   0.49980   0.56482   0.61728
 Alpha virt. eigenvalues --    0.65687   0.81215   0.93983   0.95923   1.03496

 Mulliken charges:
               1
     1  O   -0.440526
     2  H    0.220474
     3  H    0.220052
 Sum of Mulliken charges =   0.00000

 Dipole moment (field-independent basis, Debye):
    X=             -0.0005    Y=             -1.9852    Z=              0.0000  Tot=              1.9852
 Quadrupole moment (field-independent basis, Debye-Ang):
   XX=             -4.4014   YY=             -6.2815   ZZ=             -7.5926
   XY=             -0.0025   XZ=              0.0000   YZ=              0.0000

 1\1\GINC-NODE31\SP\RB2PLYPD3-FC\def2QZVP\H2O1\BOITTIER\26-Aug-2020\0\\
 #p B2PLYPD3/Def2QZVP\\h2o\\0,1\O,0,-5.326605,-0.765527,0.922456\H,0,-4
 .368927,-0.699171,0.910919\H,0,-5.609308,0.131642,0.735337\\Version=ES
 64L-G09RevD.01\State=1-A'\HF=-76.334989\MP2=-76.4250587\RMSD=4.212e-09
 \PG=CS [SG(H2O1)]\\@

 ... FOR AFTERWARDS A MAN FINDS PLEASURE IN HIS PAINS,

 Normal termination of Gaussian 09 at Wed Aug 26 10:50:58 2020.
