 Gaussian 09, Revision D.01,
 Gaussian 09:  ES64L-G09RevD.01 24-Apr-2013

 --------------------
 #p B2PLYPD3/Def2QZVP
 --------------------

 ---
 h2o
 ---
 Symbolic Z-matrix:
 Charge =  0 Multiplicity = 1

                         Standard orientation:
 ---------------------------------------------------------------------
 Center     Atomic      Atomic             Coordinates (Angstroms)
 Number     Number       Type             X           Y           Z
 ---------------------------------------------------------------------
      1          8           0        0.000000    0.114532    0.000000
      2          1           0        0.759977   -0.478161    0.000000
      3          1           0       -0.759977   -0.438093    0.000000
 ---------------------------------------------------------------------

 SCF Done:  E(RB2PLYPD3) =  -76.3349923858     A.U. after   10 cycles
 E2(B2PLYPD3) =    -0.8972720934D-01 E(B2PLYPD3) =    -0.76424719595135D+02

 The electronic state is 1-A'.
 Alpha  occ. eigenvalues --  -19.72959  -1.15926  -0.61856  -0.47294  -0.39994
 Alpha virt. eigenvalues --    0.04633   0.10251   0.27444   0.30398   0.31224
 Alpha virt. eigenvalues --    0.35997   0.44184   0.50583   0.56135   0.62654
 Alpha virt. eigenvalues --    0.65419   0.81247   0.93864   0.95833   1.04536

 Mulliken charges:
               1
     1  O   -0.440022
     2  H    0.225657
     3  H    0.214365
 Sum of Mulliken charges =   0.00000

 Dipole moment (field-independent basis, Debye):
    X=             -0.0119    Y=             -1.9349    Z=              0.0000  Tot=              1.9350
 Quadrupole moment (field-independent basis, Debye-Ang):
   XX=             -4.2952   YY=             -6.3601   ZZ=             -7.5799
   XY=             -0.0669   XZ=              0.0000   YZ=              0.0000

 1\1\GINC-NODE01\SP\RB2PLYPD3-FC\def2QZVP\H2O1\BOITTIER\26-Aug-2020\0\\
 #p B2PLYPD3/Def2QZVP\\h2o\\0,1\O,0,-5.326605,-0.760119,0.929577\H,0,-4
 .368927,-0.763323,0.821441\H,0,-5.609308,0.109266,0.712301\\Version=ES
 64L-G09RevD.01\State=1-A'\HF=-76.3349924\MP2=-76.4247196\RMSD=4.382e-0
 9\PG=CS [SG(H2O1)]\\@

 AS FAR AS THE LAWS OF MATHEMATICS REFER TO REALITY,

 Normal termination of Gaussian 09 at Wed Aug 26 08:52:26 2020.
