 Gaussian 09, Revision D.01,
 Gaussian 09:  ES64L-G09RevD.01 24-Apr-2013

 --------------------
 #p B2PLYPD3/Def2QZVP
 --------------------

 ---
 h2o
 ---
 Symbolic Z-matrix:
 Charge =  0 Multiplicity = 1

                         Standard orientation:
 ---------------------------------------------------------------------
 Center     Atomic      Atomic             Coordinates (Angstroms)
 Number     Number       Type             X           Y           Z
 ---------------------------------------------------------------------
      1          8           0        0.000000    0.118569    0.000000
      2          1           0        0.787588   -0.427695    0.000000
      3          1           0       -0.787588   -0.520856    0.000000
 ---------------------------------------------------------------------

 SCF Done:  E(RB2PLYPD3) =  -76.3314623695     A.U. after   10 cycles
 E2(B2PLYPD3) =    -0.9086989596D-01 E(B2PLYPD3) =    -0.76422332265418D+02

 The electronic state is 1-A'.
 Alpha  occ. eigenvalues --  -19.73481  -1.14370  -0.60305  -0.46795  -0.39703
 Alpha virt. eigenvalues --    0.04198   0.09917   0.27638   0.30332   0.30483
 Alpha virt. eigenvalues --    0.34609   0.43296   0.50304   0.55651   0.62424
 Alpha virt. eigenvalues --    0.66241   0.80269   0.92545   0.96517   1.01920

 Mulliken charges:
               1
     1  O   -0.465042
     2  H    0.221799
     3  H    0.243243
 Sum of Mulliken charges =   0.00000

 Dipole moment (field-independent basis, Debye):
    X=              0.0275    Y=             -1.9559    Z=              0.0000  Tot=              1.9561
 Quadrupole moment (field-independent basis, Debye-Ang):
   XX=             -4.2139   YY=             -6.3774   ZZ=             -7.6585
   XY=              0.1587   XZ=              0.0000   YZ=              0.0000

 1\1\GINC-NODE11\SP\RB2PLYPD3-FC\def2QZVP\H2O1\BOITTIER\26-Aug-2020\0\\
 #p B2PLYPD3/Def2QZVP\\h2o\\0,1\O,0,-5.326605,-0.765859,0.917104\H,0,-4
 .368927,-0.760438,0.956133\H,0,-5.609308,0.198226,0.776468\\Version=ES
 64L-G09RevD.01\State=1-A'\HF=-76.3314624\MP2=-76.4223323\RMSD=5.171e-0
 9\PG=CS [SG(H2O1)]\\@

 NEVER LISTEN TO CRITICISM

 Normal termination of Gaussian 09 at Wed Aug 26 12:18:10 2020.
