 Gaussian 09, Revision D.01,
 Gaussian 09:  ES64L-G09RevD.01 24-Apr-2013

 --------------------
 #p B2PLYPD3/Def2QZVP
 --------------------

 ---
 h2o
 ---
 Symbolic Z-matrix:
 Charge =  0 Multiplicity = 1

                         Standard orientation:
 ---------------------------------------------------------------------
 Center     Atomic      Atomic             Coordinates (Angstroms)
 Number     Number       Type             X           Y           Z
 ---------------------------------------------------------------------
      1          8           0        0.000000    0.114616    0.000000
      2          1           0        0.782606   -0.437613    0.000000
      3          1           0       -0.782606   -0.479316    0.000000
 ---------------------------------------------------------------------

 SCF Done:  E(RB2PLYPD3) =  -76.3340666194     A.U. after   10 cycles
 E2(B2PLYPD3) =    -0.9028742384D-01 E(B2PLYPD3) =    -0.76424354043253D+02

 The electronic state is 1-A'.
 Alpha  occ. eigenvalues --  -19.73182  -1.14954  -0.61282  -0.46754  -0.39796
 Alpha virt. eigenvalues --    0.04449   0.10050   0.27530   0.30450   0.31013
 Alpha virt. eigenvalues --    0.34937   0.43656   0.50751   0.55673   0.62978
 Alpha virt. eigenvalues --    0.65848   0.80611   0.93181   0.96251   1.03536

 Mulliken charges:
               1
     1  O   -0.458277
     2  H    0.223920
     3  H    0.234357
 Sum of Mulliken charges =   0.00000

 Dipole moment (field-independent basis, Debye):
    X=              0.0117    Y=             -1.9223    Z=              0.0000  Tot=              1.9223
 Quadrupole moment (field-independent basis, Debye-Ang):
   XX=             -4.1847   YY=             -6.4183   ZZ=             -7.6252
   XY=              0.0720   XZ=              0.0000   YZ=              0.0000

 1\1\GINC-NODE13\SP\RB2PLYPD3-FC\def2QZVP\H2O1\BOITTIER\26-Aug-2020\0\\
 #p B2PLYPD3/Def2QZVP\\h2o\\0,1\O,0,-5.326605,-0.762998,0.918344\H,0,-4
 .368927,-0.776276,0.928637\H,0,-5.609308,0.168287,0.784123\\Version=ES
 64L-G09RevD.01\State=1-A'\HF=-76.3340666\MP2=-76.424354\RMSD=4.147e-09
 \PG=CS [SG(H2O1)]\\@

 If fifty million people say a stupid thing,

 Normal termination of Gaussian 09 at Wed Aug 26 12:23:46 2020.
