 Gaussian 09, Revision D.01,
 Gaussian 09:  ES64L-G09RevD.01 24-Apr-2013

 --------------------
 #p B2PLYPD3/Def2QZVP
 --------------------

 ---
 h2o
 ---
 Symbolic Z-matrix:
 Charge =  0 Multiplicity = 1

                         Standard orientation:
 ---------------------------------------------------------------------
 Center     Atomic      Atomic             Coordinates (Angstroms)
 Number     Number       Type             X           Y           Z
 ---------------------------------------------------------------------
      1          8           0        0.000000    0.117117    0.000000
      2          1           0        0.773551   -0.448009    0.000000
      3          1           0       -0.773551   -0.488929    0.000000
 ---------------------------------------------------------------------

 SCF Done:  E(RB2PLYPD3) =  -76.3342043729     A.U. after   10 cycles
 E2(B2PLYPD3) =    -0.9034375070D-01 E(B2PLYPD3) =    -0.76424548123625D+02

 The electronic state is 1-A'.
 Alpha  occ. eigenvalues --  -19.73264  -1.15070  -0.60951  -0.47094  -0.39841
 Alpha virt. eigenvalues --    0.04418   0.10079   0.27565   0.30444   0.30824
 Alpha virt. eigenvalues --    0.35234   0.43662   0.50368   0.55941   0.62424
 Alpha virt. eigenvalues --    0.65890   0.80771   0.93325   0.96197   1.03158

 Mulliken charges:
               1
     1  O   -0.454130
     2  H    0.221892
     3  H    0.232238
 Sum of Mulliken charges =   0.00000

 Dipole moment (field-independent basis, Debye):
    X=              0.0122    Y=             -1.9515    Z=              0.0000  Tot=              1.9516
 Quadrupole moment (field-independent basis, Debye-Ang):
   XX=             -4.2641   YY=             -6.3642   ZZ=             -7.6219
   XY=              0.0688   XZ=              0.0000   YZ=              0.0000

 1\1\GINC-NODE25\SP\RB2PLYPD3-FC\def2QZVP\H2O1\BOITTIER\26-Aug-2020\0\\
 #p B2PLYPD3/Def2QZVP\\h2o\\0,1\O,0,-5.326605,-0.764656,0.918819\H,0,-4
 .368927,-0.746107,0.934862\H,0,-5.609308,0.164644,0.769979\\Version=ES
 64L-G09RevD.01\State=1-A'\HF=-76.3342044\MP2=-76.4245481\RMSD=4.215e-0
 9\PG=CS [SG(H2O1)]\\@

 FESTINA LENTE!

 Normal termination of Gaussian 09 at Wed Aug 26 10:09:55 2020.
