 Gaussian 09, Revision D.01,
 Gaussian 09:  ES64L-G09RevD.01 24-Apr-2013

 --------------------
 #p B2PLYPD3/Def2QZVP
 --------------------

 ---
 h2o
 ---
 Symbolic Z-matrix:
 Charge =  0 Multiplicity = 1

                         Standard orientation:
 ---------------------------------------------------------------------
 Center     Atomic      Atomic             Coordinates (Angstroms)
 Number     Number       Type             X           Y           Z
 ---------------------------------------------------------------------
      1          8           0        0.000000    0.118548    0.000000
      2          1           0        0.763447   -0.462197    0.000000
      3          1           0       -0.763447   -0.486185    0.000000
 ---------------------------------------------------------------------

 SCF Done:  E(RB2PLYPD3) =  -76.3346467013     A.U. after   10 cycles
 E2(B2PLYPD3) =    -0.9026202366D-01 E(B2PLYPD3) =    -0.76424908724938D+02

 The electronic state is 1-A'.
 Alpha  occ. eigenvalues --  -19.73267  -1.15334  -0.60865  -0.47413  -0.39907
 Alpha virt. eigenvalues --    0.04441   0.10139   0.27569   0.30430   0.30789
 Alpha virt. eigenvalues --    0.35614   0.43761   0.50131   0.56205   0.62033
 Alpha virt. eigenvalues --    0.65833   0.80974   0.93614   0.96088   1.03200

 Mulliken charges:
               1
     1  O   -0.448382
     2  H    0.221065
     3  H    0.227317
 Sum of Mulliken charges =   0.00000

 Dipole moment (field-independent basis, Debye):
    X=              0.0075    Y=             -1.9711    Z=              0.0000  Tot=              1.9711
 Quadrupole moment (field-independent basis, Debye-Ang):
   XX=             -4.3335   YY=             -6.3212   ZZ=             -7.6108
   XY=              0.0394   XZ=              0.0000   YZ=              0.0000

 1\1\GINC-NODE40\SP\RB2PLYPD3-FC\def2QZVP\H2O1\BOITTIER\26-Aug-2020\0\\
 #p B2PLYPD3/Def2QZVP\\h2o\\0,1\O,0,-5.326605,-0.765709,0.918228\H,0,-4
 .368927,-0.718714,0.94581\H,0,-5.609308,0.154106,0.767986\\Version=ES6
 4L-G09RevD.01\State=1-A'\HF=-76.3346467\MP2=-76.4249087\RMSD=4.129e-09
 \PG=CS [SG(H2O1)]\\@

 HERE WE GO......

 Normal termination of Gaussian 09 at Wed Aug 26 12:41:57 2020.
