 Gaussian 09, Revision D.01,
 Gaussian 09:  ES64L-G09RevD.01 24-Apr-2013

 --------------------
 #p B2PLYPD3/Def2QZVP
 --------------------

 ---
 h2o
 ---
 Symbolic Z-matrix:
 Charge =  0 Multiplicity = 1

                         Standard orientation:
 ---------------------------------------------------------------------
 Center     Atomic      Atomic             Coordinates (Angstroms)
 Number     Number       Type             X           Y           Z
 ---------------------------------------------------------------------
      1          8           0        0.000000    0.115013    0.000000
      2          1           0        0.775738   -0.446650    0.000000
      3          1           0       -0.775738   -0.473452    0.000000
 ---------------------------------------------------------------------

 SCF Done:  E(RB2PLYPD3) =  -76.3346182492     A.U. after   10 cycles
 E2(B2PLYPD3) =    -0.9015948612D-01 E(B2PLYPD3) =    -0.76424777735360D+02

 The electronic state is 1-A'.
 Alpha  occ. eigenvalues --  -19.73145  -1.15197  -0.61365  -0.46942  -0.39851
 Alpha virt. eigenvalues --    0.04494   0.10104   0.27518   0.30437   0.31058
 Alpha virt. eigenvalues --    0.35229   0.43773   0.50642   0.55833   0.62805
 Alpha virt. eigenvalues --    0.65755   0.80804   0.93400   0.96136   1.03785

 Mulliken charges:
               1
     1  O   -0.453493
     2  H    0.223291
     3  H    0.230201
 Sum of Mulliken charges =   0.00000

 Dipole moment (field-independent basis, Debye):
    X=              0.0077    Y=             -1.9303    Z=              0.0000  Tot=              1.9303
 Quadrupole moment (field-independent basis, Debye-Ang):
   XX=             -4.2244   YY=             -6.3963   ZZ=             -7.6138
   XY=              0.0457   XZ=              0.0000   YZ=              0.0000

 1\1\GINC-NODE12\SP\RB2PLYPD3-FC\def2QZVP\H2O1\BOITTIER\26-Aug-2020\0\\
 #p B2PLYPD3/Def2QZVP\\h2o\\0,1\O,0,-5.326605,-0.762944,0.920462\H,0,-4
 .368927,-0.765012,0.911378\H,0,-5.609308,0.156159,0.767528\\Version=ES
 64L-G09RevD.01\State=1-A'\HF=-76.3346182\MP2=-76.4247777\RMSD=3.984e-0
 9\PG=CS [SG(H2O1)]\\@

 I do not feel obliged to believe that the same God who

 Normal termination of Gaussian 09 at Wed Aug 26 11:44:33 2020.
