 Gaussian 09, Revision D.01,
 Gaussian 09:  ES64L-G09RevD.01 24-Apr-2013

 --------------------
 #p B2PLYPD3/Def2QZVP
 --------------------

 ---
 h2o
 ---
 Symbolic Z-matrix:
 Charge =  0 Multiplicity = 1

                         Standard orientation:
 ---------------------------------------------------------------------
 Center     Atomic      Atomic             Coordinates (Angstroms)
 Number     Number       Type             X           Y           Z
 ---------------------------------------------------------------------
      1          8           0        0.000000    0.118675    0.000000
      2          1           0        0.779488   -0.438795    0.000000
      3          1           0       -0.779488   -0.510603    0.000000
 ---------------------------------------------------------------------

 SCF Done:  E(RB2PLYPD3) =  -76.3327664618     A.U. after   10 cycles
 E2(B2PLYPD3) =    -0.9067455871D-01 E(B2PLYPD3) =    -0.76423441020489D+02

 The electronic state is 1-A'.
 Alpha  occ. eigenvalues --  -19.73419  -1.14674  -0.60472  -0.47010  -0.39770
 Alpha virt. eigenvalues --    0.04282   0.09990   0.27622   0.30466   0.30501
 Alpha virt. eigenvalues --    0.34916   0.43437   0.50227   0.55843   0.62273
 Alpha virt. eigenvalues --    0.66116   0.80519   0.92925   0.96383   1.02313

 Mulliken charges:
               1
     1  O   -0.459738
     2  H    0.221268
     3  H    0.238470
 Sum of Mulliken charges =   0.00000

 Dipole moment (field-independent basis, Debye):
    X=              0.0217    Y=             -1.9622    Z=              0.0000  Tot=              1.9623
 Quadrupole moment (field-independent basis, Debye-Ang):
   XX=             -4.2560   YY=             -6.3578   ZZ=             -7.6430
   XY=              0.1208   XZ=              0.0000   YZ=              0.0000

 1\1\GINC-NODE37\SP\RB2PLYPD3-FC\def2QZVP\H2O1\BOITTIER\26-Aug-2020\0\\
 #p B2PLYPD3/Def2QZVP\\h2o\\0,1\O,0,-5.326605,-0.76581,0.918149\H,0,-4.
 368927,-0.746513,0.947379\H,0,-5.609308,0.183517,0.768316\\Version=ES6
 4L-G09RevD.01\State=1-A'\HF=-76.3327665\MP2=-76.423441\RMSD=4.723e-09\
 PG=CS [SG(H2O1)]\\@

 THE WISE MAN HAS THE POWER TO REASON AWAY

 Normal termination of Gaussian 09 at Wed Aug 26 11:25:30 2020.
