 Gaussian 09, Revision D.01,
 Gaussian 09:  ES64L-G09RevD.01 24-Apr-2013

 --------------------
 #p B2PLYPD3/Def2QZVP
 --------------------

 ---
 h2o
 ---
 Symbolic Z-matrix:
 Charge =  0 Multiplicity = 1

                         Standard orientation:
 ---------------------------------------------------------------------
 Center     Atomic      Atomic             Coordinates (Angstroms)
 Number     Number       Type             X           Y           Z
 ---------------------------------------------------------------------
      1          8           0        0.000000    0.112990    0.000000
      2          1           0        0.786916   -0.433903    0.000000
      3          1           0       -0.786916   -0.470019    0.000000
 ---------------------------------------------------------------------

 SCF Done:  E(RB2PLYPD3) =  -76.3340809713     A.U. after   10 cycles
 E2(B2PLYPD3) =    -0.9021774182D-01 E(B2PLYPD3) =    -0.76424298713160D+02

 The electronic state is 1-A'.
 Alpha  occ. eigenvalues --  -19.73116  -1.14938  -0.61527  -0.46572  -0.39780
 Alpha virt. eigenvalues --    0.04482   0.10045   0.27504   0.30451   0.31164
 Alpha virt. eigenvalues --    0.34801   0.43681   0.51000   0.55534   0.63318
 Alpha virt. eigenvalues --    0.65800   0.80537   0.93161   0.96269   1.03889

 Mulliken charges:
               1
     1  O   -0.459963
     2  H    0.225460
     3  H    0.234503
 Sum of Mulliken charges =   0.00000

 Dipole moment (field-independent basis, Debye):
    X=              0.0097    Y=             -1.9040    Z=              0.0000  Tot=              1.9041
 Quadrupole moment (field-independent basis, Debye-Ang):
   XX=             -4.1410   YY=             -6.4496   ZZ=             -7.6245
   XY=              0.0632   XZ=              0.0000   YZ=              0.0000

 1\1\GINC-NODE15\SP\RB2PLYPD3-FC\def2QZVP\H2O1\BOITTIER\26-Aug-2020\0\\
 #p B2PLYPD3/Def2QZVP\\h2o\\0,1\O,0,-5.326605,-0.762042,0.916916\H,0,-4
 .368927,-0.791767,0.934179\H,0,-5.609308,0.168481,0.801411\\Version=ES
 64L-G09RevD.01\State=1-A'\HF=-76.334081\MP2=-76.4242987\RMSD=4.020e-09
 \PG=CS [SG(H2O1)]\\@

 DO YOU KNOW THAT THE LETTERS IN "EPISCOPAL", WHEN

 Normal termination of Gaussian 09 at Wed Aug 26 08:32:54 2020.
