 Gaussian 09, Revision D.01,
 Gaussian 09:  ES64L-G09RevD.01 24-Apr-2013

 --------------------
 #p B2PLYPD3/Def2QZVP
 --------------------

 ---
 h2o
 ---
 Symbolic Z-matrix:
 Charge =  0 Multiplicity = 1

                         Standard orientation:
 ---------------------------------------------------------------------
 Center     Atomic      Atomic             Coordinates (Angstroms)
 Number     Number       Type             X           Y           Z
 ---------------------------------------------------------------------
      1          8           0        0.000000    0.125471    0.000000
      2          1           0        0.715601   -0.533460    0.000000
      3          1           0       -0.715601   -0.470305    0.000000
 ---------------------------------------------------------------------

 SCF Done:  E(RB2PLYPD3) =  -76.3327029985     A.U. after   10 cycles
 E2(B2PLYPD3) =    -0.9002270084D-01 E(B2PLYPD3) =    -0.76422725699322D+02

 The electronic state is 1-A'.
 Alpha  occ. eigenvalues --  -19.73289  -1.16583  -0.60203  -0.48910  -0.40196
 Alpha virt. eigenvalues --    0.04428   0.10405   0.27577   0.30371   0.30436
 Alpha virt. eigenvalues --    0.37210   0.44266   0.49308   0.57401   0.60268
 Alpha virt. eigenvalues --    0.65531   0.81474   0.94809   0.95724   1.03113

 Mulliken charges:
               1
     1  O   -0.422413
     2  H    0.220646
     3  H    0.201768
 Sum of Mulliken charges =   0.00000

 Dipole moment (field-independent basis, Debye):
    X=             -0.0243    Y=             -2.0618    Z=              0.0000  Tot=              2.0619
 Quadrupole moment (field-independent basis, Debye-Ang):
   XX=             -4.6565   YY=             -6.1097   ZZ=             -7.5658
   XY=             -0.0923   XZ=              0.0000   YZ=              0.0000

 1\1\GINC-NODE24\SP\RB2PLYPD3-FC\def2QZVP\H2O1\BOITTIER\26-Aug-2020\0\\
 #p B2PLYPD3/Def2QZVP\\h2o\\0,1\O,0,-5.326605,-0.768469,0.927606\H,0,-4
 .368927,-0.602625,0.88732\H,0,-5.609308,0.082177,0.675587\\Version=ES6
 4L-G09RevD.01\State=1-A'\HF=-76.332703\MP2=-76.4227257\RMSD=5.572e-09\
 PG=CS [SG(H2O1)]\\@

 THERE'S SMALL CHOICE IN A BOWL OF ROTTEN APPLES.

 Normal termination of Gaussian 09 at Wed Aug 26 08:35:49 2020.
