 Gaussian 09, Revision D.01,
 Gaussian 09:  ES64L-G09RevD.01 24-Apr-2013

 --------------------
 #p B2PLYPD3/Def2QZVP
 --------------------

 ---
 h2o
 ---
 Symbolic Z-matrix:
 Charge =  0 Multiplicity = 1

                         Standard orientation:
 ---------------------------------------------------------------------
 Center     Atomic      Atomic             Coordinates (Angstroms)
 Number     Number       Type             X           Y           Z
 ---------------------------------------------------------------------
      1          8           0        0.000000    0.115850    0.000000
      2          1           0        0.747438   -0.488002    0.000000
      3          1           0       -0.747438   -0.438795    0.000000
 ---------------------------------------------------------------------

 SCF Done:  E(RB2PLYPD3) =  -76.3347311877     A.U. after   10 cycles
 E2(B2PLYPD3) =    -0.8957931482D-01 E(B2PLYPD3) =    -0.76424310502467D+02

 The electronic state is 1-A'.
 Alpha  occ. eigenvalues --  -19.72924  -1.16332  -0.61843  -0.47665  -0.40083
 Alpha virt. eigenvalues --    0.04663   0.10333   0.27426   0.30378   0.31176
 Alpha virt. eigenvalues --    0.36519   0.44375   0.50344   0.56434   0.62244
 Alpha virt. eigenvalues --    0.65301   0.81477   0.94146   0.95679   1.04615

 Mulliken charges:
               1
     1  O   -0.431525
     2  H    0.223026
     3  H    0.208498
 Sum of Mulliken charges =   0.00000

 Dipole moment (field-independent basis, Debye):
    X=             -0.0154    Y=             -1.9548    Z=              0.0000  Tot=              1.9548
 Quadrupole moment (field-independent basis, Debye-Ang):
   XX=             -4.3735   YY=             -6.3107   ZZ=             -7.5633
   XY=             -0.0800   XZ=              0.0000   YZ=              0.0000

 1\1\GINC-NODE13\SP\RB2PLYPD3-FC\def2QZVP\H2O1\BOITTIER\26-Aug-2020\0\\
 #p B2PLYPD3/Def2QZVP\\h2o\\0,1\O,0,-5.326605,-0.762104,0.926462\H,0,-4
 .368927,-0.723665,0.858085\H,0,-5.609308,0.10138,0.724549\\Version=ES6
 4L-G09RevD.01\State=1-A'\HF=-76.3347312\MP2=-76.4243105\RMSD=4.739e-09
 \PG=CS [SG(H2O1)]\\@

 NOTHING RESEMBLES A NEW PHENOMENON AS MUCH AS A MISTAKE.

 Normal termination of Gaussian 09 at Wed Aug 26 11:18:11 2020.
