 Gaussian 09, Revision D.01,
 Gaussian 09:  ES64L-G09RevD.01 24-Apr-2013

 --------------------
 #p B2PLYPD3/Def2QZVP
 --------------------

 ---
 h2o
 ---
 Symbolic Z-matrix:
 Charge =  0 Multiplicity = 1

                         Standard orientation:
 ---------------------------------------------------------------------
 Center     Atomic      Atomic             Coordinates (Angstroms)
 Number     Number       Type             X           Y           Z
 ---------------------------------------------------------------------
      1          8           0        0.000000    0.114571    0.000000
      2          1           0        0.758428   -0.470888    0.000000
      3          1           0       -0.758428   -0.445681    0.000000
 ---------------------------------------------------------------------

 SCF Done:  E(RB2PLYPD3) =  -76.3351802117     A.U. after   10 cycles
 E2(B2PLYPD3) =    -0.8969224869D-01 E(B2PLYPD3) =    -0.76424872460426D+02

 The electronic state is 1-A'.
 Alpha  occ. eigenvalues --  -19.72948  -1.15986  -0.61884  -0.47339  -0.40007
 Alpha virt. eigenvalues --    0.04648   0.10263   0.27440   0.30395   0.31254
 Alpha virt. eigenvalues --    0.36066   0.44209   0.50565   0.56175   0.62618
 Alpha virt. eigenvalues --    0.65398   0.81289   0.93939   0.95795   1.04685

 Mulliken charges:
               1
     1  O   -0.438949
     2  H    0.223053
     3  H    0.215896
 Sum of Mulliken charges =   0.00000

 Dipole moment (field-independent basis, Debye):
    X=             -0.0075    Y=             -1.9363    Z=              0.0000  Tot=              1.9363
 Quadrupole moment (field-independent basis, Debye-Ang):
   XX=             -4.3033   YY=             -6.3562   ZZ=             -7.5769
   XY=             -0.0420   XZ=              0.0000   YZ=              0.0000

 1\1\GINC-NODE23\SP\RB2PLYPD3-FC\def2QZVP\H2O1\BOITTIER\26-Aug-2020\0\\
 #p B2PLYPD3/Def2QZVP\\h2o\\0,1\O,0,-5.326605,-0.762936,0.918515\H,0,-4
 .368927,-0.735265,0.926442\H,0,-5.609308,0.126291,0.782683\\Version=ES
 64L-G09RevD.01\State=1-A'\HF=-76.3351802\MP2=-76.4248725\RMSD=4.190e-0
 9\PG=CS [SG(H2O1)]\\@

 HERE WE GO......

 Normal termination of Gaussian 09 at Wed Aug 26 08:38:16 2020.
