 Gaussian 09, Revision D.01,
 Gaussian 09:  ES64L-G09RevD.01 24-Apr-2013

 --------------------
 #p B2PLYPD3/Def2QZVP
 --------------------

 ---
 h2o
 ---
 Symbolic Z-matrix:
 Charge =  0 Multiplicity = 1

                         Standard orientation:
 ---------------------------------------------------------------------
 Center     Atomic      Atomic             Coordinates (Angstroms)
 Number     Number       Type             X           Y           Z
 ---------------------------------------------------------------------
      1          8           0        0.000000    0.116873    0.000000
      2          1           0        0.745196   -0.488081    0.000000
      3          1           0       -0.745196   -0.446900    0.000000
 ---------------------------------------------------------------------

 SCF Done:  E(RB2PLYPD3) =  -76.3348395728     A.U. after   10 cycles
 E2(B2PLYPD3) =    -0.8964153718D-01 E(B2PLYPD3) =    -0.76424481109935D+02

 The electronic state is 1-A'.
 Alpha  occ. eigenvalues --  -19.72974  -1.16312  -0.61654  -0.47775  -0.40087
 Alpha virt. eigenvalues --    0.04639   0.10333   0.27447   0.30380   0.31105
 Alpha virt. eigenvalues --    0.36566   0.44332   0.50214   0.56522   0.62036
 Alpha virt. eigenvalues --    0.65352   0.81475   0.94201   0.95687   1.04447

 Mulliken charges:
               1
     1  O   -0.431479
     2  H    0.221796
     3  H    0.209683
 Sum of Mulliken charges =   0.00000

 Dipole moment (field-independent basis, Debye):
    X=             -0.0132    Y=             -1.9659    Z=              0.0000  Tot=              1.9659
 Quadrupole moment (field-independent basis, Debye-Ang):
   XX=             -4.3982   YY=             -6.2930   ZZ=             -7.5652
   XY=             -0.0663   XZ=              0.0000   YZ=              0.0000

 1\1\GINC-NODE10\SP\RB2PLYPD3-FC\def2QZVP\H2O1\BOITTIER\26-Aug-2020\0\\
 #p B2PLYPD3/Def2QZVP\\h2o\\0,1\O,0,-5.326605,-0.763812,0.922586\H,0,-4
 .368927,-0.703852,0.89925\H,0,-5.609308,0.108888,0.744734\\Version=ES6
 4L-G09RevD.01\State=1-A'\HF=-76.3348396\MP2=-76.4244811\RMSD=4.637e-09
 \PG=CS [SG(H2O1)]\\@

 EVERY WORD THAT YOU WRITE IS A BLOW THAT SMITES THE DEVIL.

 Normal termination of Gaussian 09 at Wed Aug 26 08:32:01 2020.
