 Gaussian 09, Revision D.01,
 Gaussian 09:  ES64L-G09RevD.01 24-Apr-2013

 --------------------
 #p B2PLYPD3/Def2QZVP
 --------------------

 ---
 h2o
 ---
 Symbolic Z-matrix:
 Charge =  0 Multiplicity = 1

                         Standard orientation:
 ---------------------------------------------------------------------
 Center     Atomic      Atomic             Coordinates (Angstroms)
 Number     Number       Type             X           Y           Z
 ---------------------------------------------------------------------
      1          8           0        0.000000    0.111593    0.000000
      2          1           0        0.794625   -0.425565    0.000000
      3          1           0       -0.794625   -0.467176    0.000000
 ---------------------------------------------------------------------

 SCF Done:  E(RB2PLYPD3) =  -76.3335881098     A.U. after   10 cycles
 E2(B2PLYPD3) =    -0.9026498735D-01 E(B2PLYPD3) =    -0.76423853097129D+02

 The electronic state is 1-A'.
 Alpha  occ. eigenvalues --  -19.73096  -1.14756  -0.61626  -0.46317  -0.39729
 Alpha virt. eigenvalues --    0.04468   0.10003   0.27493   0.30461   0.31236
 Alpha virt. eigenvalues --    0.34504   0.43614   0.51264   0.55329   0.63673
 Alpha virt. eigenvalues --    0.65842   0.80323   0.93009   0.96376   1.03929

 Mulliken charges:
               1
     1  O   -0.464623
     2  H    0.227208
     3  H    0.237415
 Sum of Mulliken charges =   0.00000

 Dipole moment (field-independent basis, Debye):
    X=              0.0106    Y=             -1.8857    Z=              0.0000  Tot=              1.8857
 Quadrupole moment (field-independent basis, Debye-Ang):
   XX=             -4.0830   YY=             -6.4863   ZZ=             -7.6322
   XY=              0.0742   XZ=              0.0000   YZ=              0.0000

 1\1\GINC-NODE28\SP\RB2PLYPD3-FC\def2QZVP\H2O1\BOITTIER\26-Aug-2020\0\\
 #p B2PLYPD3/Def2QZVP\\h2o\\0,1\O,0,-5.326605,-0.761059,0.916983\H,0,-4
 .368927,-0.813049,0.927759\H,0,-5.609308,0.174034,0.807068\\Version=ES
 64L-G09RevD.01\State=1-A'\HF=-76.3335881\MP2=-76.4238531\RMSD=4.079e-0
 9\PG=CS [SG(H2O1)]\\@

 IF YOU PERCEIVE THAT THERE ARE FOUR POSSIBLE WAYS IN

 Normal termination of Gaussian 09 at Wed Aug 26 08:35:16 2020.
