 Gaussian 09, Revision D.01,
 Gaussian 09:  ES64L-G09RevD.01 24-Apr-2013

 --------------------
 #p B2PLYPD3/Def2QZVP
 --------------------

 ---
 h2o
 ---
 Symbolic Z-matrix:
 Charge =  0 Multiplicity = 1

                         Standard orientation:
 ---------------------------------------------------------------------
 Center     Atomic      Atomic             Coordinates (Angstroms)
 Number     Number       Type             X           Y           Z
 ---------------------------------------------------------------------
      1          8           0        0.000000    0.116974    0.000000
      2          1           0        0.755090   -0.475072    0.000000
      3          1           0       -0.755090   -0.460721    0.000000
 ---------------------------------------------------------------------

 SCF Done:  E(RB2PLYPD3) =  -76.3351798315     A.U. after   10 cycles
 E2(B2PLYPD3) =    -0.8988175116D-01 E(B2PLYPD3) =    -0.76425061582697D+02

 The electronic state is 1-A'.
 Alpha  occ. eigenvalues --  -19.73080  -1.15863  -0.61410  -0.47543  -0.40001
 Alpha virt. eigenvalues --    0.04572   0.10246   0.27493   0.30402   0.31041
 Alpha virt. eigenvalues --    0.36095   0.44078   0.50260   0.56330   0.62163
 Alpha virt. eigenvalues --    0.65546   0.81256   0.93955   0.95855   1.04082

 Mulliken charges:
               1
     1  O   -0.439862
     2  H    0.221932
     3  H    0.217931
 Sum of Mulliken charges =   0.00000

 Dipole moment (field-independent basis, Debye):
    X=             -0.0045    Y=             -1.9612    Z=              0.0000  Tot=              1.9612
 Quadrupole moment (field-independent basis, Debye-Ang):
   XX=             -4.3523   YY=             -6.3188   ZZ=             -7.5849
   XY=             -0.0235   XZ=              0.0000   YZ=              0.0000

 1\1\GINC-NODE01\SP\RB2PLYPD3-FC\def2QZVP\H2O1\BOITTIER\26-Aug-2020\0\\
 #p B2PLYPD3/Def2QZVP\\h2o\\0,1\O,0,-5.326605,-0.763365,0.924804\H,0,-4
 .368927,-0.725351,0.879112\H,0,-5.609308,0.123234,0.730089\\Version=ES
 64L-G09RevD.01\State=1-A'\HF=-76.3351798\MP2=-76.4250616\RMSD=4.161e-0
 9\PG=CS [SG(H2O1)]\\@

 HE THAT RISETH LATE MUST TROT ALL DAY.

 Normal termination of Gaussian 09 at Wed Aug 26 09:31:47 2020.
