 Gaussian 09, Revision D.01,
 Gaussian 09:  ES64L-G09RevD.01 24-Apr-2013

 --------------------
 #p B2PLYPD3/Def2QZVP
 --------------------

 ---
 h2o
 ---
 Symbolic Z-matrix:
 Charge =  0 Multiplicity = 1

                         Standard orientation:
 ---------------------------------------------------------------------
 Center     Atomic      Atomic             Coordinates (Angstroms)
 Number     Number       Type             X           Y           Z
 ---------------------------------------------------------------------
      1          8           0        0.000000    0.122146    0.000000
      2          1           0        0.795942   -0.416760    0.000000
      3          1           0       -0.795942   -0.560410    0.000000
 ---------------------------------------------------------------------

 SCF Done:  E(RB2PLYPD3) =  -76.3271251169     A.U. after   10 cycles
 E2(B2PLYPD3) =    -0.9152256735D-01 E(B2PLYPD3) =    -0.76418647684236D+02

 The electronic state is 1-A'.
 Alpha  occ. eigenvalues --  -19.73774  -1.13725  -0.59368  -0.46705  -0.39591
 Alpha virt. eigenvalues --    0.03890   0.09748   0.27732   0.29498   0.30516
 Alpha virt. eigenvalues --    0.34238   0.42947   0.49940   0.55501   0.62027
 Alpha virt. eigenvalues --    0.66631   0.79808   0.91564   0.96775   1.00702

 Mulliken charges:
               1
     1  O   -0.472221
     2  H    0.221137
     3  H    0.251084
 Sum of Mulliken charges =   0.00000

 Dipole moment (field-independent basis, Debye):
    X=              0.0440    Y=             -1.9823    Z=              0.0000  Tot=              1.9828
 Quadrupole moment (field-independent basis, Debye-Ang):
   XX=             -4.2213   YY=             -6.3451   ZZ=             -7.6963
   XY=              0.2433   XZ=              0.0000   YZ=              0.0000

 1\1\GINC-NODE21\SP\RB2PLYPD3-FC\def2QZVP\H2O1\BOITTIER\26-Aug-2020\0\\
 #p B2PLYPD3/Def2QZVP\\h2o\\0,1\O,0,-5.326605,-0.768486,0.914234\H,0,-4
 .368927,-0.752852,0.995186\H,0,-5.609308,0.232677,0.783243\\Version=ES
 64L-G09RevD.01\State=1-A'\HF=-76.3271251\MP2=-76.4186477\RMSD=6.188e-0
 9\PG=CS [SG(H2O1)]\\@

      THE ONE-EYED VIEW OF OUR UNIVERSE SAYS YOU MUST NOT LOOK

 Normal termination of Gaussian 09 at Wed Aug 26 09:21:59 2020.
