 Gaussian 09, Revision D.01,
 Gaussian 09:  ES64L-G09RevD.01 24-Apr-2013

 --------------------
 #p B2PLYPD3/Def2QZVP
 --------------------

 ---
 h2o
 ---
 Symbolic Z-matrix:
 Charge =  0 Multiplicity = 1

                         Standard orientation:
 ---------------------------------------------------------------------
 Center     Atomic      Atomic             Coordinates (Angstroms)
 Number     Number       Type             X           Y           Z
 ---------------------------------------------------------------------
      1          8           0        0.000000    0.117910    0.000000
      2          1           0        0.775372   -0.444803    0.000000
      3          1           0       -0.775372   -0.498474    0.000000
 ---------------------------------------------------------------------

 SCF Done:  E(RB2PLYPD3) =  -76.3336886082     A.U. after   10 cycles
 E2(B2PLYPD3) =    -0.9048105516D-01 E(B2PLYPD3) =    -0.76424169663348D+02

 The electronic state is 1-A'.
 Alpha  occ. eigenvalues --  -19.73333  -1.14915  -0.60734  -0.47083  -0.39815
 Alpha virt. eigenvalues --    0.04362   0.10045   0.27591   0.30453   0.30688
 Alpha virt. eigenvalues --    0.35120   0.43569   0.50287   0.55920   0.62326
 Alpha virt. eigenvalues --    0.65986   0.80679   0.93183   0.96271   1.02785

 Mulliken charges:
               1
     1  O   -0.456216
     2  H    0.221466
     3  H    0.234750
 Sum of Mulliken charges =   0.00000

 Dipole moment (field-independent basis, Debye):
    X=              0.0162    Y=             -1.9578    Z=              0.0000  Tot=              1.9578
 Quadrupole moment (field-independent basis, Debye-Ang):
   XX=             -4.2659   YY=             -6.3583   ZZ=             -7.6303
   XY=              0.0901   XZ=              0.0000   YZ=              0.0000

 1\1\GINC-NODE33\SP\RB2PLYPD3-FC\def2QZVP\H2O1\BOITTIER\26-Aug-2020\0\\
 #p B2PLYPD3/Def2QZVP\\h2o\\0,1\O,0,-5.326605,-0.765164,0.91907\H,0,-4.
 368927,-0.744882,0.93603\H,0,-5.609308,0.171554,0.764901\\Version=ES64
 L-G09RevD.01\State=1-A'\HF=-76.3336886\MP2=-76.4241697\RMSD=4.415e-09\
 PG=CS [SG(H2O1)]\\@

 HO!  SUCH BUGS AND GOBLINS IN MY LIFE!

 Normal termination of Gaussian 09 at Wed Aug 26 10:05:03 2020.
