 Gaussian 09, Revision D.01,
 Gaussian 09:  ES64L-G09RevD.01 24-Apr-2013

 --------------------
 #p B2PLYPD3/Def2QZVP
 --------------------

 ---
 h2o
 ---
 Symbolic Z-matrix:
 Charge =  0 Multiplicity = 1

                         Standard orientation:
 ---------------------------------------------------------------------
 Center     Atomic      Atomic             Coordinates (Angstroms)
 Number     Number       Type             X           Y           Z
 ---------------------------------------------------------------------
      1          8           0        0.000000    0.120021    0.000000
      2          1           0        0.745672   -0.487205    0.000000
      3          1           0       -0.745672   -0.472963    0.000000
 ---------------------------------------------------------------------

 SCF Done:  E(RB2PLYPD3) =  -76.3349110173     A.U. after   10 cycles
 E2(B2PLYPD3) =    -0.9001668071D-01 E(B2PLYPD3) =    -0.76424927698044D+02

 The electronic state is 1-A'.
 Alpha  occ. eigenvalues --  -19.73199  -1.15922  -0.60912  -0.47923  -0.40036
 Alpha virt. eigenvalues --    0.04506   0.10264   0.27543   0.30400   0.30803
 Alpha virt. eigenvalues --    0.36342   0.44030   0.49876   0.56629   0.61525
 Alpha virt. eigenvalues --    0.65641   0.81302   0.94139   0.95865   1.03518

 Mulliken charges:
               1
     1  O   -0.437009
     2  H    0.220494
     3  H    0.216515
 Sum of Mulliken charges =   0.00000

 Dipole moment (field-independent basis, Debye):
    X=             -0.0048    Y=             -1.9953    Z=              0.0000  Tot=              1.9953
 Quadrupole moment (field-independent basis, Debye-Ang):
   XX=             -4.4397   YY=             -6.2571   ZZ=             -7.5858
   XY=             -0.0226   XZ=              0.0000   YZ=              0.0000

 1\1\GINC-NODE35\SP\RB2PLYPD3-FC\def2QZVP\H2O1\BOITTIER\26-Aug-2020\0\\
 #p B2PLYPD3/Def2QZVP\\h2o\\0,1\O,0,-5.326605,-0.766406,0.920311\H,0,-4
 .368927,-0.680165,0.933192\H,0,-5.609308,0.126698,0.746813\\Version=ES
 64L-G09RevD.01\State=1-A'\HF=-76.334911\MP2=-76.4249277\RMSD=4.358e-09
 \PG=CS [SG(H2O1)]\\@

 KNOWLEDGE IS CHIMERA - FOR BEYOND IT LIES OTHER KNOWLEDGE,

 Normal termination of Gaussian 09 at Wed Aug 26 10:23:58 2020.
