 Gaussian 09, Revision D.01,
 Gaussian 09:  ES64L-G09RevD.01 24-Apr-2013

 --------------------
 #p B2PLYPD3/Def2QZVP
 --------------------

 ---
 h2o
 ---
 Symbolic Z-matrix:
 Charge =  0 Multiplicity = 1

                         Standard orientation:
 ---------------------------------------------------------------------
 Center     Atomic      Atomic             Coordinates (Angstroms)
 Number     Number       Type             X           Y           Z
 ---------------------------------------------------------------------
      1          8           0        0.000000    0.120045    0.000000
      2          1           0        0.740158   -0.494630    0.000000
      3          1           0       -0.740158   -0.465729    0.000000
 ---------------------------------------------------------------------

 SCF Done:  E(RB2PLYPD3) =  -76.3347664247     A.U. after   10 cycles
 E2(B2PLYPD3) =    -0.8989385332D-01 E(B2PLYPD3) =    -0.76424660278021D+02

 The electronic state is 1-A'.
 Alpha  occ. eigenvalues --  -19.73147  -1.16160  -0.61021  -0.48059  -0.40081
 Alpha virt. eigenvalues --    0.04539   0.10312   0.27519   0.30389   0.30837
 Alpha virt. eigenvalues --    0.36594   0.44160   0.49850   0.56741   0.61442
 Alpha virt. eigenvalues --    0.65539   0.81407   0.94287   0.95777   1.03723

 Mulliken charges:
               1
     1  O   -0.432705
     2  H    0.220505
     3  H    0.212199
 Sum of Mulliken charges =   0.00000

 Dipole moment (field-independent basis, Debye):
    X=             -0.0098    Y=             -1.9986    Z=              0.0000  Tot=              1.9986
 Quadrupole moment (field-independent basis, Debye-Ang):
   XX=             -4.4661   YY=             -6.2420   ZZ=             -7.5755
   XY=             -0.0454   XZ=              0.0000   YZ=              0.0000

 1\1\GINC-NODE18\SP\RB2PLYPD3-FC\def2QZVP\H2O1\BOITTIER\26-Aug-2020\0\\
 #p B2PLYPD3/Def2QZVP\\h2o\\0,1\O,0,-5.326605,-0.76567,0.924089\H,0,-4.
 368927,-0.677007,0.898605\H,0,-5.609308,0.111772,0.721262\\Version=ES6
 4L-G09RevD.01\State=1-A'\HF=-76.3347664\MP2=-76.4246603\RMSD=4.586e-09
 \PG=CS [SG(H2O1)]\\@

 A HARD FALL SHOULD MEAN A HIGH BOUNCE

 Normal termination of Gaussian 09 at Wed Aug 26 12:51:43 2020.
