 Gaussian 09, Revision D.01,
 Gaussian 09:  ES64L-G09RevD.01 24-Apr-2013

 --------------------
 #p B2PLYPD3/Def2QZVP
 --------------------

 ---
 h2o
 ---
 Symbolic Z-matrix:
 Charge =  0 Multiplicity = 1

                         Standard orientation:
 ---------------------------------------------------------------------
 Center     Atomic      Atomic             Coordinates (Angstroms)
 Number     Number       Type             X           Y           Z
 ---------------------------------------------------------------------
      1          8           0        0.000000    0.120524    0.000000
      2          1           0        0.766838   -0.455225    0.000000
      3          1           0       -0.766838   -0.508964    0.000000
 ---------------------------------------------------------------------

 SCF Done:  E(RB2PLYPD3) =  -76.3335446061     A.U. after   10 cycles
 E2(B2PLYPD3) =    -0.9057979132D-01 E(B2PLYPD3) =    -0.76424124397393D+02

 The electronic state is 1-A'.
 Alpha  occ. eigenvalues --  -19.73429  -1.14986  -0.60351  -0.47412  -0.39851
 Alpha virt. eigenvalues --    0.04315   0.10063   0.27634   0.30448   0.30481
 Alpha virt. eigenvalues --    0.35355   0.43548   0.49930   0.56178   0.61777
 Alpha virt. eigenvalues --    0.66055   0.80780   0.93323   0.96263   1.02371

 Mulliken charges:
               1
     1  O   -0.452883
     2  H    0.219768
     3  H    0.233115
 Sum of Mulliken charges =   0.00000

 Dipole moment (field-independent basis, Debye):
    X=              0.0173    Y=             -1.9872    Z=              0.0000  Tot=              1.9873
 Quadrupole moment (field-independent basis, Debye-Ang):
   XX=             -4.3443   YY=             -6.3039   ZZ=             -7.6295
   XY=              0.0878   XZ=              0.0000   YZ=              0.0000

 1\1\GINC-NODE25\SP\RB2PLYPD3-FC\def2QZVP\H2O1\BOITTIER\26-Aug-2020\0\\
 #p B2PLYPD3/Def2QZVP\\h2o\\0,1\O,0,-5.326605,-0.76605,0.923933\H,0,-4.
 368927,-0.722117,0.902724\H,0,-5.609308,0.162967,0.720707\\Version=ES6
 4L-G09RevD.01\State=1-A'\HF=-76.3335446\MP2=-76.4241244\RMSD=4.493e-09
 \PG=CS [SG(H2O1)]\\@

 Where a calculator on the ENIAC is equipped with 18,000

 Normal termination of Gaussian 09 at Wed Aug 26 11:54:06 2020.
