 Gaussian 09, Revision D.01,
 Gaussian 09:  ES64L-G09RevD.01 24-Apr-2013

 --------------------
 #p B2PLYPD3/Def2QZVP
 --------------------

 ---
 h2o
 ---
 Symbolic Z-matrix:
 Charge =  0 Multiplicity = 1

                         Standard orientation:
 ---------------------------------------------------------------------
 Center     Atomic      Atomic             Coordinates (Angstroms)
 Number     Number       Type             X           Y           Z
 ---------------------------------------------------------------------
      1          8           0        0.000000    0.118616    0.000000
      2          1           0        0.777866   -0.446856    0.000000
      3          1           0       -0.777866   -0.502070    0.000000
 ---------------------------------------------------------------------

 SCF Done:  E(RB2PLYPD3) =  -76.3332708032     A.U. after   10 cycles
 E2(B2PLYPD3) =    -0.9062338799D-01 E(B2PLYPD3) =    -0.76423894191199D+02

 The electronic state is 1-A'.
 Alpha  occ. eigenvalues --  -19.73403  -1.14739  -0.60522  -0.47056  -0.39785
 Alpha virt. eigenvalues --    0.04310   0.10006   0.27618   0.30462   0.30579
 Alpha virt. eigenvalues --    0.34971   0.43461   0.50219   0.55889   0.62247
 Alpha virt. eigenvalues --    0.66091   0.80578   0.93055   0.96340   1.02485

 Mulliken charges:
               1
     1  O   -0.458771
     2  H    0.222711
     3  H    0.236060
 Sum of Mulliken charges =   0.00000

 Dipole moment (field-independent basis, Debye):
    X=              0.0167    Y=             -1.9628    Z=              0.0000  Tot=              1.9629
 Quadrupole moment (field-independent basis, Debye-Ang):
   XX=             -4.2633   YY=             -6.3559   ZZ=             -7.6393
   XY=              0.0927   XZ=              0.0000   YZ=              0.0000

 1\1\GINC-NODE03\SP\RB2PLYPD3-FC\def2QZVP\H2O1\BOITTIER\26-Aug-2020\0\\
 #p B2PLYPD3/Def2QZVP\\h2o\\0,1\O,0,-5.326605,-0.766178,0.912308\H,0,-4
 .368927,-0.739829,0.995936\H,0,-5.609308,0.182724,0.81235\\Version=ES6
 4L-G09RevD.01\State=1-A'\HF=-76.3332708\MP2=-76.4238942\RMSD=4.408e-09
 \PG=CS [SG(H2O1)]\\@

 LIFE IS A CONTINUAL STRUGGLE AGAINST THE TENDENCY TO PRODUCE ENTROPY.

 Normal termination of Gaussian 09 at Wed Aug 26 08:35:43 2020.
