 Gaussian 09, Revision D.01,
 Gaussian 09:  ES64L-G09RevD.01 24-Apr-2013

 --------------------
 #p B2PLYPD3/Def2QZVP
 --------------------

 ---
 h2o
 ---
 Symbolic Z-matrix:
 Charge =  0 Multiplicity = 1

                         Standard orientation:
 ---------------------------------------------------------------------
 Center     Atomic      Atomic             Coordinates (Angstroms)
 Number     Number       Type             X           Y           Z
 ---------------------------------------------------------------------
      1          8           0        0.000000    0.121353    0.000000
      2          1           0        0.746993   -0.484379    0.000000
      3          1           0       -0.746993   -0.486446    0.000000
 ---------------------------------------------------------------------

 SCF Done:  E(RB2PLYPD3) =  -76.3346958565     A.U. after   10 cycles
 E2(B2PLYPD3) =    -0.9020655883D-01 E(B2PLYPD3) =    -0.76424902415347D+02

 The electronic state is 1-A'.
 Alpha  occ. eigenvalues --  -19.73305  -1.15710  -0.60579  -0.47954  -0.40005
 Alpha virt. eigenvalues --    0.04440   0.10223   0.27588   0.30411   0.30653
 Alpha virt. eigenvalues --    0.36186   0.43884   0.49743   0.56645   0.61333
 Alpha virt. eigenvalues --    0.65782   0.81202   0.94060   0.95966   1.03053

 Mulliken charges:
               1
     1  O   -0.439945
     2  H    0.219692
     3  H    0.220253
 Sum of Mulliken charges =   0.00000

 Dipole moment (field-independent basis, Debye):
    X=              0.0007    Y=             -2.0068    Z=              0.0000  Tot=              2.0068
 Quadrupole moment (field-independent basis, Debye-Ang):
   XX=             -4.4521   YY=             -6.2443   ZZ=             -7.5967
   XY=              0.0033   XZ=              0.0000   YZ=              0.0000

 1\1\GINC-NODE34\SP\RB2PLYPD3-FC\def2QZVP\H2O1\BOITTIER\26-Aug-2020\0\\
 #p B2PLYPD3/Def2QZVP\\h2o\\0,1\O,0,-5.326605,-0.766422,0.924731\H,0,-4
 .368927,-0.682385,0.89826\H,0,-5.609308,0.129182,0.711679\\Version=ES6
 4L-G09RevD.01\State=1-A'\HF=-76.3346959\MP2=-76.4249024\RMSD=4.330e-09
 \PG=CS [SG(H2O1)]\\@

 LIFE CAN ONLY BE UNDERSTOOD BACKWARD, BUT MUST

 Normal termination of Gaussian 09 at Wed Aug 26 12:40:19 2020.
