 Gaussian 09, Revision D.01,
 Gaussian 09:  ES64L-G09RevD.01 24-Apr-2013

 --------------------
 #p B2PLYPD3/Def2QZVP
 --------------------

 ---
 h2o
 ---
 Symbolic Z-matrix:
 Charge =  0 Multiplicity = 1

                         Standard orientation:
 ---------------------------------------------------------------------
 Center     Atomic      Atomic             Coordinates (Angstroms)
 Number     Number       Type             X           Y           Z
 ---------------------------------------------------------------------
      1          8           0        0.000000    0.118954    0.000000
      2          1           0        0.766143   -0.459618    0.000000
      3          1           0       -0.766143   -0.492015    0.000000
 ---------------------------------------------------------------------

 SCF Done:  E(RB2PLYPD3) =  -76.3343354081     A.U. after   10 cycles
 E2(B2PLYPD3) =    -0.9037474399D-01 E(B2PLYPD3) =    -0.76424710152090D+02

 The electronic state is 1-A'.
 Alpha  occ. eigenvalues --  -19.73319  -1.15179  -0.60714  -0.47365  -0.39879
 Alpha virt. eigenvalues --    0.04400   0.10105   0.27590   0.30438   0.30708
 Alpha virt. eigenvalues --    0.35469   0.43673   0.50102   0.56158   0.62009
 Alpha virt. eigenvalues --    0.65915   0.80884   0.93491   0.96157   1.02940

 Mulliken charges:
               1
     1  O   -0.450821
     2  H    0.221273
     3  H    0.229548
 Sum of Mulliken charges =   0.00000

 Dipole moment (field-independent basis, Debye):
    X=              0.0102    Y=             -1.9732    Z=              0.0000  Tot=              1.9733
 Quadrupole moment (field-independent basis, Debye-Ang):
   XX=             -4.3260   YY=             -6.3228   ZZ=             -7.6185
   XY=              0.0533   XZ=              0.0000   YZ=              0.0000

 1\1\GINC-NODE05\SP\RB2PLYPD3-FC\def2QZVP\H2O1\BOITTIER\26-Aug-2020\0\\
 #p B2PLYPD3/Def2QZVP\\h2o\\0,1\O,0,-5.326605,-0.766199,0.916234\H,0,-4
 .368927,-0.719009,0.964685\H,0,-5.609308,0.162244,0.780839\\Version=ES
 64L-G09RevD.01\State=1-A'\HF=-76.3343354\MP2=-76.4247102\RMSD=4.188e-0
 9\PG=CS [SG(H2O1)]\\@

 The most important thing in communication is to hear what isn't being said.

 Normal termination of Gaussian 09 at Wed Aug 26 13:49:04 2020.
