 Gaussian 09, Revision D.01,
 Gaussian 09:  ES64L-G09RevD.01 24-Apr-2013

 --------------------
 #p B2PLYPD3/Def2QZVP
 --------------------

 ---
 h2o
 ---
 Symbolic Z-matrix:
 Charge =  0 Multiplicity = 1

                         Standard orientation:
 ---------------------------------------------------------------------
 Center     Atomic      Atomic             Coordinates (Angstroms)
 Number     Number       Type             X           Y           Z
 ---------------------------------------------------------------------
      1          8           0        0.000000    0.114455    0.000000
      2          1           0        0.698952   -0.554930    0.000000
      3          1           0       -0.698952   -0.360708    0.000000
 ---------------------------------------------------------------------

 SCF Done:  E(RB2PLYPD3) =  -76.3197302437     A.U. after   10 cycles
 E2(B2PLYPD3) =    -0.8840964836D-01 E(B2PLYPD3) =    -0.76408139892037D+02

 The electronic state is 1-A'.
 Alpha  occ. eigenvalues --  -19.72271  -1.18914  -0.63228  -0.48625  -0.40521
 Alpha virt. eigenvalues --    0.04859   0.10732   0.27073   0.30264   0.31173
 Alpha virt. eigenvalues --    0.38446   0.46073   0.50289   0.57098   0.61896
 Alpha virt. eigenvalues --    0.64287   0.82234   0.94083   0.95369   1.05252

 Mulliken charges:
               1
     1  O   -0.375002
     2  H    0.225561
     3  H    0.149440
 Sum of Mulliken charges =   0.00000

 Dipole moment (field-independent basis, Debye):
    X=             -0.0663    Y=             -1.9651    Z=              0.0000  Tot=              1.9662
 Quadrupole moment (field-independent basis, Debye-Ang):
   XX=             -4.5740   YY=             -6.1732   ZZ=             -7.4637
   XY=             -0.2942   XZ=              0.0000   YZ=              0.0000

 1\1\GINC-NODE03\SP\RB2PLYPD3-FC\def2QZVP\H2O1\BOITTIER\26-Aug-2020\0\\
 #p B2PLYPD3/Def2QZVP\\h2o\\0,1\O,0,-5.326605,-0.760632,0.92784\H,0,-4.
 368927,-0.654583,0.837195\H,0,-5.609308,0.008732,0.721754\\Version=ES6
 4L-G09RevD.01\State=1-A'\HF=-76.3197302\MP2=-76.4081399\RMSD=6.369e-09
 \PG=CS [SG(H2O1)]\\@

 THE LENGTH OF A MEETING IS PROPORTIONAL TO THE

 Normal termination of Gaussian 09 at Wed Aug 26 08:35:51 2020.
