 Gaussian 09, Revision D.01,
 Gaussian 09:  ES64L-G09RevD.01 24-Apr-2013

 --------------------
 #p B2PLYPD3/Def2QZVP
 --------------------

 ---
 h2o
 ---
 Symbolic Z-matrix:
 Charge =  0 Multiplicity = 1

                         Standard orientation:
 ---------------------------------------------------------------------
 Center     Atomic      Atomic             Coordinates (Angstroms)
 Number     Number       Type             X           Y           Z
 ---------------------------------------------------------------------
      1          8           0        0.000000    0.115078    0.000000
      2          1           0        0.783849   -0.435863    0.000000
      3          1           0       -0.783849   -0.484763    0.000000
 ---------------------------------------------------------------------

 SCF Done:  E(RB2PLYPD3) =  -76.3337777895     A.U. after   10 cycles
 E2(B2PLYPD3) =    -0.9037044774D-01 E(B2PLYPD3) =    -0.76424148237222D+02

 The electronic state is 1-A'.
 Alpha  occ. eigenvalues --  -19.73224  -1.14857  -0.61149  -0.46744  -0.39779
 Alpha virt. eigenvalues --    0.04415   0.10029   0.27545   0.30456   0.30933
 Alpha virt. eigenvalues --    0.34867   0.43597   0.50703   0.55659   0.62921
 Alpha virt. eigenvalues --    0.65908   0.80553   0.93095   0.96294   1.03299

 Mulliken charges:
               1
     1  O   -0.459652
     2  H    0.223786
     3  H    0.235866
 Sum of Mulliken charges =   0.00000

 Dipole moment (field-independent basis, Debye):
    X=              0.0137    Y=             -1.9259    Z=              0.0000  Tot=              1.9259
 Quadrupole moment (field-independent basis, Debye-Ang):
   XX=             -4.1848   YY=             -6.4154   ZZ=             -7.6304
   XY=              0.0844   XZ=              0.0000   YZ=              0.0000

 1\1\GINC-NODE35\SP\RB2PLYPD3-FC\def2QZVP\H2O1\BOITTIER\26-Aug-2020\0\\
 #p B2PLYPD3/Def2QZVP\\h2o\\0,1\O,0,-5.326605,-0.763492,0.916885\H,0,-4
 .368927,-0.774081,0.943265\H,0,-5.609308,0.173995,0.792682\\Version=ES
 64L-G09RevD.01\State=1-A'\HF=-76.3337778\MP2=-76.4241482\RMSD=4.268e-0
 9\PG=CS [SG(H2O1)]\\@

 "TIGER, TIGER BURNING BRIGHT

 Normal termination of Gaussian 09 at Wed Aug 26 07:32:46 2020.
