 Gaussian 09, Revision D.01,
 Gaussian 09:  ES64L-G09RevD.01 24-Apr-2013

 --------------------
 #p B2PLYPD3/Def2QZVP
 --------------------

 ---
 h2o
 ---
 Symbolic Z-matrix:
 Charge =  0 Multiplicity = 1

                         Standard orientation:
 ---------------------------------------------------------------------
 Center     Atomic      Atomic             Coordinates (Angstroms)
 Number     Number       Type             X           Y           Z
 ---------------------------------------------------------------------
      1          8           0        0.000000    0.120474    0.000000
      2          1           0        0.741104   -0.493215    0.000000
      3          1           0       -0.741104   -0.470578    0.000000
 ---------------------------------------------------------------------

 SCF Done:  E(RB2PLYPD3) =  -76.3347885941     A.U. after   10 cycles
 E2(B2PLYPD3) =    -0.8996621123D-01 E(B2PLYPD3) =    -0.76424754805338D+02

 The electronic state is 1-A'.
 Alpha  occ. eigenvalues --  -19.73186  -1.16067  -0.60901  -0.48057  -0.40067
 Alpha virt. eigenvalues --    0.04516   0.10295   0.27537   0.30394   0.30790
 Alpha virt. eigenvalues --    0.36520   0.44097   0.49810   0.56738   0.61386
 Alpha virt. eigenvalues --    0.65596   0.81366   0.94258   0.95816   1.03562

 Mulliken charges:
               1
     1  O   -0.434155
     2  H    0.220292
     3  H    0.213863
 Sum of Mulliken charges =   0.00000

 Dipole moment (field-independent basis, Debye):
    X=             -0.0077    Y=             -2.0021    Z=              0.0000  Tot=              2.0021
 Quadrupole moment (field-independent basis, Debye-Ang):
   XX=             -4.4677   YY=             -6.2395   ZZ=             -7.5800
   XY=             -0.0355   XZ=              0.0000   YZ=              0.0000

 1\1\GINC-NODE04\SP\RB2PLYPD3-FC\def2QZVP\H2O1\BOITTIER\26-Aug-2020\0\\
 #p B2PLYPD3/Def2QZVP\\h2o\\0,1\O,0,-5.326605,-0.766167,0.923196\H,0,-4
 .368927,-0.674007,0.908755\H,0,-5.609308,0.116724,0.725306\\Version=ES
 64L-G09RevD.01\State=1-A'\HF=-76.3347886\MP2=-76.4247548\RMSD=4.513e-0
 9\PG=CS [SG(H2O1)]\\@

 CONFIDENCE IS WHAT YOU FEEL BEFORE YOU FULLY

 Normal termination of Gaussian 09 at Wed Aug 26 08:30:43 2020.
