 Gaussian 09, Revision D.01,
 Gaussian 09:  ES64L-G09RevD.01 24-Apr-2013

 --------------------
 #p B2PLYPD3/Def2QZVP
 --------------------

 ---
 h2o
 ---
 Symbolic Z-matrix:
 Charge =  0 Multiplicity = 1

                         Standard orientation:
 ---------------------------------------------------------------------
 Center     Atomic      Atomic             Coordinates (Angstroms)
 Number     Number       Type             X           Y           Z
 ---------------------------------------------------------------------
      1          8           0        0.000000    0.120039    0.000000
      2          1           0        0.757410   -0.469562    0.000000
      3          1           0       -0.757410   -0.490753    0.000000
 ---------------------------------------------------------------------

 SCF Done:  E(RB2PLYPD3) =  -76.3346008354     A.U. after   10 cycles
 E2(B2PLYPD3) =    -0.9029340653D-01 E(B2PLYPD3) =    -0.76424894241978D+02

 The electronic state is 1-A'.
 Alpha  occ. eigenvalues --  -19.73312  -1.15422  -0.60661  -0.47633  -0.39937
 Alpha virt. eigenvalues --    0.04421   0.10160   0.27589   0.30426   0.30686
 Alpha virt. eigenvalues --    0.35800   0.43770   0.49930   0.56380   0.61701
 Alpha virt. eigenvalues --    0.65854   0.81044   0.93750   0.96067   1.02996

 Mulliken charges:
               1
     1  O   -0.445795
     2  H    0.220114
     3  H    0.225681
 Sum of Mulliken charges =   0.00000

 Dipole moment (field-independent basis, Debye):
    X=              0.0069    Y=             -1.9886    Z=              0.0000  Tot=              1.9886
 Quadrupole moment (field-independent basis, Debye-Ang):
   XX=             -4.3836   YY=             -6.2872   ZZ=             -7.6083
   XY=              0.0342   XZ=              0.0000   YZ=              0.0000

 1\1\GINC-NODE20\SP\RB2PLYPD3-FC\def2QZVP\H2O1\BOITTIER\26-Aug-2020\0\\
 #p B2PLYPD3/Def2QZVP\\h2o\\0,1\O,0,-5.326605,-0.7655,0.924817\H,0,-4.3
 68927,-0.709964,0.892148\H,0,-5.609308,0.142014,0.716889\\Version=ES64
 L-G09RevD.01\State=1-A'\HF=-76.3346008\MP2=-76.4248942\RMSD=4.211e-09\
 PG=CS [SG(H2O1)]\\@

 THE MOST BEAUTIFUL EXPERIENCE WE CAN HAVE IS THE MYSTERIOUS.

 Normal termination of Gaussian 09 at Wed Aug 26 10:52:01 2020.
