 Gaussian 09, Revision D.01,
 Gaussian 09:  ES64L-G09RevD.01 24-Apr-2013

 --------------------
 #p B2PLYPD3/Def2QZVP
 --------------------

 ---
 h2o
 ---
 Symbolic Z-matrix:
 Charge =  0 Multiplicity = 1

                         Standard orientation:
 ---------------------------------------------------------------------
 Center     Atomic      Atomic             Coordinates (Angstroms)
 Number     Number       Type             X           Y           Z
 ---------------------------------------------------------------------
      1          8           0        0.000000    0.113980    0.000000
      2          1           0        0.764994   -0.463338    0.000000
      3          1           0       -0.764994   -0.448504    0.000000
 ---------------------------------------------------------------------

 SCF Done:  E(RB2PLYPD3) =  -76.3352012585     A.U. after   10 cycles
 E2(B2PLYPD3) =    -0.8978389395D-01 E(B2PLYPD3) =    -0.76424985152435D+02

 The electronic state is 1-A'.
 Alpha  occ. eigenvalues --  -19.72972  -1.15764  -0.61861  -0.47151  -0.39959
 Alpha virt. eigenvalues --    0.04625   0.10218   0.27452   0.30406   0.31271
 Alpha virt. eigenvalues --    0.35781   0.44101   0.50686   0.56022   0.62817
 Alpha virt. eigenvalues --    0.65470   0.81148   0.93787   0.95886   1.04630

 Mulliken charges:
               1
     1  O   -0.443582
     2  H    0.223843
     3  H    0.219739
 Sum of Mulliken charges =   0.00000

 Dipole moment (field-independent basis, Debye):
    X=             -0.0043    Y=             -1.9268    Z=              0.0000  Tot=              1.9268
 Quadrupole moment (field-independent basis, Debye-Ang):
   XX=             -4.2633   YY=             -6.3809   ZZ=             -7.5863
   XY=             -0.0250   XZ=              0.0000   YZ=              0.0000

 1\1\GINC-NODE20\SP\RB2PLYPD3-FC\def2QZVP\H2O1\BOITTIER\26-Aug-2020\0\\
 #p B2PLYPD3/Def2QZVP\\h2o\\0,1\O,0,-5.326605,-0.76285,0.915601\H,0,-4.
 368927,-0.747385,0.94915\H,0,-5.609308,0.137023,0.806458\\Version=ES64
 L-G09RevD.01\State=1-A'\HF=-76.3352013\MP2=-76.4249852\RMSD=3.991e-09\
 PG=CS [SG(H2O1)]\\@

 IT IS BETTER TO THINK YOU ARE HALF DRY THAN TO KNOW YOU

 Normal termination of Gaussian 09 at Wed Aug 26 12:35:41 2020.
