 Gaussian 09, Revision D.01,
 Gaussian 09:  ES64L-G09RevD.01 24-Apr-2013

 --------------------
 #p B2PLYPD3/Def2QZVP
 --------------------

 ---
 h2o
 ---
 Symbolic Z-matrix:
 Charge =  0 Multiplicity = 1

                         Standard orientation:
 ---------------------------------------------------------------------
 Center     Atomic      Atomic             Coordinates (Angstroms)
 Number     Number       Type             X           Y           Z
 ---------------------------------------------------------------------
      1          8           0        0.000000    0.117481    0.000000
      2          1           0        0.780262   -0.440184    0.000000
      3          1           0       -0.780262   -0.499664    0.000000
 ---------------------------------------------------------------------

 SCF Done:  E(RB2PLYPD3) =  -76.3333124539     A.U. after   10 cycles
 E2(B2PLYPD3) =    -0.9055323091D-01 E(B2PLYPD3) =    -0.76423865684787D+02

 The electronic state is 1-A'.
 Alpha  occ. eigenvalues --  -19.73348  -1.14761  -0.60713  -0.46942  -0.39779
 Alpha virt. eigenvalues --    0.04337   0.10010   0.27595   0.30461   0.30670
 Alpha virt. eigenvalues --    0.34927   0.43500   0.50375   0.55802   0.62471
 Alpha virt. eigenvalues --    0.66037   0.80557   0.93027   0.96335   1.02685

 Mulliken charges:
               1
     1  O   -0.459300
     2  H    0.222425
     3  H    0.236875
 Sum of Mulliken charges =   0.00000

 Dipole moment (field-independent basis, Debye):
    X=              0.0176    Y=             -1.9507    Z=              0.0000  Tot=              1.9508
 Quadrupole moment (field-independent basis, Debye-Ang):
   XX=             -4.2357   YY=             -6.3758   ZZ=             -7.6374
   XY=              0.1008   XZ=              0.0000   YZ=              0.0000

 1\1\GINC-NODE12\SP\RB2PLYPD3-FC\def2QZVP\H2O1\BOITTIER\26-Aug-2020\0\\
 #p B2PLYPD3/Def2QZVP\\h2o\\0,1\O,0,-5.326605,-0.765265,0.915467\H,0,-4
 .368927,-0.75237,0.965323\H,0,-5.609308,0.180646,0.792963\\Version=ES6
 4L-G09RevD.01\State=1-A'\HF=-76.3333125\MP2=-76.4238657\RMSD=4.482e-09
 \PG=CS [SG(H2O1)]\\@

 ...THE PHYSICISTS HAVE MADE THEIR UNIVERSE, AND IF YOU DO NOT LIKE

 Normal termination of Gaussian 09 at Wed Aug 26 11:59:12 2020.
