 Gaussian 09, Revision D.01,
 Gaussian 09:  ES64L-G09RevD.01 24-Apr-2013

 --------------------
 #p B2PLYPD3/Def2QZVP
 --------------------

 ---
 h2o
 ---
 Symbolic Z-matrix:
 Charge =  0 Multiplicity = 1

                         Standard orientation:
 ---------------------------------------------------------------------
 Center     Atomic      Atomic             Coordinates (Angstroms)
 Number     Number       Type             X           Y           Z
 ---------------------------------------------------------------------
      1          8           0        0.000000    0.118331    0.000000
      2          1           0        0.787211   -0.428482    0.000000
      3          1           0       -0.787211   -0.518164    0.000000
 ---------------------------------------------------------------------

 SCF Done:  E(RB2PLYPD3) =  -76.3316831222     A.U. after   10 cycles
 E2(B2PLYPD3) =    -0.9083183405D-01 E(B2PLYPD3) =    -0.76422514956294D+02

 The electronic state is 1-A'.
 Alpha  occ. eigenvalues --  -19.73463  -1.14407  -0.60365  -0.46796  -0.39709
 Alpha virt. eigenvalues --    0.04215   0.09926   0.27631   0.30380   0.30481
 Alpha virt. eigenvalues --    0.34629   0.43317   0.50329   0.55655   0.62454
 Alpha virt. eigenvalues --    0.66217   0.80293   0.92595   0.96500   1.02013

 Mulliken charges:
               1
     1  O   -0.464634
     2  H    0.221938
     3  H    0.242696
 Sum of Mulliken charges =   0.00000

 Dipole moment (field-independent basis, Debye):
    X=              0.0264    Y=             -1.9540    Z=              0.0000  Tot=              1.9542
 Quadrupole moment (field-independent basis, Debye-Ang):
   XX=             -4.2125   YY=             -6.3799   ZZ=             -7.6563
   XY=              0.1529   XZ=              0.0000   YZ=              0.0000

 1\1\GINC-NODE05\SP\RB2PLYPD3-FC\def2QZVP\H2O1\BOITTIER\26-Aug-2020\0\\
 #p B2PLYPD3/Def2QZVP\\h2o\\0,1\O,0,-5.326605,-0.76571,0.916981\H,0,-4.
 368927,-0.761018,0.95618\H,0,-5.609308,0.196417,0.77835\\Version=ES64L
 -G09RevD.01\State=1-A'\HF=-76.3316831\MP2=-76.422515\RMSD=5.098e-09\PG
 =CS [SG(H2O1)]\\@

 JUST WHEN YOU THINK YOU'VE GOT THE WORLD ON A STRING,

 Normal termination of Gaussian 09 at Wed Aug 26 09:32:16 2020.
