 Gaussian 09, Revision D.01,
 Gaussian 09:  ES64L-G09RevD.01 24-Apr-2013

 --------------------
 #p B2PLYPD3/Def2QZVP
 --------------------

 ---
 h2o
 ---
 Symbolic Z-matrix:
 Charge =  0 Multiplicity = 1

                         Standard orientation:
 ---------------------------------------------------------------------
 Center     Atomic      Atomic             Coordinates (Angstroms)
 Number     Number       Type             X           Y           Z
 ---------------------------------------------------------------------
      1          8           0        0.000000    0.122908    0.000000
      2          1           0        0.737627   -0.499338    0.000000
      3          1           0       -0.737627   -0.483925    0.000000
 ---------------------------------------------------------------------

 SCF Done:  E(RB2PLYPD3) =  -76.3344230917     A.U. after   10 cycles
 E2(B2PLYPD3) =    -0.9018253595D-01 E(B2PLYPD3) =    -0.76424605627604D+02

 The electronic state is 1-A'.
 Alpha  occ. eigenvalues --  -19.73323  -1.15928  -0.60406  -0.48258  -0.40058
 Alpha virt. eigenvalues --    0.04431   0.10271   0.27597   0.30401   0.30570
 Alpha virt. eigenvalues --    0.36490   0.43957   0.49559   0.56891   0.60951
 Alpha virt. eigenvalues --    0.65745   0.81293   0.94312   0.95906   1.02975

 Mulliken charges:
               1
     1  O   -0.435265
     2  H    0.219775
     3  H    0.215491
 Sum of Mulliken charges =   0.00000

 Dipole moment (field-independent basis, Debye):
    X=             -0.0055    Y=             -2.0265    Z=              0.0000  Tot=              2.0265
 Quadrupole moment (field-independent basis, Debye-Ang):
   XX=             -4.5183   YY=             -6.2007   ZZ=             -7.5891
   XY=             -0.0237   XZ=              0.0000   YZ=              0.0000

 1\1\GINC-NODE03\SP\RB2PLYPD3-FC\def2QZVP\H2O1\BOITTIER\26-Aug-2020\0\\
 #p B2PLYPD3/Def2QZVP\\h2o\\0,1\O,0,-5.326605,-0.768052,0.922067\H,0,-4
 .368927,-0.649368,0.929179\H,0,-5.609308,0.122241,0.722575\\Version=ES
 64L-G09RevD.01\State=1-A'\HF=-76.3344231\MP2=-76.4246056\RMSD=4.574e-0
 9\PG=CS [SG(H2O1)]\\@

 ALL OUR THINKING ABOUT NATURE MUST NECESSARILY MOVE IN CIRCLES OR SPIRALS;

 Normal termination of Gaussian 09 at Wed Aug 26 08:49:11 2020.
