 Gaussian 09, Revision D.01,
 Gaussian 09:  ES64L-G09RevD.01 24-Apr-2013

 --------------------
 #p B2PLYPD3/Def2QZVP
 --------------------

 ---
 h2o
 ---
 Symbolic Z-matrix:
 Charge =  0 Multiplicity = 1

                         Standard orientation:
 ---------------------------------------------------------------------
 Center     Atomic      Atomic             Coordinates (Angstroms)
 Number     Number       Type             X           Y           Z
 ---------------------------------------------------------------------
      1          8           0        0.000000    0.116300    0.000000
      2          1           0        0.771350   -0.451489    0.000000
      3          1           0       -0.771350   -0.478910    0.000000
 ---------------------------------------------------------------------

 SCF Done:  E(RB2PLYPD3) =  -76.3346487702     A.U. after   10 cycles
 E2(B2PLYPD3) =    -0.9019591832D-01 E(B2PLYPD3) =    -0.76424844688564D+02

 The electronic state is 1-A'.
 Alpha  occ. eigenvalues --  -19.73190  -1.15246  -0.61185  -0.47112  -0.39871
 Alpha virt. eigenvalues --    0.04475   0.10116   0.27537   0.30435   0.30957
 Alpha virt. eigenvalues --    0.35371   0.43769   0.50450   0.55966   0.62523
 Alpha virt. eigenvalues --    0.65783   0.80872   0.93467   0.96115   1.03561

 Mulliken charges:
               1
     1  O   -0.451613
     2  H    0.222258
     3  H    0.229355
 Sum of Mulliken charges =   0.00000

 Dipole moment (field-independent basis, Debye):
    X=              0.0081    Y=             -1.9452    Z=              0.0000  Tot=              1.9452
 Quadrupole moment (field-independent basis, Debye-Ang):
   XX=             -4.2637   YY=             -6.3691   ZZ=             -7.6127
   XY=              0.0461   XZ=              0.0000   YZ=              0.0000

 1\1\GINC-NODE08\SP\RB2PLYPD3-FC\def2QZVP\H2O1\BOITTIER\26-Aug-2020\0\\
 #p B2PLYPD3/Def2QZVP\\h2o\\0,1\O,0,-5.326605,-0.763837,0.920457\H,0,-4
 .368927,-0.749543,0.916807\H,0,-5.609308,0.154978,0.761985\\Version=ES
 64L-G09RevD.01\State=1-A'\HF=-76.3346488\MP2=-76.4248447\RMSD=4.047e-0
 9\PG=CS [SG(H2O1)]\\@

 IT IS IMPOSSIBLE TO MEDITATE ON TIME AND THE MYSTERY

 Normal termination of Gaussian 09 at Wed Aug 26 10:38:13 2020.
