 Gaussian 09, Revision D.01,
 Gaussian 09:  ES64L-G09RevD.01 24-Apr-2013

 --------------------
 #p B2PLYPD3/Def2QZVP
 --------------------

 ---
 h2o
 ---
 Symbolic Z-matrix:
 Charge =  0 Multiplicity = 1

                         Standard orientation:
 ---------------------------------------------------------------------
 Center     Atomic      Atomic             Coordinates (Angstroms)
 Number     Number       Type             X           Y           Z
 ---------------------------------------------------------------------
      1          8           0        0.000000    0.110483    0.000000
      2          1           0        0.770769   -0.463592    0.000000
      3          1           0       -0.770769   -0.420271    0.000000
 ---------------------------------------------------------------------

 SCF Done:  E(RB2PLYPD3) =  -76.3347457053     A.U. after   10 cycles
 E2(B2PLYPD3) =    -0.8955585842D-01 E(B2PLYPD3) =    -0.76424301563677D+02

 The electronic state is 1-A'.
 Alpha  occ. eigenvalues --  -19.72792  -1.15888  -0.62507  -0.46821  -0.39956
 Alpha virt. eigenvalues --    0.04716   0.10231   0.27384   0.30397   0.31549
 Alpha virt. eigenvalues --    0.35656   0.44265   0.51187   0.55767   0.63521
 Alpha virt. eigenvalues --    0.65286   0.81114   0.93747   0.95866   1.05291

 Mulliken charges:
               1
     1  O   -0.443245
     2  H    0.227726
     3  H    0.215519
 Sum of Mulliken charges =   0.00000

 Dipole moment (field-independent basis, Debye):
    X=             -0.0116    Y=             -1.8891    Z=              0.0000  Tot=              1.8891
 Quadrupole moment (field-independent basis, Debye-Ang):
   XX=             -4.1879   YY=             -6.4365   ZZ=             -7.5777
   XY=             -0.0751   XZ=              0.0000   YZ=              0.0000

 1\1\GINC-NODE31\SP\RB2PLYPD3-FC\def2QZVP\H2O1\BOITTIER\26-Aug-2020\0\\
 #p B2PLYPD3/Def2QZVP\\h2o\\0,1\O,0,-5.326605,-0.760532,0.908975\H,0,-4
 .368927,-0.77832,0.987609\H,0,-5.609308,0.13087,0.873395\\Version=ES64
 L-G09RevD.01\State=1-A'\HF=-76.3347457\MP2=-76.4243016\RMSD=4.357e-09\
 PG=CS [SG(H2O1)]\\@

 LAWS OF PROGRAMMING DEFINITION:  A WORKING PROGRAM

 Normal termination of Gaussian 09 at Wed Aug 26 08:33:58 2020.
