 Gaussian 09, Revision D.01,
 Gaussian 09:  ES64L-G09RevD.01 24-Apr-2013

 --------------------
 #p B2PLYPD3/Def2QZVP
 --------------------

 ---
 h2o
 ---
 Symbolic Z-matrix:
 Charge =  0 Multiplicity = 1

                         Standard orientation:
 ---------------------------------------------------------------------
 Center     Atomic      Atomic             Coordinates (Angstroms)
 Number     Number       Type             X           Y           Z
 ---------------------------------------------------------------------
      1          8           0        0.000000    0.112896    0.000000
      2          1           0        0.769676   -0.458534    0.000000
      3          1           0       -0.769676   -0.444634    0.000000
 ---------------------------------------------------------------------

 SCF Done:  E(RB2PLYPD3) =  -76.3351333946     A.U. after   10 cycles
 E2(B2PLYPD3) =    -0.8977982951D-01 E(B2PLYPD3) =    -0.76424913224152D+02

 The electronic state is 1-A'.
 Alpha  occ. eigenvalues --  -19.72945  -1.15677  -0.61990  -0.46983  -0.39933
 Alpha virt. eigenvalues --    0.04634   0.10198   0.27442   0.30410   0.31347
 Alpha virt. eigenvalues --    0.35606   0.44081   0.50859   0.55888   0.63074
 Alpha virt. eigenvalues --    0.65466   0.81065   0.93704   0.95928   1.04787

 Mulliken charges:
               1
     1  O   -0.445959
     2  H    0.224885
     3  H    0.221074
 Sum of Mulliken charges =   0.00000

 Dipole moment (field-independent basis, Debye):
    X=             -0.0039    Y=             -1.9136    Z=              0.0000  Tot=              1.9136
 Quadrupole moment (field-independent basis, Debye-Ang):
   XX=             -4.2257   YY=             -6.4062   ZZ=             -7.5893
   XY=             -0.0237   XZ=              0.0000   YZ=              0.0000

 1\1\GINC-NODE21\SP\RB2PLYPD3-FC\def2QZVP\H2O1\BOITTIER\26-Aug-2020\0\\
 #p B2PLYPD3/Def2QZVP\\h2o\\0,1\O,0,-5.326605,-0.762196,0.914187\H,0,-4
 .368927,-0.761274,0.956449\H,0,-5.609308,0.140457,0.821785\\Version=ES
 64L-G09RevD.01\State=1-A'\HF=-76.3351334\MP2=-76.4249132\RMSD=3.917e-0
 9\PG=CS [SG(H2O1)]\\@

 KNOWLEDGE IS CHIMERA - FOR BEYOND IT LIES OTHER KNOWLEDGE,

 Normal termination of Gaussian 09 at Wed Aug 26 11:30:25 2020.
