 Gaussian 09, Revision D.01,
 Gaussian 09:  ES64L-G09RevD.01 24-Apr-2013

 --------------------
 #p B2PLYPD3/Def2QZVP
 --------------------

 ---
 h2o
 ---
 Symbolic Z-matrix:
 Charge =  0 Multiplicity = 1

                         Standard orientation:
 ---------------------------------------------------------------------
 Center     Atomic      Atomic             Coordinates (Angstroms)
 Number     Number       Type             X           Y           Z
 ---------------------------------------------------------------------
      1          8           0        0.000000    0.110675    0.000000
      2          1           0        0.781396   -0.447767    0.000000
      3          1           0       -0.781396   -0.437636    0.000000
 ---------------------------------------------------------------------

 SCF Done:  E(RB2PLYPD3) =  -76.3347913095     A.U. after   10 cycles
 E2(B2PLYPD3) =    -0.8983350640D-01 E(B2PLYPD3) =    -0.76424624815864D+02

 The electronic state is 1-A'.
 Alpha  occ. eigenvalues --  -19.72911  -1.15403  -0.62183  -0.46587  -0.39859
 Alpha virt. eigenvalues --    0.04629   0.10137   0.27431   0.30424   0.31489
 Alpha virt. eigenvalues --    0.35134   0.43984   0.51256   0.55572   0.63637
 Alpha virt. eigenvalues --    0.65512   0.80793   0.93491   0.96075   1.05026

 Mulliken charges:
               1
     1  O   -0.452898
     2  H    0.227796
     3  H    0.225102
 Sum of Mulliken charges =   0.00000

 Dipole moment (field-independent basis, Debye):
    X=             -0.0026    Y=             -1.8848    Z=              0.0000  Tot=              1.8848
 Quadrupole moment (field-independent basis, Debye-Ang):
   XX=             -4.1377   YY=             -6.4637   ZZ=             -7.6001
   XY=             -0.0178   XZ=              0.0000   YZ=              0.0000

 1\1\GINC-NODE32\SP\RB2PLYPD3-FC\def2QZVP\H2O1\BOITTIER\26-Aug-2020\0\\
 #p B2PLYPD3/Def2QZVP\\h2o\\0,1\O,0,-5.326605,-0.76072,0.91069\H,0,-4.3
 68927,-0.793992,0.975361\H,0,-5.609308,0.149562,0.858828\\Version=ES64
 L-G09RevD.01\State=1-A'\HF=-76.3347913\MP2=-76.4246248\RMSD=3.760e-09\
 PG=CS [SG(H2O1)]\\@

 O WAD SOME POWER THE GIFTIE GIE US

 Normal termination of Gaussian 09 at Wed Aug 26 08:58:08 2020.
