 Gaussian 09, Revision D.01,
 Gaussian 09:  ES64L-G09RevD.01 24-Apr-2013

 --------------------
 #p B2PLYPD3/Def2QZVP
 --------------------

 ---
 h2o
 ---
 Symbolic Z-matrix:
 Charge =  0 Multiplicity = 1

                         Standard orientation:
 ---------------------------------------------------------------------
 Center     Atomic      Atomic             Coordinates (Angstroms)
 Number     Number       Type             X           Y           Z
 ---------------------------------------------------------------------
      1          8           0        0.000000    0.110875    0.000000
      2          1           0        0.764140   -0.467256    0.000000
      3          1           0       -0.764140   -0.419747    0.000000
 ---------------------------------------------------------------------

 SCF Done:  E(RB2PLYPD3) =  -76.3347012645     A.U. after   10 cycles
 E2(B2PLYPD3) =    -0.8943621084D-01 E(B2PLYPD3) =    -0.76424137475386D+02

 The electronic state is 1-A'.
 Alpha  occ. eigenvalues --  -19.72751  -1.16141  -0.62591  -0.47000  -0.40010
 Alpha virt. eigenvalues --    0.04750   0.10280   0.27366   0.30384   0.31551
 Alpha virt. eigenvalues --    0.35958   0.44397   0.51077   0.55913   0.63352
 Alpha virt. eigenvalues --    0.65191   0.81288   0.93895   0.95750   1.05429

 Mulliken charges:
               1
     1  O   -0.437927
     2  H    0.225859
     3  H    0.212068
 Sum of Mulliken charges =   0.00000

 Dipole moment (field-independent basis, Debye):
    X=             -0.0131    Y=             -1.8969    Z=              0.0000  Tot=              1.8969
 Quadrupole moment (field-independent basis, Debye-Ang):
   XX=             -4.2257   YY=             -6.4140   ZZ=             -7.5666
   XY=             -0.0813   XZ=              0.0000   YZ=              0.0000

 1\1\GINC-NODE32\SP\RB2PLYPD3-FC\def2QZVP\H2O1\BOITTIER\26-Aug-2020\0\\
 #p B2PLYPD3/Def2QZVP\\h2o\\0,1\O,0,-5.326605,-0.759987,0.920668\H,0,-4
 .368927,-0.771873,0.891385\H,0,-5.609308,0.115704,0.783866\\Version=ES
 64L-G09RevD.01\State=1-A'\HF=-76.3347013\MP2=-76.4241375\RMSD=4.531e-0
 9\PG=CS [SG(H2O1)]\\@

 HE WHO LAUGHS LAST PROBABLY DIDN'T GET THE JOKE.

 Normal termination of Gaussian 09 at Wed Aug 26 09:00:46 2020.
