 Gaussian 09, Revision D.01,
 Gaussian 09:  ES64L-G09RevD.01 24-Apr-2013

 --------------------
 #p B2PLYPD3/Def2QZVP
 --------------------

 ---
 h2o
 ---
 Symbolic Z-matrix:
 Charge =  0 Multiplicity = 1

                         Standard orientation:
 ---------------------------------------------------------------------
 Center     Atomic      Atomic             Coordinates (Angstroms)
 Number     Number       Type             X           Y           Z
 ---------------------------------------------------------------------
      1          8           0        0.000000    0.118058    0.000000
      2          1           0        0.777543   -0.441652    0.000000
      3          1           0       -0.777543   -0.502814    0.000000
 ---------------------------------------------------------------------

 SCF Done:  E(RB2PLYPD3) =  -76.3333406719     A.U. after   10 cycles
 E2(B2PLYPD3) =    -0.9055298007D-01 E(B2PLYPD3) =    -0.76423893651970D+02

 The electronic state is 1-A'.
 Alpha  occ. eigenvalues --  -19.73362  -1.14813  -0.60651  -0.47034  -0.39794
 Alpha virt. eigenvalues --    0.04333   0.10022   0.27601   0.30458   0.30628
 Alpha virt. eigenvalues --    0.35022   0.43516   0.50286   0.55874   0.62338
 Alpha virt. eigenvalues --    0.66034   0.80608   0.93074   0.96318   1.02617

 Mulliken charges:
               1
     1  O   -0.457867
     2  H    0.221465
     3  H    0.236402
 Sum of Mulliken charges =   0.00000

 Dipole moment (field-independent basis, Debye):
    X=              0.0184    Y=             -1.9578    Z=              0.0000  Tot=              1.9578
 Quadrupole moment (field-independent basis, Debye-Ang):
   XX=             -4.2572   YY=             -6.3615   ZZ=             -7.6355
   XY=              0.1029   XZ=              0.0000   YZ=              0.0000

 1\1\GINC-NODE01\SP\RB2PLYPD3-FC\def2QZVP\H2O1\BOITTIER\26-Aug-2020\0\\
 #p B2PLYPD3/Def2QZVP\\h2o\\0,1\O,0,-5.326605,-0.765296,0.91886\H,0,-4.
 368927,-0.747575,0.938549\H,0,-5.609308,0.176356,0.765801\\Version=ES6
 4L-G09RevD.01\State=1-A'\HF=-76.3333407\MP2=-76.4238937\RMSD=4.536e-09
 \PG=CS [SG(H2O1)]\\@

 THERE ARE PEOPLE SO ADDICTED TO EXAGERATING THEY

 Normal termination of Gaussian 09 at Wed Aug 26 10:03:27 2020.
