 Gaussian 09, Revision D.01,
 Gaussian 09:  ES64L-G09RevD.01 24-Apr-2013

 --------------------
 #p B2PLYPD3/Def2QZVP
 --------------------

 ---
 h2o
 ---
 Symbolic Z-matrix:
 Charge =  0 Multiplicity = 1

                         Standard orientation:
 ---------------------------------------------------------------------
 Center     Atomic      Atomic             Coordinates (Angstroms)
 Number     Number       Type             X           Y           Z
 ---------------------------------------------------------------------
      1          8           0        0.000000    0.118523    0.000000
      2          1           0        0.743697   -0.502409    0.000000
      3          1           0       -0.743697   -0.445777    0.000000
 ---------------------------------------------------------------------

 SCF Done:  E(RB2PLYPD3) =  -76.3344654271     A.U. after   10 cycles
 E2(B2PLYPD3) =    -0.8980078732D-01 E(B2PLYPD3) =    -0.76424266214401D+02

 The electronic state is 1-A'.
 Alpha  occ. eigenvalues --  -19.73072  -1.16192  -0.61302  -0.47885  -0.40074
 Alpha virt. eigenvalues --    0.04570   0.10313   0.27485   0.30387   0.30916
 Alpha virt. eigenvalues --    0.36534   0.44238   0.50028   0.56597   0.61755
 Alpha virt. eigenvalues --    0.65461   0.81412   0.94134   0.95775   1.03901

 Mulliken charges:
               1
     1  O   -0.432649
     2  H    0.224510
     3  H    0.208140
 Sum of Mulliken charges =   0.00000

 Dipole moment (field-independent basis, Debye):
    X=             -0.0186    Y=             -1.9821    Z=              0.0000  Tot=              1.9822
 Quadrupole moment (field-independent basis, Debye-Ang):
   XX=             -4.4280   YY=             -6.2682   ZZ=             -7.5729
   XY=             -0.0902   XZ=              0.0000   YZ=              0.0000

 1\1\GINC-NODE10\SP\RB2PLYPD3-FC\def2QZVP\H2O1\BOITTIER\26-Aug-2020\0\\
 #p B2PLYPD3/Def2QZVP\\h2o\\0,1\O,0,-5.326605,-0.761185,0.934082\H,0,-4
 .368927,-0.725331,0.791922\H,0,-5.609308,0.088338,0.669678\\Version=ES
 64L-G09RevD.01\State=1-A'\HF=-76.3344654\MP2=-76.4242662\RMSD=4.905e-0
 9\PG=CS [SG(H2O1)]\\@

 THE SECRET OF SUCCESS IN LIFE IS TO EAT WHAT YOU LIKE, AND LET THE FOOD

 Normal termination of Gaussian 09 at Wed Aug 26 09:11:58 2020.
