 Gaussian 09, Revision D.01,
 Gaussian 09:  ES64L-G09RevD.01 24-Apr-2013

 --------------------
 #p B2PLYPD3/Def2QZVP
 --------------------

 ---
 h2o
 ---
 Symbolic Z-matrix:
 Charge =  0 Multiplicity = 1

                         Standard orientation:
 ---------------------------------------------------------------------
 Center     Atomic      Atomic             Coordinates (Angstroms)
 Number     Number       Type             X           Y           Z
 ---------------------------------------------------------------------
      1          8           0        0.000000    0.119469    0.000000
      2          1           0        0.758689   -0.467688    0.000000
      3          1           0       -0.758689   -0.488064    0.000000
 ---------------------------------------------------------------------

 SCF Done:  E(RB2PLYPD3) =  -76.3346829425     A.U. after   10 cycles
 E2(B2PLYPD3) =    -0.9025624027D-01 E(B2PLYPD3) =    -0.76424939182810D+02

 The electronic state is 1-A'.
 Alpha  occ. eigenvalues --  -19.73285  -1.15432  -0.60762  -0.47574  -0.39934
 Alpha virt. eigenvalues --    0.04437   0.10161   0.27578   0.30425   0.30737
 Alpha virt. eigenvalues --    0.35777   0.43789   0.50000   0.56335   0.61811
 Alpha virt. eigenvalues --    0.65828   0.81044   0.93733   0.96056   1.03121

 Mulliken charges:
               1
     1  O   -0.446016
     2  H    0.220325
     3  H    0.225691
 Sum of Mulliken charges =   0.00000

 Dipole moment (field-independent basis, Debye):
    X=              0.0066    Y=             -1.9825    Z=              0.0000  Tot=              1.9825
 Quadrupole moment (field-independent basis, Debye-Ang):
   XX=             -4.3695   YY=             -6.2976   ZZ=             -7.6072
   XY=              0.0331   XZ=              0.0000   YZ=              0.0000

 1\1\GINC-NODE33\SP\RB2PLYPD3-FC\def2QZVP\H2O1\BOITTIER\26-Aug-2020\0\\
 #p B2PLYPD3/Def2QZVP\\h2o\\0,1\O,0,-5.326605,-0.765407,0.923545\H,0,-4
 .368927,-0.713085,0.901691\H,0,-5.609308,0.143648,0.727575\\Version=ES
 64L-G09RevD.01\State=1-A'\HF=-76.3346829\MP2=-76.4249392\RMSD=4.178e-0
 9\PG=CS [SG(H2O1)]\\@

 MOST BUREAUCRACIES FUNCTION LIKE A SEPTIC TANK.

 Normal termination of Gaussian 09 at Wed Aug 26 08:32:53 2020.
