 Gaussian 09, Revision D.01,
 Gaussian 09:  ES64L-G09RevD.01 24-Apr-2013

 --------------------
 #p B2PLYPD3/Def2QZVP
 --------------------

 ---
 h2o
 ---
 Symbolic Z-matrix:
 Charge =  0 Multiplicity = 1

                         Standard orientation:
 ---------------------------------------------------------------------
 Center     Atomic      Atomic             Coordinates (Angstroms)
 Number     Number       Type             X           Y           Z
 ---------------------------------------------------------------------
      1          8           0        0.000000    0.120187    0.000000
      2          1           0        0.800791   -0.407551    0.000000
      3          1           0       -0.800791   -0.553946    0.000000
 ---------------------------------------------------------------------

 SCF Done:  E(RB2PLYPD3) =  -76.3272895975     A.U. after   10 cycles
 E2(B2PLYPD3) =    -0.9141603705D-01 E(B2PLYPD3) =    -0.76418705634535D+02

 The electronic state is 1-A'.
 Alpha  occ. eigenvalues --  -19.73688  -1.13730  -0.59657  -0.46501  -0.39572
 Alpha virt. eigenvalues --    0.03930   0.09753   0.27687   0.29647   0.30518
 Alpha virt. eigenvalues --    0.34160   0.42983   0.50221   0.55347   0.62409
 Alpha virt. eigenvalues --    0.66561   0.79729   0.91547   0.96778   1.00900

 Mulliken charges:
               1
     1  O   -0.474089
     2  H    0.221688
     3  H    0.252401
 Sum of Mulliken charges =   0.00000

 Dipole moment (field-independent basis, Debye):
    X=              0.0428    Y=             -1.9614    Z=              0.0000  Tot=              1.9618
 Quadrupole moment (field-independent basis, Debye-Ang):
   XX=             -4.1692   YY=             -6.3816   ZZ=             -7.6946
   XY=              0.2523   XZ=              0.0000   YZ=              0.0000

 1\1\GINC-NODE18\SP\RB2PLYPD3-FC\def2QZVP\H2O1\BOITTIER\26-Aug-2020\0\\
 #p B2PLYPD3/Def2QZVP\\h2o\\0,1\O,0,-5.326605,-0.767005,0.916615\H,0,-4
 .368927,-0.774534,0.967311\H,0,-5.609308,0.230661,0.773565\\Version=ES
 64L-G09RevD.01\State=1-A'\HF=-76.3272896\MP2=-76.4187056\RMSD=6.378e-0
 9\PG=CS [SG(H2O1)]\\@

       THE DEATH-KNELL OF THE ATOM

 Normal termination of Gaussian 09 at Wed Aug 26 09:06:41 2020.
