 Gaussian 09, Revision D.01,
 Gaussian 09:  ES64L-G09RevD.01 24-Apr-2013

 --------------------
 #p B2PLYPD3/Def2QZVP
 --------------------

 ---
 h2o
 ---
 Symbolic Z-matrix:
 Charge =  0 Multiplicity = 1

                         Standard orientation:
 ---------------------------------------------------------------------
 Center     Atomic      Atomic             Coordinates (Angstroms)
 Number     Number       Type             X           Y           Z
 ---------------------------------------------------------------------
      1          8           0        0.000000    0.115188    0.000000
      2          1           0        0.729133   -0.511564    0.000000
      3          1           0       -0.729133   -0.409944    0.000000
 ---------------------------------------------------------------------

 SCF Done:  E(RB2PLYPD3) =  -76.3318807684     A.U. after   10 cycles
 E2(B2PLYPD3) =    -0.8910029715D-01 E(B2PLYPD3) =    -0.76420981065558D+02

 The electronic state is 1-A'.
 Alpha  occ. eigenvalues --  -19.72682  -1.17267  -0.62408  -0.48046  -0.40251
 Alpha virt. eigenvalues --    0.04774   0.10494   0.27310   0.30333   0.31251
 Alpha virt. eigenvalues --    0.37369   0.44959   0.50322   0.56730   0.62109
 Alpha virt. eigenvalues --    0.64894   0.81844   0.94367   0.95441   1.05094

 Mulliken charges:
               1
     1  O   -0.412883
     2  H    0.223159
     3  H    0.189725
 Sum of Mulliken charges =   0.00000

 Dipole moment (field-independent basis, Debye):
    X=             -0.0329    Y=             -1.9581    Z=              0.0000  Tot=              1.9584
 Quadrupole moment (field-independent basis, Debye-Ang):
   XX=             -4.4500   YY=             -6.2644   ZZ=             -7.5243
   XY=             -0.1610   XZ=              0.0000   YZ=              0.0000

 1\1\GINC-NODE26\SP\RB2PLYPD3-FC\def2QZVP\H2O1\BOITTIER\26-Aug-2020\0\\
 #p B2PLYPD3/Def2QZVP\\h2o\\0,1\O,0,-5.326605,-0.762274,0.924091\H,0,-4
 .368927,-0.690556,0.877576\H,0,-5.609308,0.070977,0.741961\\Version=ES
 64L-G09RevD.01\State=1-A'\HF=-76.3318808\MP2=-76.4209811\RMSD=6.163e-0
 9\PG=CS [SG(H2O1)]\\@

 GOD DOES NOT PLAY WITH DICE.

 Normal termination of Gaussian 09 at Wed Aug 26 08:30:13 2020.
