 Gaussian 09, Revision D.01,
 Gaussian 09:  ES64L-G09RevD.01 24-Apr-2013

 --------------------
 #p B2PLYPD3/Def2QZVP
 --------------------

 ---
 h2o
 ---
 Symbolic Z-matrix:
 Charge =  0 Multiplicity = 1

                         Standard orientation:
 ---------------------------------------------------------------------
 Center     Atomic      Atomic             Coordinates (Angstroms)
 Number     Number       Type             X           Y           Z
 ---------------------------------------------------------------------
      1          8           0        0.000000    0.115524    0.000000
      2          1           0        0.763001   -0.464405    0.000000
      3          1           0       -0.763001   -0.459788    0.000000
 ---------------------------------------------------------------------

 SCF Done:  E(RB2PLYPD3) =  -76.3351957282     A.U. after   10 cycles
 E2(B2PLYPD3) =    -0.8990597918D-01 E(B2PLYPD3) =    -0.76425101707387D+02

 The electronic state is 1-A'.
 Alpha  occ. eigenvalues --  -19.73058  -1.15681  -0.61558  -0.47279  -0.39954
 Alpha virt. eigenvalues --    0.04577   0.10206   0.27485   0.30411   0.31130
 Alpha virt. eigenvalues --    0.35799   0.44017   0.50482   0.56118   0.62524
 Alpha virt. eigenvalues --    0.65565   0.81133   0.93783   0.95922   1.04225

 Mulliken charges:
               1
     1  O   -0.444145
     2  H    0.222704
     3  H    0.221442
 Sum of Mulliken charges =   0.00000

 Dipole moment (field-independent basis, Debye):
    X=             -0.0014    Y=             -1.9428    Z=              0.0000  Tot=              1.9428
 Quadrupole moment (field-independent basis, Debye-Ang):
   XX=             -4.2941   YY=             -6.3572   ZZ=             -7.5916
   XY=             -0.0077   XZ=              0.0000   YZ=              0.0000

 1\1\GINC-NODE13\SP\RB2PLYPD3-FC\def2QZVP\H2O1\BOITTIER\26-Aug-2020\0\\
 #p B2PLYPD3/Def2QZVP\\h2o\\0,1\O,0,-5.326605,-0.762819,0.922857\H,0,-4
 .368927,-0.744145,0.891361\H,0,-5.609308,0.133296,0.749043\\Version=ES
 64L-G09RevD.01\State=1-A'\HF=-76.3351957\MP2=-76.4251017\RMSD=3.982e-0
 9\PG=CS [SG(H2O1)]\\@

 ALL MEN WHO EXPLORE

 Normal termination of Gaussian 09 at Wed Aug 26 10:19:53 2020.
