 Gaussian 09, Revision D.01,
 Gaussian 09:  ES64L-G09RevD.01 24-Apr-2013

 --------------------
 #p B2PLYPD3/Def2QZVP
 --------------------

 ---
 h2o
 ---
 Symbolic Z-matrix:
 Charge =  0 Multiplicity = 1

                         Standard orientation:
 ---------------------------------------------------------------------
 Center     Atomic      Atomic             Coordinates (Angstroms)
 Number     Number       Type             X           Y           Z
 ---------------------------------------------------------------------
      1          8           0        0.000000    0.114221    0.000000
      2          1           0        0.774221   -0.449484    0.000000
      3          1           0       -0.774221   -0.464287    0.000000
 ---------------------------------------------------------------------

 SCF Done:  E(RB2PLYPD3) =  -76.3348834358     A.U. after   10 cycles
 E2(B2PLYPD3) =    -0.9003433106D-01 E(B2PLYPD3) =    -0.76424917766848D+02

 The electronic state is 1-A'.
 Alpha  occ. eigenvalues --  -19.73078  -1.15342  -0.61579  -0.46941  -0.39875
 Alpha virt. eigenvalues --    0.04543   0.10133   0.27493   0.30429   0.31169
 Alpha virt. eigenvalues --    0.35333   0.43867   0.50729   0.55841   0.62914
 Alpha virt. eigenvalues --    0.65662   0.80882   0.93503   0.96071   1.04149

 Mulliken charges:
               1
     1  O   -0.451398
     2  H    0.223754
     3  H    0.227644
 Sum of Mulliken charges =   0.00000

 Dipole moment (field-independent basis, Debye):
    X=              0.0042    Y=             -1.9237    Z=              0.0000  Tot=              1.9237
 Quadrupole moment (field-independent basis, Debye-Ang):
   XX=             -4.2212   YY=             -6.4022   ZZ=             -7.6061
   XY=              0.0253   XZ=              0.0000   YZ=              0.0000

 1\1\GINC-NODE36\SP\RB2PLYPD3-FC\def2QZVP\H2O1\BOITTIER\26-Aug-2020\0\\
 #p B2PLYPD3/Def2QZVP\\h2o\\0,1\O,0,-5.326605,-0.762525,0.91967\H,0,-4.
 368927,-0.766065,0.915056\H,0,-5.609308,0.150508,0.776353\\Version=ES6
 4L-G09RevD.01\State=1-A'\HF=-76.3348834\MP2=-76.4249178\RMSD=3.876e-09
 \PG=CS [SG(H2O1)]\\@

 Money is a good servant but a bad master.

 Normal termination of Gaussian 09 at Wed Aug 26 11:53:51 2020.
