 Gaussian 09, Revision D.01,
 Gaussian 09:  ES64L-G09RevD.01 24-Apr-2013

 --------------------
 #p B2PLYPD3/Def2QZVP
 --------------------

 ---
 h2o
 ---
 Symbolic Z-matrix:
 Charge =  0 Multiplicity = 1

                         Standard orientation:
 ---------------------------------------------------------------------
 Center     Atomic      Atomic             Coordinates (Angstroms)
 Number     Number       Type             X           Y           Z
 ---------------------------------------------------------------------
      1          8           0        0.000000    0.114186    0.000000
      2          1           0        0.802046   -0.412433    0.000000
      3          1           0       -0.802046   -0.501053    0.000000
 ---------------------------------------------------------------------

 SCF Done:  E(RB2PLYPD3) =  -76.3313432543     A.U. after   10 cycles
 E2(B2PLYPD3) =    -0.9074412372D-01 E(B2PLYPD3) =    -0.76422087378053D+02

 The electronic state is 1-A'.
 Alpha  occ. eigenvalues --  -19.73326  -1.14218  -0.60873  -0.46249  -0.39632
 Alpha virt. eigenvalues --    0.04259   0.09882   0.27564   0.30493   0.30692
 Alpha virt. eigenvalues --    0.34175   0.43292   0.50996   0.55229   0.63355
 Alpha virt. eigenvalues --    0.66171   0.79962   0.92426   0.96601   1.02476

 Mulliken charges:
               1
     1  O   -0.472043
     2  H    0.225924
     3  H    0.246119
 Sum of Mulliken charges =   0.00000

 Dipole moment (field-independent basis, Debye):
    X=              0.0232    Y=             -1.9057    Z=              0.0000  Tot=              1.9058
 Quadrupole moment (field-independent basis, Debye-Ang):
   XX=             -4.0802   YY=             -6.4694   ZZ=             -7.6622
   XY=              0.1577   XZ=              0.0000   YZ=              0.0000

 1\1\GINC-NODE36\SP\RB2PLYPD3-FC\def2QZVP\H2O1\BOITTIER\26-Aug-2020\0\\
 #p B2PLYPD3/Def2QZVP\\h2o\\0,1\O,0,-5.326605,-0.763008,0.91548\H,0,-4.
 368927,-0.809262,0.951794\H,0,-5.609308,0.201431,0.807158\\Version=ES6
 4L-G09RevD.01\State=1-A'\HF=-76.3313433\MP2=-76.4220874\RMSD=5.164e-09
 \PG=CS [SG(H2O1)]\\@

 One man practicing sportsmanship is far better than 50 preaching it.

 Normal termination of Gaussian 09 at Wed Aug 26 08:54:32 2020.
