 Gaussian 09, Revision D.01,
 Gaussian 09:  ES64L-G09RevD.01 24-Apr-2013

 --------------------
 #p B2PLYPD3/Def2QZVP
 --------------------

 ---
 h2o
 ---
 Symbolic Z-matrix:
 Charge =  0 Multiplicity = 1

                         Standard orientation:
 ---------------------------------------------------------------------
 Center     Atomic      Atomic             Coordinates (Angstroms)
 Number     Number       Type             X           Y           Z
 ---------------------------------------------------------------------
      1          8           0        0.000000    0.117780    0.000000
      2          1           0        0.747366   -0.487592    0.000000
      3          1           0       -0.747366   -0.454649    0.000000
 ---------------------------------------------------------------------

 SCF Done:  E(RB2PLYPD3) =  -76.3349666965     A.U. after   10 cycles
 E2(B2PLYPD3) =    -0.8979503648D-01 E(B2PLYPD3) =    -0.76424761732938D+02

 The electronic state is 1-A'.
 Alpha  occ. eigenvalues --  -19.73059  -1.16110  -0.61395  -0.47769  -0.40055
 Alpha virt. eigenvalues --    0.04588   0.10296   0.27483   0.30390   0.31005
 Alpha virt. eigenvalues --    0.36410   0.44196   0.50125   0.56512   0.61918
 Alpha virt. eigenvalues --    0.65472   0.81384   0.94128   0.95772   1.04102

 Mulliken charges:
               1
     1  O   -0.434784
     2  H    0.222115
     3  H    0.212668
 Sum of Mulliken charges =   0.00000

 Dipole moment (field-independent basis, Debye):
    X=             -0.0106    Y=             -1.9732    Z=              0.0000  Tot=              1.9733
 Quadrupole moment (field-independent basis, Debye-Ang):
   XX=             -4.4004   YY=             -6.2882   ZZ=             -7.5750
   XY=             -0.0530   XZ=              0.0000   YZ=              0.0000

 1\1\GINC-NODE03\SP\RB2PLYPD3-FC\def2QZVP\H2O1\BOITTIER\26-Aug-2020\0\\
 #p B2PLYPD3/Def2QZVP\\h2o\\0,1\O,0,-5.326605,-0.763073,0.927783\H,0,-4
 .368927,-0.714369,0.85354\H,0,-5.609308,0.107587,0.708099\\Version=ES6
 4L-G09RevD.01\State=1-A'\HF=-76.3349667\MP2=-76.4247617\RMSD=4.470e-09
 \PG=CS [SG(H2O1)]\\@

 THE THINKER DIES, BUT HIS THOUGHTS ARE BEYOND THE

 Normal termination of Gaussian 09 at Wed Aug 26 12:26:11 2020.
