 Gaussian 09, Revision D.01,
 Gaussian 09:  ES64L-G09RevD.01 24-Apr-2013

 --------------------
 #p B2PLYPD3/Def2QZVP
 --------------------

 ---
 h2o
 ---
 Symbolic Z-matrix:
 Charge =  0 Multiplicity = 1

                         Standard orientation:
 ---------------------------------------------------------------------
 Center     Atomic      Atomic             Coordinates (Angstroms)
 Number     Number       Type             X           Y           Z
 ---------------------------------------------------------------------
      1          8           0        0.000000    0.124418    0.000000
      2          1           0        0.741939   -0.497059    0.000000
      3          1           0       -0.741939   -0.498282    0.000000
 ---------------------------------------------------------------------

 SCF Done:  E(RB2PLYPD3) =  -76.3340127949     A.U. after   10 cycles
 E2(B2PLYPD3) =    -0.9046810086D-01 E(B2PLYPD3) =    -0.76424480895721D+02

 The electronic state is 1-A'.
 Alpha  occ. eigenvalues --  -19.73470  -1.15566  -0.59978  -0.48218  -0.40000
 Alpha virt. eigenvalues --    0.04336   0.10196   0.27661   0.30369   0.30418
 Alpha virt. eigenvalues --    0.36171   0.43730   0.49428   0.56847   0.60781
 Alpha virt. eigenvalues --    0.65957   0.81126   0.94131   0.96073   1.02339

 Mulliken charges:
               1
     1  O   -0.440518
     2  H    0.220097
     3  H    0.220421
 Sum of Mulliken charges =   0.00000

 Dipole moment (field-independent basis, Debye):
    X=              0.0004    Y=             -2.0377    Z=              0.0000  Tot=              2.0377
 Quadrupole moment (field-independent basis, Debye-Ang):
   XX=             -4.5194   YY=             -6.1932   ZZ=             -7.6069
   XY=              0.0019   XZ=              0.0000   YZ=              0.0000

 1\1\GINC-NODE08\SP\RB2PLYPD3-FC\def2QZVP\H2O1\BOITTIER\26-Aug-2020\0\\
 #p B2PLYPD3/Def2QZVP\\h2o\\0,1\O,0,-5.326605,-0.765676,0.933621\H,0,-4
 .368927,-0.680025,0.823063\H,0,-5.609308,0.114881,0.64565\\Version=ES6
 4L-G09RevD.01\State=1-A'\HF=-76.3340128\MP2=-76.4244809\RMSD=4.479e-09
 \PG=CS [SG(H2O1)]\\@

 IF GOD HAD MEANT MAN TO SEE THE SUN RISE, HE

 Normal termination of Gaussian 09 at Wed Aug 26 09:25:24 2020.
