 Gaussian 09, Revision D.01,
 Gaussian 09:  ES64L-G09RevD.01 24-Apr-2013

 --------------------
 #p B2PLYPD3/Def2QZVP
 --------------------

 ---
 h2o
 ---
 Symbolic Z-matrix:
 Charge =  0 Multiplicity = 1

                         Standard orientation:
 ---------------------------------------------------------------------
 Center     Atomic      Atomic             Coordinates (Angstroms)
 Number     Number       Type             X           Y           Z
 ---------------------------------------------------------------------
      1          8           0        0.000000    0.116985    0.000000
      2          1           0        0.751574   -0.479013    0.000000
      3          1           0       -0.751574   -0.456868    0.000000
 ---------------------------------------------------------------------

 SCF Done:  E(RB2PLYPD3) =  -76.3351430554     A.U. after   10 cycles
 E2(B2PLYPD3) =    -0.8980080875D-01 E(B2PLYPD3) =    -0.76424943864133D+02

 The electronic state is 1-A'.
 Alpha  occ. eigenvalues --  -19.73046  -1.16015  -0.61486  -0.47629  -0.40031
 Alpha virt. eigenvalues --    0.04596   0.10276   0.27479   0.30395   0.31064
 Alpha virt. eigenvalues --    0.36260   0.44161   0.50237   0.56402   0.62109
 Alpha virt. eigenvalues --    0.65481   0.81335   0.94051   0.95795   1.04213

 Mulliken charges:
               1
     1  O   -0.437029
     2  H    0.221658
     3  H    0.215371
 Sum of Mulliken charges =   0.00000

 Dipole moment (field-independent basis, Debye):
    X=             -0.0070    Y=             -1.9634    Z=              0.0000  Tot=              1.9634
 Quadrupole moment (field-independent basis, Debye-Ang):
   XX=             -4.3694   YY=             -6.3093   ZZ=             -7.5782
   XY=             -0.0360   XZ=              0.0000   YZ=              0.0000

 1\1\GINC-NODE24\SP\RB2PLYPD3-FC\def2QZVP\H2O1\BOITTIER\26-Aug-2020\0\\
 #p B2PLYPD3/Def2QZVP\\h2o\\0,1\O,0,-5.326605,-0.763932,0.922403\H,0,-4
 .368927,-0.713975,0.901566\H,0,-5.609308,0.120931,0.745576\\Version=ES
 64L-G09RevD.01\State=1-A'\HF=-76.3351431\MP2=-76.4249439\RMSD=4.278e-0
 9\PG=CS [SG(H2O1)]\\@

 TO DRY ONE'S EYES AND LAUGH AT A FALL

 Normal termination of Gaussian 09 at Wed Aug 26 10:14:14 2020.
