 Gaussian 09, Revision D.01,
 Gaussian 09:  ES64L-G09RevD.01 24-Apr-2013

 --------------------
 #p B2PLYPD3/Def2QZVP
 --------------------

 ---
 h2o
 ---
 Symbolic Z-matrix:
 Charge =  0 Multiplicity = 1

                         Standard orientation:
 ---------------------------------------------------------------------
 Center     Atomic      Atomic             Coordinates (Angstroms)
 Number     Number       Type             X           Y           Z
 ---------------------------------------------------------------------
      1          8           0        0.000000    0.115713    0.000000
      2          1           0        0.768774   -0.455681    0.000000
      3          1           0       -0.768774   -0.470025    0.000000
 ---------------------------------------------------------------------

 SCF Done:  E(RB2PLYPD3) =  -76.3349537986     A.U. after   10 cycles
 E2(B2PLYPD3) =    -0.9006654316D-01 E(B2PLYPD3) =    -0.76425020341745D+02

 The electronic state is 1-A'.
 Alpha  occ. eigenvalues --  -19.73126  -1.15415  -0.61378  -0.47147  -0.39901
 Alpha virt. eigenvalues --    0.04523   0.10151   0.27512   0.30425   0.31056
 Alpha virt. eigenvalues --    0.35518   0.43871   0.50501   0.56004   0.62580
 Alpha virt. eigenvalues --    0.65687   0.80971   0.93593   0.96038   1.03899

 Mulliken charges:
               1
     1  O   -0.448953
     2  H    0.222579
     3  H    0.226374
 Sum of Mulliken charges =   0.00000

 Dipole moment (field-independent basis, Debye):
    X=              0.0042    Y=             -1.9412    Z=              0.0000  Tot=              1.9412
 Quadrupole moment (field-independent basis, Debye-Ang):
   XX=             -4.2684   YY=             -6.3699   ZZ=             -7.6041
   XY=              0.0241   XZ=              0.0000   YZ=              0.0000

 1\1\GINC-NODE06\SP\RB2PLYPD3-FC\def2QZVP\H2O1\BOITTIER\26-Aug-2020\0\\
 #p B2PLYPD3/Def2QZVP\\h2o\\0,1\O,0,-5.326605,-0.763303,0.921155\H,0,-4
 .368927,-0.749809,0.907944\H,0,-5.609308,0.146701,0.759682\\Version=ES
 64L-G09RevD.01\State=1-A'\HF=-76.3349538\MP2=-76.4250203\RMSD=3.950e-0
 9\PG=CS [SG(H2O1)]\\@

 POCKETA-POCKETA

 Normal termination of Gaussian 09 at Wed Aug 26 10:16:52 2020.
