 Gaussian 09, Revision D.01,
 Gaussian 09:  ES64L-G09RevD.01 24-Apr-2013

 --------------------
 #p B2PLYPD3/Def2QZVP
 --------------------

 ---
 h2o
 ---
 Symbolic Z-matrix:
 Charge =  0 Multiplicity = 1

                         Standard orientation:
 ---------------------------------------------------------------------
 Center     Atomic      Atomic             Coordinates (Angstroms)
 Number     Number       Type             X           Y           Z
 ---------------------------------------------------------------------
      1          8           0        0.000000    0.115549    0.000000
      2          1           0        0.763976   -0.462889    0.000000
      3          1           0       -0.763976   -0.461503    0.000000
 ---------------------------------------------------------------------

 SCF Done:  E(RB2PLYPD3) =  -76.3351726368     A.U. after   10 cycles
 E2(B2PLYPD3) =    -0.8993211189D-01 E(B2PLYPD3) =    -0.76425104748714D+02

 The electronic state is 1-A'.
 Alpha  occ. eigenvalues --  -19.73069  -1.15637  -0.61529  -0.47257  -0.39945
 Alpha virt. eigenvalues --    0.04568   0.10197   0.27490   0.30413   0.31120
 Alpha virt. eigenvalues --    0.35752   0.43992   0.50486   0.56098   0.62535
 Alpha virt. eigenvalues --    0.65586   0.81106   0.93753   0.95941   1.04176

 Mulliken charges:
               1
     1  O   -0.444963
     2  H    0.222670
     3  H    0.222293
 Sum of Mulliken charges =   0.00000

 Dipole moment (field-independent basis, Debye):
    X=             -0.0004    Y=             -1.9425    Z=              0.0000  Tot=              1.9425
 Quadrupole moment (field-independent basis, Debye-Ang):
   XX=             -4.2897   YY=             -6.3595   ZZ=             -7.5937
   XY=             -0.0023   XZ=              0.0000   YZ=              0.0000

 1\1\GINC-NODE13\SP\RB2PLYPD3-FC\def2QZVP\H2O1\BOITTIER\26-Aug-2020\0\\
 #p B2PLYPD3/Def2QZVP\\h2o\\0,1\O,0,-5.326605,-0.762909,0.922528\H,0,-4
 .368927,-0.745023,0.894548\H,0,-5.609308,0.135616,0.751122\\Version=ES
 64L-G09RevD.01\State=1-A'\HF=-76.3351726\MP2=-76.4251047\RMSD=3.964e-0
 9\PG=CS [SG(H2O1)]\\@

 A MAN IS NEVER SO BRILLIANT AS WHEN HE TAKES THE WORDS RIGHT OUT

 Normal termination of Gaussian 09 at Wed Aug 26 09:32:13 2020.
