 Gaussian 09, Revision D.01,
 Gaussian 09:  ES64L-G09RevD.01 24-Apr-2013

 --------------------
 #p B2PLYPD3/Def2QZVP
 --------------------

 ---
 h2o
 ---
 Symbolic Z-matrix:
 Charge =  0 Multiplicity = 1

                         Standard orientation:
 ---------------------------------------------------------------------
 Center     Atomic      Atomic             Coordinates (Angstroms)
 Number     Number       Type             X           Y           Z
 ---------------------------------------------------------------------
      1          8           0        0.000000    0.118944    0.000000
      2          1           0        0.756689   -0.471103    0.000000
      3          1           0       -0.756689   -0.480451    0.000000
 ---------------------------------------------------------------------

 SCF Done:  E(RB2PLYPD3) =  -76.3349137341     A.U. after   10 cycles
 E2(B2PLYPD3) =    -0.9014677454D-01 E(B2PLYPD3) =    -0.76425060508620D+02

 The electronic state is 1-A'.
 Alpha  occ. eigenvalues --  -19.73231  -1.15573  -0.60924  -0.47600  -0.39959
 Alpha virt. eigenvalues --    0.04476   0.10190   0.27555   0.30418   0.30820
 Alpha virt. eigenvalues --    0.35902   0.43874   0.50047   0.56363   0.61864
 Alpha virt. eigenvalues --    0.65747   0.81119   0.93831   0.95991   1.03388

 Mulliken charges:
               1
     1  O   -0.443873
     2  H    0.220683
     3  H    0.223190
 Sum of Mulliken charges =   0.00000

 Dipole moment (field-independent basis, Debye):
    X=              0.0030    Y=             -1.9788    Z=              0.0000  Tot=              1.9788
 Quadrupole moment (field-independent basis, Debye-Ang):
   XX=             -4.3719   YY=             -6.2991   ZZ=             -7.6001
   XY=              0.0152   XZ=              0.0000   YZ=              0.0000

 1\1\GINC-NODE04\SP\RB2PLYPD3-FC\def2QZVP\H2O1\BOITTIER\26-Aug-2020\0\\
 #p B2PLYPD3/Def2QZVP\\h2o\\0,1\O,0,-5.326605,-0.764855,0.92435\H,0,-4.
 368927,-0.714536,0.891876\H,0,-5.609308,0.136261,0.724546\\Version=ES6
 4L-G09RevD.01\State=1-A'\HF=-76.3349137\MP2=-76.4250605\RMSD=4.138e-09
 \PG=CS [SG(H2O1)]\\@

 I CLAIM NOT TO HAVE CONTROLLED EVENTS,

 Normal termination of Gaussian 09 at Wed Aug 26 11:06:52 2020.
