 Gaussian 09, Revision D.01,
 Gaussian 09:  ES64L-G09RevD.01 24-Apr-2013

 --------------------
 #p B2PLYPD3/Def2QZVP
 --------------------

 ---
 h2o
 ---
 Symbolic Z-matrix:
 Charge =  0 Multiplicity = 1

                         Standard orientation:
 ---------------------------------------------------------------------
 Center     Atomic      Atomic             Coordinates (Angstroms)
 Number     Number       Type             X           Y           Z
 ---------------------------------------------------------------------
      1          8           0        0.000000    0.120256    0.000000
      2          1           0        0.733385   -0.504582    0.000000
      3          1           0       -0.733385   -0.457462    0.000000
 ---------------------------------------------------------------------

 SCF Done:  E(RB2PLYPD3) =  -76.3343213093     A.U. after   10 cycles
 E2(B2PLYPD3) =    -0.8976752864D-01 E(B2PLYPD3) =    -0.76424088837972D+02

 The electronic state is 1-A'.
 Alpha  occ. eigenvalues --  -19.73093  -1.16437  -0.61108  -0.48231  -0.40135
 Alpha virt. eigenvalues --    0.04567   0.10366   0.27494   0.30376   0.30848
 Alpha virt. eigenvalues --    0.36886   0.44313   0.49803   0.56879   0.61314
 Alpha virt. eigenvalues --    0.65428   0.81515   0.94435   0.95687   1.03892

 Mulliken charges:
               1
     1  O   -0.427510
     2  H    0.220750
     3  H    0.206760
 Sum of Mulliken charges =   0.00000

 Dipole moment (field-independent basis, Debye):
    X=             -0.0163    Y=             -2.0043    Z=              0.0000  Tot=              2.0044
 Quadrupole moment (field-independent basis, Debye-Ang):
   XX=             -4.5008   YY=             -6.2209   ZZ=             -7.5641
   XY=             -0.0731   XZ=              0.0000   YZ=              0.0000

 1\1\GINC-NODE04\SP\RB2PLYPD3-FC\def2QZVP\H2O1\BOITTIER\26-Aug-2020\0\\
 #p B2PLYPD3/Def2QZVP\\h2o\\0,1\O,0,-5.326605,-0.765818,0.924061\H,0,-4
 .368927,-0.6632,0.899599\H,0,-5.609308,0.100338,0.720434\\Version=ES64
 L-G09RevD.01\State=1-A'\HF=-76.3343213\MP2=-76.4240888\RMSD=4.965e-09\
 PG=CS [SG(H2O1)]\\@

 QED = W**5 (WHICH WAS WHAT WE WANTED)

 Normal termination of Gaussian 09 at Wed Aug 26 11:16:36 2020.
