 Gaussian 09, Revision D.01,
 Gaussian 09:  ES64L-G09RevD.01 24-Apr-2013

 --------------------
 #p B2PLYPD3/Def2QZVP
 --------------------

 ---
 h2o
 ---
 Symbolic Z-matrix:
 Charge =  0 Multiplicity = 1

                         Standard orientation:
 ---------------------------------------------------------------------
 Center     Atomic      Atomic             Coordinates (Angstroms)
 Number     Number       Type             X           Y           Z
 ---------------------------------------------------------------------
      1          8           0        0.000000    0.115951    0.000000
      2          1           0        0.706900   -0.543501    0.000000
      3          1           0       -0.706900   -0.384106    0.000000
 ---------------------------------------------------------------------

 SCF Done:  E(RB2PLYPD3) =  -76.3254185160     A.U. after   10 cycles
 E2(B2PLYPD3) =    -0.8872340678D-01 E(B2PLYPD3) =    -0.76414141922829D+02

 The electronic state is 1-A'.
 Alpha  occ. eigenvalues --  -19.72482  -1.18286  -0.62690  -0.48566  -0.40428
 Alpha virt. eigenvalues --    0.04803   0.10655   0.27189   0.30291   0.31129
 Alpha virt. eigenvalues --    0.38167   0.45621   0.50150   0.57089   0.61720
 Alpha virt. eigenvalues --    0.64537   0.82088   0.94297   0.95390   1.05103

 Mulliken charges:
               1
     1  O   -0.390170
     2  H    0.224340
     3  H    0.165830
 Sum of Mulliken charges =   0.00000

 Dipole moment (field-independent basis, Debye):
    X=             -0.0547    Y=             -1.9762    Z=              0.0000  Tot=              1.9770
 Quadrupole moment (field-independent basis, Debye-Ang):
   XX=             -4.5602   YY=             -6.1859   ZZ=             -7.4877
   XY=             -0.2425   XZ=              0.0000   YZ=              0.0000

 1\1\GINC-NODE21\SP\RB2PLYPD3-FC\def2QZVP\H2O1\BOITTIER\26-Aug-2020\0\\
 #p B2PLYPD3/Def2QZVP\\h2o\\0,1\O,0,-5.326605,-0.761907,0.927254\H,0,-4
 .368927,-0.65496,0.849796\H,0,-5.609308,0.029512,0.718688\\Version=ES6
 4L-G09RevD.01\State=1-A'\HF=-76.3254185\MP2=-76.4141419\RMSD=6.734e-09
 \PG=CS [SG(H2O1)]\\@

 I SUPPOSE A BABY LLAMA HAS A MMAMA AND A PPOPA.

 Normal termination of Gaussian 09 at Wed Aug 26 09:01:39 2020.
