 Gaussian 09, Revision D.01,
 Gaussian 09:  ES64L-G09RevD.01 24-Apr-2013

 --------------------
 #p B2PLYPD3/Def2QZVP
 --------------------

 ---
 h2o
 ---
 Symbolic Z-matrix:
 Charge =  0 Multiplicity = 1

                         Standard orientation:
 ---------------------------------------------------------------------
 Center     Atomic      Atomic             Coordinates (Angstroms)
 Number     Number       Type             X           Y           Z
 ---------------------------------------------------------------------
      1          8           0        0.000000    0.114739    0.000000
      2          1           0        0.761843   -0.466366    0.000000
      3          1           0       -0.761843   -0.451550    0.000000
 ---------------------------------------------------------------------

 SCF Done:  E(RB2PLYPD3) =  -76.3352268471     A.U. after   10 cycles
 E2(B2PLYPD3) =    -0.8979154589D-01 E(B2PLYPD3) =    -0.76425018392961D+02

 The electronic state is 1-A'.
 Alpha  occ. eigenvalues --  -19.72993  -1.15818  -0.61764  -0.47266  -0.39975
 Alpha virt. eigenvalues --    0.04617   0.10231   0.27459   0.30404   0.31218
 Alpha virt. eigenvalues --    0.35894   0.44111   0.50569   0.56113   0.62640
 Alpha virt. eigenvalues --    0.65476   0.81197   0.93845   0.95863   1.04517

 Mulliken charges:
               1
     1  O   -0.442074
     2  H    0.223098
     3  H    0.218976
 Sum of Mulliken charges =   0.00000

 Dipole moment (field-independent basis, Debye):
    X=             -0.0044    Y=             -1.9360    Z=              0.0000  Tot=              1.9360
 Quadrupole moment (field-independent basis, Debye-Ang):
   XX=             -4.2890   YY=             -6.3635   ZZ=             -7.5846
   XY=             -0.0248   XZ=              0.0000   YZ=              0.0000

 1\1\GINC-NODE12\SP\RB2PLYPD3-FC\def2QZVP\H2O1\BOITTIER\26-Aug-2020\0\\
 #p B2PLYPD3/Def2QZVP\\h2o\\0,1\O,0,-5.326605,-0.763186,0.917484\H,0,-4
 .368927,-0.738878,0.936214\H,0,-5.609308,0.133898,0.789389\\Version=ES
 64L-G09RevD.01\State=1-A'\HF=-76.3352268\MP2=-76.4250184\RMSD=4.040e-0
 9\PG=CS [SG(H2O1)]\\@

 THE WORLD OF CHEMICAL REACTIONS IS LIKE A STAGE,

 Normal termination of Gaussian 09 at Wed Aug 26 10:52:59 2020.
