 Gaussian 09, Revision D.01,
 Gaussian 09:  ES64L-G09RevD.01 24-Apr-2013

 --------------------
 #p B2PLYPD3/Def2QZVP
 --------------------

 ---
 h2o
 ---
 Symbolic Z-matrix:
 Charge =  0 Multiplicity = 1

                         Standard orientation:
 ---------------------------------------------------------------------
 Center     Atomic      Atomic             Coordinates (Angstroms)
 Number     Number       Type             X           Y           Z
 ---------------------------------------------------------------------
      1          8           0        0.000000    0.123452    0.000000
      2          1           0        0.720283   -0.525099    0.000000
      3          1           0       -0.720283   -0.462516    0.000000
 ---------------------------------------------------------------------

 SCF Done:  E(RB2PLYPD3) =  -76.3331934720     A.U. after   10 cycles
 E2(B2PLYPD3) =    -0.8986946184D-01 E(B2PLYPD3) =    -0.76423062933790D+02

 The electronic state is 1-A'.
 Alpha  occ. eigenvalues --  -19.73190  -1.16631  -0.60600  -0.48701  -0.40192
 Alpha virt. eigenvalues --    0.04494   0.10411   0.27533   0.30368   0.30604
 Alpha virt. eigenvalues --    0.37202   0.44346   0.49476   0.57243   0.60636
 Alpha virt. eigenvalues --    0.65451   0.81531   0.94698   0.95680   1.03470

 Mulliken charges:
               1
     1  O   -0.422476
     2  H    0.220684
     3  H    0.201792
 Sum of Mulliken charges =   0.00000

 Dipole moment (field-independent basis, Debye):
    X=             -0.0232    Y=             -2.0409    Z=              0.0000  Tot=              2.0410
 Quadrupole moment (field-independent basis, Debye-Ang):
   XX=             -4.6063   YY=             -6.1466   ZZ=             -7.5608
   XY=             -0.0932   XZ=              0.0000   YZ=              0.0000

 1\1\GINC-NODE03\SP\RB2PLYPD3-FC\def2QZVP\H2O1\BOITTIER\26-Aug-2020\0\\
 #p B2PLYPD3/Def2QZVP\\h2o\\0,1\O,0,-5.326605,-0.767195,0.927219\H,0,-4
 .368927,-0.624733,0.882693\H,0,-5.609308,0.083895,0.686616\\Version=ES
 64L-G09RevD.01\State=1-A'\HF=-76.3331935\MP2=-76.4230629\RMSD=5.474e-0
 9\PG=CS [SG(H2O1)]\\@

 TERRY FORSTER, PORTLY ATLANTA BRAVES RELIEVER,

 Normal termination of Gaussian 09 at Wed Aug 26 08:41:02 2020.
