 Gaussian 09, Revision D.01,
 Gaussian 09:  ES64L-G09RevD.01 24-Apr-2013

 --------------------
 #p B2PLYPD3/Def2QZVP
 --------------------

 ---
 h2o
 ---
 Symbolic Z-matrix:
 Charge =  0 Multiplicity = 1

                         Standard orientation:
 ---------------------------------------------------------------------
 Center     Atomic      Atomic             Coordinates (Angstroms)
 Number     Number       Type             X           Y           Z
 ---------------------------------------------------------------------
      1          8           0        0.000000    0.114511    0.000000
      2          1           0        0.732248   -0.507282    0.000000
      3          1           0       -0.732248   -0.408807    0.000000
 ---------------------------------------------------------------------

 SCF Done:  E(RB2PLYPD3) =  -76.3321610019     A.U. after   10 cycles
 E2(B2PLYPD3) =    -0.8909433520D-01 E(B2PLYPD3) =    -0.76421255337117D+02

 The electronic state is 1-A'.
 Alpha  occ. eigenvalues --  -19.72667  -1.17201  -0.62503  -0.47937  -0.40235
 Alpha virt. eigenvalues --    0.04787   0.10480   0.27307   0.30336   0.31303
 Alpha virt. eigenvalues --    0.37268   0.44935   0.50415   0.56646   0.62267
 Alpha virt. eigenvalues --    0.64895   0.81826   0.94332   0.95445   1.05180

 Mulliken charges:
               1
     1  O   -0.414464
     2  H    0.223325
     3  H    0.191139
 Sum of Mulliken charges =   0.00000

 Dipole moment (field-independent basis, Debye):
    X=             -0.0313    Y=             -1.9499    Z=              0.0000  Tot=              1.9502
 Quadrupole moment (field-independent basis, Debye-Ang):
   XX=             -4.4264   YY=             -6.2811   ZZ=             -7.5260
   XY=             -0.1574   XZ=              0.0000   YZ=              0.0000

 1\1\GINC-NODE02\SP\RB2PLYPD3-FC\def2QZVP\H2O1\BOITTIER\26-Aug-2020\0\\
 #p B2PLYPD3/Def2QZVP\\h2o\\0,1\O,0,-5.326605,-0.761994,0.923281\H,0,-4
 .368927,-0.698819,0.882348\H,0,-5.609308,0.074762,0.750172\\Version=ES
 64L-G09RevD.01\State=1-A'\HF=-76.332161\MP2=-76.4212553\RMSD=6.082e-09
 \PG=CS [SG(H2O1)]\\@

 YOU KNOW YOU'VE SPOKEN TOO LONG WHEN THE AUDIENCE STOPS LOOKING AT

 Normal termination of Gaussian 09 at Wed Aug 26 08:29:25 2020.
