 Gaussian 09, Revision D.01,
 Gaussian 09:  ES64L-G09RevD.01 24-Apr-2013

 --------------------
 #p B2PLYPD3/Def2QZVP
 --------------------

 ---
 h2o
 ---
 Symbolic Z-matrix:
 Charge =  0 Multiplicity = 1

                         Standard orientation:
 ---------------------------------------------------------------------
 Center     Atomic      Atomic             Coordinates (Angstroms)
 Number     Number       Type             X           Y           Z
 ---------------------------------------------------------------------
      1          8           0        0.000000    0.118174    0.000000
      2          1           0        0.746276   -0.496298    0.000000
      3          1           0       -0.746276   -0.449095    0.000000
 ---------------------------------------------------------------------

 SCF Done:  E(RB2PLYPD3) =  -76.3347104139     A.U. after   10 cycles
 E2(B2PLYPD3) =    -0.8981780748D-01 E(B2PLYPD3) =    -0.76424528221385D+02

 The electronic state is 1-A'.
 Alpha  occ. eigenvalues --  -19.73074  -1.16116  -0.61328  -0.47809  -0.40058
 Alpha virt. eigenvalues --    0.04573   0.10298   0.27488   0.30390   0.30949
 Alpha virt. eigenvalues --    0.36437   0.44198   0.50078   0.56539   0.61845
 Alpha virt. eigenvalues --    0.65481   0.81381   0.94105   0.95789   1.03953

 Mulliken charges:
               1
     1  O   -0.434326
     2  H    0.223930
     3  H    0.210397
 Sum of Mulliken charges =   0.00000

 Dipole moment (field-independent basis, Debye):
    X=             -0.0154    Y=             -1.9775    Z=              0.0000  Tot=              1.9775
 Quadrupole moment (field-independent basis, Debye-Ang):
   XX=             -4.4110   YY=             -6.2798   ZZ=             -7.5755
   XY=             -0.0756   XZ=              0.0000   YZ=              0.0000

 1\1\GINC-NODE29\SP\RB2PLYPD3-FC\def2QZVP\H2O1\BOITTIER\26-Aug-2020\0\\
 #p B2PLYPD3/Def2QZVP\\h2o\\0,1\O,0,-5.326605,-0.761561,0.932644\H,0,-4
 .368927,-0.72637,0.805688\H,0,-5.609308,0.095396,0.678823\\Version=ES6
 4L-G09RevD.01\State=1-A'\HF=-76.3347104\MP2=-76.4245282\RMSD=4.698e-09
 \PG=CS [SG(H2O1)]\\@

 THERE IS NO SCIENCE WITHOUT FANCY, NOR ART WITHOUT FACTS.

 Normal termination of Gaussian 09 at Wed Aug 26 08:38:02 2020.
