 Gaussian 09, Revision D.01,
 Gaussian 09:  ES64L-G09RevD.01 24-Apr-2013

 --------------------
 #p B2PLYPD3/Def2QZVP
 --------------------

 ---
 h2o
 ---
 Symbolic Z-matrix:
 Charge =  0 Multiplicity = 1

                         Standard orientation:
 ---------------------------------------------------------------------
 Center     Atomic      Atomic             Coordinates (Angstroms)
 Number     Number       Type             X           Y           Z
 ---------------------------------------------------------------------
      1          8           0        0.000000    0.114715    0.000000
      2          1           0        0.760955   -0.467279    0.000000
      3          1           0       -0.760955   -0.450445    0.000000
 ---------------------------------------------------------------------

 SCF Done:  E(RB2PLYPD3) =  -76.3352270575     A.U. after   10 cycles
 E2(B2PLYPD3) =    -0.8976775853D-01 E(B2PLYPD3) =    -0.76424994816022D+02

 The electronic state is 1-A'.
 Alpha  occ. eigenvalues --  -19.72983  -1.15859  -0.61791  -0.47287  -0.39983
 Alpha virt. eigenvalues --    0.04625   0.10239   0.27455   0.30401   0.31226
 Alpha virt. eigenvalues --    0.35938   0.44135   0.50565   0.56130   0.62631
 Alpha virt. eigenvalues --    0.65458   0.81221   0.93870   0.95846   1.04558

 Mulliken charges:
               1
     1  O   -0.441302
     2  H    0.223004
     3  H    0.218298
 Sum of Mulliken charges =   0.00000

 Dipole moment (field-independent basis, Debye):
    X=             -0.0050    Y=             -1.9363    Z=              0.0000  Tot=              1.9363
 Quadrupole moment (field-independent basis, Debye-Ang):
   XX=             -4.2930   YY=             -6.3614   ZZ=             -7.5827
   XY=             -0.0281   XZ=              0.0000   YZ=              0.0000

 1\1\GINC-NODE32\SP\RB2PLYPD3-FC\def2QZVP\H2O1\BOITTIER\26-Aug-2020\0\\
 #p B2PLYPD3/Def2QZVP\\h2o\\0,1\O,0,-5.326605,-0.763009,0.918717\H,0,-4
 .368927,-0.738943,0.925325\H,0,-5.609308,0.131129,0.780677\\Version=ES
 64L-G09RevD.01\State=1-A'\HF=-76.3352271\MP2=-76.4249948\RMSD=4.069e-0
 9\PG=CS [SG(H2O1)]\\@

 WHEN A MATHEMATICIAN ENGAGED IN INVESTIGATING

 Normal termination of Gaussian 09 at Wed Aug 26 09:03:21 2020.
