 Gaussian 09, Revision D.01,
 Gaussian 09:  ES64L-G09RevD.01 24-Apr-2013

 --------------------
 #p B2PLYPD3/Def2QZVP
 --------------------

 ---
 h2o
 ---
 Symbolic Z-matrix:
 Charge =  0 Multiplicity = 1

                         Standard orientation:
 ---------------------------------------------------------------------
 Center     Atomic      Atomic             Coordinates (Angstroms)
 Number     Number       Type             X           Y           Z
 ---------------------------------------------------------------------
      1          8           0        0.000000    0.119735    0.000000
      2          1           0        0.790637   -0.423176    0.000000
      3          1           0       -0.790637   -0.534703    0.000000
 ---------------------------------------------------------------------

 SCF Done:  E(RB2PLYPD3) =  -76.3301064718     A.U. after   10 cycles
 E2(B2PLYPD3) =    -0.9108864501D-01 E(B2PLYPD3) =    -0.76421195116770D+02

 The electronic state is 1-A'.
 Alpha  occ. eigenvalues --  -19.73580  -1.14143  -0.59988  -0.46760  -0.39663
 Alpha virt. eigenvalues --    0.04097   0.09860   0.27671   0.30061   0.30495
 Alpha virt. eigenvalues --    0.34468   0.43172   0.50187   0.55597   0.62297
 Alpha virt. eigenvalues --    0.66377   0.80110   0.92229   0.96616   1.01448

 Mulliken charges:
               1
     1  O   -0.467744
     2  H    0.221460
     3  H    0.246285
 Sum of Mulliken charges =   0.00000

 Dipole moment (field-independent basis, Debye):
    X=              0.0333    Y=             -1.9645    Z=              0.0000  Tot=              1.9647
 Quadrupole moment (field-independent basis, Debye-Ang):
   XX=             -4.2146   YY=             -6.3680   ZZ=             -7.6715
   XY=              0.1898   XZ=              0.0000   YZ=              0.0000

 1\1\GINC-NODE35\SP\RB2PLYPD3-FC\def2QZVP\H2O1\BOITTIER\26-Aug-2020\0\\
 #p B2PLYPD3/Def2QZVP\\h2o\\0,1\O,0,-5.326605,-0.766725,0.916318\H,0,-4
 .368927,-0.758459,0.967738\H,0,-5.609308,0.2101,0.777437\\Version=ES64
 L-G09RevD.01\State=1-A'\HF=-76.3301065\MP2=-76.4211951\RMSD=5.553e-09\
 PG=CS [SG(H2O1)]\\@

 BREAD HAS TO MOLD IN ORDER TO GET PENICILLIN.

 Normal termination of Gaussian 09 at Wed Aug 26 07:57:26 2020.
