 Gaussian 09, Revision D.01,
 Gaussian 09:  ES64L-G09RevD.01 24-Apr-2013

 --------------------
 #p B2PLYPD3/Def2QZVP
 --------------------

 ---
 h2o
 ---
 Symbolic Z-matrix:
 Charge =  0 Multiplicity = 1

                         Standard orientation:
 ---------------------------------------------------------------------
 Center     Atomic      Atomic             Coordinates (Angstroms)
 Number     Number       Type             X           Y           Z
 ---------------------------------------------------------------------
      1          8           0        0.000000    0.114872    0.000000
      2          1           0        0.730333   -0.510554    0.000000
      3          1           0       -0.730333   -0.408421    0.000000
 ---------------------------------------------------------------------

 SCF Done:  E(RB2PLYPD3) =  -76.3319025564     A.U. after   10 cycles
 E2(B2PLYPD3) =    -0.8909241651D-01 E(B2PLYPD3) =    -0.76420994972915D+02

 The electronic state is 1-A'.
 Alpha  occ. eigenvalues --  -19.72672  -1.17250  -0.62458  -0.47999  -0.40246
 Alpha virt. eigenvalues --    0.04780   0.10490   0.27307   0.30334   0.31270
 Alpha virt. eigenvalues --    0.37331   0.44958   0.50364   0.56693   0.62181
 Alpha virt. eigenvalues --    0.64889   0.81839   0.94343   0.95444   1.05119

 Mulliken charges:
               1
     1  O   -0.413303
     2  H    0.223425
     3  H    0.189878
 Sum of Mulliken charges =   0.00000

 Dipole moment (field-independent basis, Debye):
    X=             -0.0328    Y=             -1.9544    Z=              0.0000  Tot=              1.9547
 Quadrupole moment (field-independent basis, Debye-Ang):
   XX=             -4.4401   YY=             -6.2712   ZZ=             -7.5246
   XY=             -0.1624   XZ=              0.0000   YZ=              0.0000

 1\1\GINC-NODE20\SP\RB2PLYPD3-FC\def2QZVP\H2O1\BOITTIER\26-Aug-2020\0\\
 #p B2PLYPD3/Def2QZVP\\h2o\\0,1\O,0,-5.326605,-0.761843,0.924888\H,0,-4
 .368927,-0.696785,0.868639\H,0,-5.609308,0.070317,0.738314\\Version=ES
 64L-G09RevD.01\State=1-A'\HF=-76.3319026\MP2=-76.420995\RMSD=6.161e-09
 \PG=CS [SG(H2O1)]\\@

 Where a calculator on the ENIAC is equipped with 18,000

 Normal termination of Gaussian 09 at Wed Aug 26 08:32:36 2020.
