 Gaussian 09, Revision D.01,
 Gaussian 09:  ES64L-G09RevD.01 24-Apr-2013

 --------------------
 #p B2PLYPD3/Def2QZVP
 --------------------

 ---
 h2o
 ---
 Symbolic Z-matrix:
 Charge =  0 Multiplicity = 1

                         Standard orientation:
 ---------------------------------------------------------------------
 Center     Atomic      Atomic             Coordinates (Angstroms)
 Number     Number       Type             X           Y           Z
 ---------------------------------------------------------------------
      1          8           0        0.000000    0.119483    0.000000
      2          1           0        0.785475   -0.430475    0.000000
      3          1           0       -0.785475   -0.525385    0.000000
 ---------------------------------------------------------------------

 SCF Done:  E(RB2PLYPD3) =  -76.3313036621     A.U. after   10 cycles
 E2(B2PLYPD3) =    -0.9092376919D-01 E(B2PLYPD3) =    -0.76422227431269D+02

 The electronic state is 1-A'.
 Alpha  occ. eigenvalues --  -19.73522  -1.14363  -0.60160  -0.46886  -0.39709
 Alpha virt. eigenvalues --    0.04174   0.09915   0.27656   0.30242   0.30483
 Alpha virt. eigenvalues --    0.34656   0.43276   0.50176   0.55718   0.62247
 Alpha virt. eigenvalues --    0.66277   0.80292   0.92540   0.96523   1.01764

 Mulliken charges:
               1
     1  O   -0.464310
     2  H    0.221266
     3  H    0.243044
 Sum of Mulliken charges =   0.00000

 Dipole moment (field-independent basis, Debye):
    X=              0.0286    Y=             -1.9657    Z=              0.0000  Tot=              1.9659
 Quadrupole moment (field-independent basis, Debye-Ang):
   XX=             -4.2372   YY=             -6.3604   ZZ=             -7.6597
   XY=              0.1605   XZ=              0.0000   YZ=              0.0000

 1\1\GINC-NODE09\SP\RB2PLYPD3-FC\def2QZVP\H2O1\BOITTIER\26-Aug-2020\0\\
 #p B2PLYPD3/Def2QZVP\\h2o\\0,1\O,0,-5.326605,-0.766503,0.916853\H,0,-4
 .368927,-0.751125,0.962034\H,0,-5.609308,0.199223,0.774453\\Version=ES
 64L-G09RevD.01\State=1-A'\HF=-76.3313037\MP2=-76.4222274\RMSD=5.191e-0
 9\PG=CS [SG(H2O1)]\\@

 IF AT FIRST YOU DON'T SUCCEED, TRY, TRY AGAIN.

 Normal termination of Gaussian 09 at Wed Aug 26 08:30:15 2020.
