 Gaussian 09, Revision D.01,
 Gaussian 09:  ES64L-G09RevD.01 24-Apr-2013

 --------------------
 #p B2PLYPD3/Def2QZVP
 --------------------

 ---
 h2o
 ---
 Symbolic Z-matrix:
 Charge =  0 Multiplicity = 1

                         Standard orientation:
 ---------------------------------------------------------------------
 Center     Atomic      Atomic             Coordinates (Angstroms)
 Number     Number       Type             X           Y           Z
 ---------------------------------------------------------------------
      1          8           0        0.000000    0.114229    0.000000
      2          1           0        0.766086   -0.461685    0.000000
      3          1           0       -0.766086   -0.452148    0.000000
 ---------------------------------------------------------------------

 SCF Done:  E(RB2PLYPD3) =  -76.3351927121     A.U. after   10 cycles
 E2(B2PLYPD3) =    -0.8983717918D-01 E(B2PLYPD3) =    -0.76425029891332D+02

 The electronic state is 1-A'.
 Alpha  occ. eigenvalues --  -19.73000  -1.15689  -0.61778  -0.47138  -0.39946
 Alpha virt. eigenvalues --    0.04607   0.10204   0.27463   0.30410   0.31239
 Alpha virt. eigenvalues --    0.35717   0.44054   0.50663   0.56009   0.62790
 Alpha virt. eigenvalues --    0.65512   0.81109   0.93748   0.95918   1.04512

 Mulliken charges:
               1
     1  O   -0.444845
     2  H    0.223730
     3  H    0.221116
 Sum of Mulliken charges =   0.00000

 Dipole moment (field-independent basis, Debye):
    X=             -0.0028    Y=             -1.9286    Z=              0.0000  Tot=              1.9286
 Quadrupole moment (field-independent basis, Debye-Ang):
   XX=             -4.2614   YY=             -6.3809   ZZ=             -7.5900
   XY=             -0.0161   XZ=              0.0000   YZ=              0.0000

 1\1\GINC-NODE38\SP\RB2PLYPD3-FC\def2QZVP\H2O1\BOITTIER\26-Aug-2020\0\\
 #p B2PLYPD3/Def2QZVP\\h2o\\0,1\O,0,-5.326605,-0.76302,0.915626\H,0,-4.
 368927,-0.747704,0.950018\H,0,-5.609308,0.140066,0.805235\\Version=ES6
 4L-G09RevD.01\State=1-A'\HF=-76.3351927\MP2=-76.4250299\RMSD=3.944e-09
 \PG=CS [SG(H2O1)]\\@

 The theorems and results in mathematical physics are

 Normal termination of Gaussian 09 at Wed Aug 26 08:32:59 2020.
