 Gaussian 09, Revision D.01,
 Gaussian 09:  ES64L-G09RevD.01 24-Apr-2013

 --------------------
 #p B2PLYPD3/Def2QZVP
 --------------------

 ---
 h2o
 ---
 Symbolic Z-matrix:
 Charge =  0 Multiplicity = 1

                         Standard orientation:
 ---------------------------------------------------------------------
 Center     Atomic      Atomic             Coordinates (Angstroms)
 Number     Number       Type             X           Y           Z
 ---------------------------------------------------------------------
      1          8           0        0.000000    0.112667    0.000000
      2          1           0        0.765651   -0.464124    0.000000
      3          1           0       -0.765651   -0.437210    0.000000
 ---------------------------------------------------------------------

 SCF Done:  E(RB2PLYPD3) =  -76.3351045000     A.U. after   10 cycles
 E2(B2PLYPD3) =    -0.8965880689D-01 E(B2PLYPD3) =    -0.76424763306886D+02

 The electronic state is 1-A'.
 Alpha  occ. eigenvalues --  -19.72889  -1.15878  -0.62143  -0.47065  -0.39971
 Alpha virt. eigenvalues --    0.04672   0.10236   0.27420   0.30399   0.31391
 Alpha virt. eigenvalues --    0.35810   0.44199   0.50856   0.55958   0.63055
 Alpha virt. eigenvalues --    0.65370   0.81183   0.93814   0.95844   1.04978

 Mulliken charges:
               1
     1  O   -0.442174
     2  H    0.224867
     3  H    0.217307
 Sum of Mulliken charges =   0.00000

 Dipole moment (field-independent basis, Debye):
    X=             -0.0076    Y=             -1.9137    Z=              0.0000  Tot=              1.9137
 Quadrupole moment (field-independent basis, Debye-Ang):
   XX=             -4.2424   YY=             -6.3979   ZZ=             -7.5800
   XY=             -0.0457   XZ=              0.0000   YZ=              0.0000

 1\1\GINC-NODE14\SP\RB2PLYPD3-FC\def2QZVP\H2O1\BOITTIER\26-Aug-2020\0\\
 #p B2PLYPD3/Def2QZVP\\h2o\\0,1\O,0,-5.326605,-0.762038,0.914151\H,0,-4
 .368927,-0.755926,0.955689\H,0,-5.609308,0.132585,0.822963\\Version=ES
 64L-G09RevD.01\State=1-A'\HF=-76.3351045\MP2=-76.4247633\RMSD=4.109e-0
 9\PG=CS [SG(H2O1)]\\@

 IF AT FIRST YOU DON'T SUCCEED, TRY LOOKING IN

 Normal termination of Gaussian 09 at Wed Aug 26 08:29:18 2020.
