 Gaussian 09, Revision D.01,
 Gaussian 09:  ES64L-G09RevD.01 24-Apr-2013

 --------------------
 #p B2PLYPD3/Def2QZVP
 --------------------

 ---
 h2o
 ---
 Symbolic Z-matrix:
 Charge =  0 Multiplicity = 1

                         Standard orientation:
 ---------------------------------------------------------------------
 Center     Atomic      Atomic             Coordinates (Angstroms)
 Number     Number       Type             X           Y           Z
 ---------------------------------------------------------------------
      1          8           0        0.000000    0.114920    0.000000
      2          1           0        0.757431   -0.473784    0.000000
      3          1           0       -0.757431   -0.445575    0.000000
 ---------------------------------------------------------------------

 SCF Done:  E(RB2PLYPD3) =  -76.3351491733     A.U. after   10 cycles
 E2(B2PLYPD3) =    -0.8970745672D-01 E(B2PLYPD3) =    -0.76424856630013D+02

 The electronic state is 1-A'.
 Alpha  occ. eigenvalues --  -19.72962  -1.15992  -0.61828  -0.47380  -0.40011
 Alpha virt. eigenvalues --    0.04640   0.10265   0.27445   0.30395   0.31223
 Alpha virt. eigenvalues --    0.36096   0.44204   0.50516   0.56206   0.62545
 Alpha virt. eigenvalues --    0.65409   0.81297   0.93948   0.95796   1.04600

 Mulliken charges:
               1
     1  O   -0.438623
     2  H    0.223317
     3  H    0.215306
 Sum of Mulliken charges =   0.00000

 Dipole moment (field-independent basis, Debye):
    X=             -0.0085    Y=             -1.9402    Z=              0.0000  Tot=              1.9403
 Quadrupole moment (field-independent basis, Debye-Ang):
   XX=             -4.3129   YY=             -6.3493   ZZ=             -7.5771
   XY=             -0.0468   XZ=              0.0000   YZ=              0.0000

 1\1\GINC-NODE35\SP\RB2PLYPD3-FC\def2QZVP\H2O1\BOITTIER\26-Aug-2020\0\\
 #p B2PLYPD3/Def2QZVP\\h2o\\0,1\O,0,-5.326605,-0.76197,0.924594\H,0,-4.
 368927,-0.742233,0.872275\H,0,-5.609308,0.117804,0.740385\\Version=ES6
 4L-G09RevD.01\State=1-A'\HF=-76.3351492\MP2=-76.4248566\RMSD=4.242e-09
 \PG=CS [SG(H2O1)]\\@

 SIGN SEEN IN A RESTAURANT-

 Normal termination of Gaussian 09 at Wed Aug 26 10:44:14 2020.
