 Gaussian 09, Revision D.01,
 Gaussian 09:  ES64L-G09RevD.01 24-Apr-2013

 --------------------
 #p B2PLYPD3/Def2QZVP
 --------------------

 ---
 h2o
 ---
 Symbolic Z-matrix:
 Charge =  0 Multiplicity = 1

                         Standard orientation:
 ---------------------------------------------------------------------
 Center     Atomic      Atomic             Coordinates (Angstroms)
 Number     Number       Type             X           Y           Z
 ---------------------------------------------------------------------
      1          8           0        0.000000    0.109693    0.000000
      2          1           0        0.777263   -0.456624    0.000000
      3          1           0       -0.777263   -0.420922    0.000000
 ---------------------------------------------------------------------

 SCF Done:  E(RB2PLYPD3) =  -76.3347042937     A.U. after   10 cycles
 E2(B2PLYPD3) =    -0.8963283371D-01 E(B2PLYPD3) =    -0.76424337127438D+02

 The electronic state is 1-A'.
 Alpha  occ. eigenvalues --  -19.72804  -1.15685  -0.62512  -0.46627  -0.39908
 Alpha virt. eigenvalues --    0.04698   0.10189   0.27391   0.30407   0.31594
 Alpha virt. eigenvalues --    0.35373   0.44169   0.51353   0.55611   0.63756
 Alpha virt. eigenvalues --    0.65351   0.80946   0.93629   0.95966   1.05325

 Mulliken charges:
               1
     1  O   -0.447907
     2  H    0.228866
     3  H    0.219041
 Sum of Mulliken charges =   0.00000

 Dipole moment (field-independent basis, Debye):
    X=             -0.0093    Y=             -1.8775    Z=              0.0000  Tot=              1.8775
 Quadrupole moment (field-independent basis, Debye-Ang):
   XX=             -4.1452   YY=             -6.4635   ZZ=             -7.5864
   XY=             -0.0627   XZ=              0.0000   YZ=              0.0000

 1\1\GINC-NODE06\SP\RB2PLYPD3-FC\def2QZVP\H2O1\BOITTIER\26-Aug-2020\0\\
 #p B2PLYPD3/Def2QZVP\\h2o\\0,1\O,0,-5.326605,-0.759939,0.90834\H,0,-4.
 368927,-0.794255,0.989134\H,0,-5.609308,0.137327,0.882198\\Version=ES6
 4L-G09RevD.01\State=1-A'\HF=-76.3347043\MP2=-76.4243371\RMSD=4.139e-09
 \PG=CS [SG(H2O1)]\\@

 THERE'S SMALL CHOICE IN A BOWL OF ROTTEN APPLES.

 Normal termination of Gaussian 09 at Wed Aug 26 08:42:16 2020.
