 Gaussian 09, Revision D.01,
 Gaussian 09:  ES64L-G09RevD.01 24-Apr-2013

 --------------------
 #p B2PLYPD3/Def2QZVP
 --------------------

 ---
 h2o
 ---
 Symbolic Z-matrix:
 Charge =  0 Multiplicity = 1

                         Standard orientation:
 ---------------------------------------------------------------------
 Center     Atomic      Atomic             Coordinates (Angstroms)
 Number     Number       Type             X           Y           Z
 ---------------------------------------------------------------------
      1          8           0        0.000000    0.117279    0.000000
      2          1           0        0.760422   -0.471437    0.000000
      3          1           0       -0.760422   -0.466794    0.000000
 ---------------------------------------------------------------------

 SCF Done:  E(RB2PLYPD3) =  -76.3350762208     A.U. after   10 cycles
 E2(B2PLYPD3) =    -0.9004257108D-01 E(B2PLYPD3) =    -0.76425118791904D+02

 The electronic state is 1-A'.
 Alpha  occ. eigenvalues --  -19.73153  -1.15599  -0.61219  -0.47429  -0.39951
 Alpha virt. eigenvalues --    0.04521   0.10193   0.27523   0.30416   0.30966
 Alpha virt. eigenvalues --    0.35826   0.43929   0.50258   0.56230   0.62193
 Alpha virt. eigenvalues --    0.65670   0.81114   0.93785   0.95965   1.03764

 Mulliken charges:
               1
     1  O   -0.444505
     2  H    0.222879
     3  H    0.221626
 Sum of Mulliken charges =   0.00000

 Dipole moment (field-independent basis, Debye):
    X=             -0.0014    Y=             -1.9610    Z=              0.0000  Tot=              1.9610
 Quadrupole moment (field-independent basis, Debye-Ang):
   XX=             -4.3307   YY=             -6.3292   ZZ=             -7.5972
   XY=             -0.0076   XZ=              0.0000   YZ=              0.0000

 1\1\GINC-NODE15\SP\RB2PLYPD3-FC\def2QZVP\H2O1\BOITTIER\26-Aug-2020\0\\
 #p B2PLYPD3/Def2QZVP\\h2o\\0,1\O,0,-5.326605,-0.765261,0.912784\H,0,-4
 .368927,-0.717382,0.986188\H,0,-5.609308,0.145605,0.813869\\Version=ES
 64L-G09RevD.01\State=1-A'\HF=-76.3350762\MP2=-76.4251188\RMSD=4.042e-0
 9\PG=CS [SG(H2O1)]\\@

 Other things may change us, but we start and end with family.

 Normal termination of Gaussian 09 at Wed Aug 26 08:47:03 2020.
