 Gaussian 09, Revision D.01,
 Gaussian 09:  ES64L-G09RevD.01 24-Apr-2013

 --------------------
 #p B2PLYPD3/Def2QZVP
 --------------------

 ---
 h2o
 ---
 Symbolic Z-matrix:
 Charge =  0 Multiplicity = 1

                         Standard orientation:
 ---------------------------------------------------------------------
 Center     Atomic      Atomic             Coordinates (Angstroms)
 Number     Number       Type             X           Y           Z
 ---------------------------------------------------------------------
      1          8           0        0.000000    0.119807    0.000000
      2          1           0        0.750529   -0.479579    0.000000
      3          1           0       -0.750529   -0.478874    0.000000
 ---------------------------------------------------------------------

 SCF Done:  E(RB2PLYPD3) =  -76.3349268184     A.U. after   10 cycles
 E2(B2PLYPD3) =    -0.9010359576D-01 E(B2PLYPD3) =    -0.76425030414189D+02

 The electronic state is 1-A'.
 Alpha  occ. eigenvalues --  -19.73231  -1.15738  -0.60860  -0.47794  -0.39998
 Alpha virt. eigenvalues --    0.04483   0.10226   0.27556   0.30410   0.30786
 Alpha virt. eigenvalues --    0.36131   0.43938   0.49921   0.56521   0.61632
 Alpha virt. eigenvalues --    0.65711   0.81212   0.93999   0.95934   1.03384

 Mulliken charges:
               1
     1  O   -0.440416
     2  H    0.220304
     3  H    0.220112
 Sum of Mulliken charges =   0.00000

 Dipole moment (field-independent basis, Debye):
    X=             -0.0002    Y=             -1.9905    Z=              0.0000  Tot=              1.9905
 Quadrupole moment (field-independent basis, Debye-Ang):
   XX=             -4.4135   YY=             -6.2726   ZZ=             -7.5937
   XY=             -0.0011   XZ=              0.0000   YZ=              0.0000

 1\1\GINC-NODE06\SP\RB2PLYPD3-FC\def2QZVP\H2O1\BOITTIER\26-Aug-2020\0\\
 #p B2PLYPD3/Def2QZVP\\h2o\\0,1\O,0,-5.326605,-0.765436,0.924404\H,0,-4
 .368927,-0.698066,0.894888\H,0,-5.609308,0.129092,0.720416\\Version=ES
 64L-G09RevD.01\State=1-A'\HF=-76.3349268\MP2=-76.4250304\RMSD=4.239e-0
 9\PG=CS [SG(H2O1)]\\@

 THE DIFFICULTY IN SCIENCE IS OFTEN NOT SO MUCH HOW

 Normal termination of Gaussian 09 at Wed Aug 26 10:25:35 2020.
