 Gaussian 09, Revision D.01,
 Gaussian 09:  ES64L-G09RevD.01 24-Apr-2013

 --------------------
 #p B2PLYPD3/Def2QZVP
 --------------------

 ---
 h2o
 ---
 Symbolic Z-matrix:
 Charge =  0 Multiplicity = 1

                         Standard orientation:
 ---------------------------------------------------------------------
 Center     Atomic      Atomic             Coordinates (Angstroms)
 Number     Number       Type             X           Y           Z
 ---------------------------------------------------------------------
      1          8           0        0.000000    0.119459    0.000000
      2          1           0        0.770065   -0.453668    0.000000
      3          1           0       -0.770065   -0.502002    0.000000
 ---------------------------------------------------------------------

 SCF Done:  E(RB2PLYPD3) =  -76.3337369394     A.U. after   10 cycles
 E2(B2PLYPD3) =    -0.9053059534D-01 E(B2PLYPD3) =    -0.76424267534770D+02

 The electronic state is 1-A'.
 Alpha  occ. eigenvalues --  -19.73388  -1.14967  -0.60514  -0.47287  -0.39839
 Alpha virt. eigenvalues --    0.04340   0.10058   0.27616   0.30449   0.30582
 Alpha virt. eigenvalues --    0.35269   0.43558   0.50069   0.56082   0.61992
 Alpha virt. eigenvalues --    0.66024   0.80753   0.93291   0.96255   1.02574

 Mulliken charges:
               1
     1  O   -0.454099
     2  H    0.221046
     3  H    0.233052
 Sum of Mulliken charges =   0.00000

 Dipole moment (field-independent basis, Debye):
    X=              0.0152    Y=             -1.9755    Z=              0.0000  Tot=              1.9755
 Quadrupole moment (field-independent basis, Debye-Ang):
   XX=             -4.3137   YY=             -6.3258   ZZ=             -7.6292
   XY=              0.0798   XZ=              0.0000   YZ=              0.0000

 1\1\GINC-NODE09\SP\RB2PLYPD3-FC\def2QZVP\H2O1\BOITTIER\26-Aug-2020\0\\
 #p B2PLYPD3/Def2QZVP\\h2o\\0,1\O,0,-5.326605,-0.76653,0.916365\H,0,-4.
 368927,-0.723086,0.965755\H,0,-5.609308,0.171609,0.777847\\Version=ES6
 4L-G09RevD.01\State=1-A'\HF=-76.3337369\MP2=-76.4242675\RMSD=4.370e-09
 \PG=CS [SG(H2O1)]\\@

 Not by the face shall a man be known, but by the mask.

 Normal termination of Gaussian 09 at Wed Aug 26 12:26:55 2020.
