 Gaussian 09, Revision D.01,
 Gaussian 09:  ES64L-G09RevD.01 24-Apr-2013

 --------------------
 #p B2PLYPD3/Def2QZVP
 --------------------

 ---
 h2o
 ---
 Symbolic Z-matrix:
 Charge =  0 Multiplicity = 1

                         Standard orientation:
 ---------------------------------------------------------------------
 Center     Atomic      Atomic             Coordinates (Angstroms)
 Number     Number       Type             X           Y           Z
 ---------------------------------------------------------------------
      1          8           0        0.000000    0.116353    0.000000
      2          1           0        0.751215   -0.480933    0.000000
      3          1           0       -0.751215   -0.449893    0.000000
 ---------------------------------------------------------------------

 SCF Done:  E(RB2PLYPD3) =  -76.3350757388     A.U. after   10 cycles
 E2(B2PLYPD3) =    -0.8972152655D-01 E(B2PLYPD3) =    -0.76424797265389D+02

 The electronic state is 1-A'.
 Alpha  occ. eigenvalues --  -19.72999  -1.16104  -0.61641  -0.47604  -0.40043
 Alpha virt. eigenvalues --    0.04623   0.10291   0.27459   0.30390   0.31123
 Alpha virt. eigenvalues --    0.36314   0.44229   0.50308   0.56384   0.62211
 Alpha virt. eigenvalues --    0.65418   0.81373   0.94068   0.95759   1.04398

 Mulliken charges:
               1
     1  O   -0.435691
     2  H    0.222303
     3  H    0.213388
 Sum of Mulliken charges =   0.00000

 Dipole moment (field-independent basis, Debye):
    X=             -0.0097    Y=             -1.9575    Z=              0.0000  Tot=              1.9575
 Quadrupole moment (field-independent basis, Debye-Ang):
   XX=             -4.3624   YY=             -6.3156   ZZ=             -7.5737
   XY=             -0.0506   XZ=              0.0000   YZ=              0.0000

 1\1\GINC-NODE23\SP\RB2PLYPD3-FC\def2QZVP\H2O1\BOITTIER\26-Aug-2020\0\\
 #p B2PLYPD3/Def2QZVP\\h2o\\0,1\O,0,-5.326605,-0.76294,0.924749\H,0,-4.
 368927,-0.722499,0.876867\H,0,-5.609308,0.113584,0.733064\\Version=ES6
 4L-G09RevD.01\State=1-A'\HF=-76.3350757\MP2=-76.4247973\RMSD=4.379e-09
 \PG=CS [SG(H2O1)]\\@

 THE WISE MAN HAS THE POWER TO REASON AWAY

 Normal termination of Gaussian 09 at Wed Aug 26 09:51:12 2020.
