 Gaussian 09, Revision D.01,
 Gaussian 09:  ES64L-G09RevD.01 24-Apr-2013

 --------------------
 #p B2PLYPD3/Def2QZVP
 --------------------

 ---
 h2o
 ---
 Symbolic Z-matrix:
 Charge =  0 Multiplicity = 1

                         Standard orientation:
 ---------------------------------------------------------------------
 Center     Atomic      Atomic             Coordinates (Angstroms)
 Number     Number       Type             X           Y           Z
 ---------------------------------------------------------------------
      1          8           0        0.000000    0.111955    0.000000
      2          1           0        0.756155   -0.477230    0.000000
      3          1           0       -0.756155   -0.418406    0.000000
 ---------------------------------------------------------------------

 SCF Done:  E(RB2PLYPD3) =  -76.3344431606     A.U. after   10 cycles
 E2(B2PLYPD3) =    -0.8936095082D-01 E(B2PLYPD3) =    -0.76423804111446D+02

 The electronic state is 1-A'.
 Alpha  occ. eigenvalues --  -19.72743  -1.16383  -0.62544  -0.47245  -0.40065
 Alpha virt. eigenvalues --    0.04759   0.10328   0.27358   0.30372   0.31480
 Alpha virt. eigenvalues --    0.36295   0.44509   0.50876   0.56107   0.63045
 Alpha virt. eigenvalues --    0.65128   0.81450   0.94023   0.95654   1.05331

 Mulliken charges:
               1
     1  O   -0.432391
     2  H    0.224971
     3  H    0.207420
 Sum of Mulliken charges =   0.00000

 Dipole moment (field-independent basis, Debye):
    X=             -0.0169    Y=             -1.9120    Z=              0.0000  Tot=              1.9121
 Quadrupole moment (field-independent basis, Debye-Ang):
   XX=             -4.2789   YY=             -6.3791   ZZ=             -7.5571
   XY=             -0.0989   XZ=              0.0000   YZ=              0.0000

 1\1\GINC-NODE25\SP\RB2PLYPD3-FC\def2QZVP\H2O1\BOITTIER\26-Aug-2020\0\\
 #p B2PLYPD3/Def2QZVP\\h2o\\0,1\O,0,-5.326605,-0.761542,0.914142\H,0,-4
 .368927,-0.744584,0.952542\H,0,-5.609308,0.1133,0.825916\\Version=ES64
 L-G09RevD.01\State=1-A'\HF=-76.3344432\MP2=-76.4238041\RMSD=4.880e-09\
 PG=CS [SG(H2O1)]\\@

 I am not a vegetarian because I love animals;

 Normal termination of Gaussian 09 at Wed Aug 26 09:17:45 2020.
