 Gaussian 09, Revision D.01,
 Gaussian 09:  ES64L-G09RevD.01 24-Apr-2013

 --------------------
 #p B2PLYPD3/Def2QZVP
 --------------------

 ---
 h2o
 ---
 Symbolic Z-matrix:
 Charge =  0 Multiplicity = 1

                         Standard orientation:
 ---------------------------------------------------------------------
 Center     Atomic      Atomic             Coordinates (Angstroms)
 Number     Number       Type             X           Y           Z
 ---------------------------------------------------------------------
      1          8           0        0.000000    0.118982    0.000000
      2          1           0        0.759443   -0.466757    0.000000
      3          1           0       -0.759443   -0.485097    0.000000
 ---------------------------------------------------------------------

 SCF Done:  E(RB2PLYPD3) =  -76.3347685554     A.U. after   10 cycles
 E2(B2PLYPD3) =    -0.9021681970D-01 E(B2PLYPD3) =    -0.76424985375104D+02

 The electronic state is 1-A'.
 Alpha  occ. eigenvalues --  -19.73259  -1.15454  -0.60856  -0.47533  -0.39935
 Alpha virt. eigenvalues --    0.04453   0.10165   0.27567   0.30424   0.30785
 Alpha virt. eigenvalues --    0.35773   0.43812   0.50058   0.56304   0.61901
 Alpha virt. eigenvalues --    0.65799   0.81051   0.93732   0.96042   1.03245

 Mulliken charges:
               1
     1  O   -0.445962
     2  H    0.220557
     3  H    0.225405
 Sum of Mulliken charges =   0.00000

 Dipole moment (field-independent basis, Debye):
    X=              0.0059    Y=             -1.9775    Z=              0.0000  Tot=              1.9775
 Quadrupole moment (field-independent basis, Debye-Ang):
   XX=             -4.3590   YY=             -6.3056   ZZ=             -7.6057
   XY=              0.0299   XZ=              0.0000   YZ=              0.0000

 1\1\GINC-NODE26\SP\RB2PLYPD3-FC\def2QZVP\H2O1\BOITTIER\26-Aug-2020\0\\
 #p B2PLYPD3/Def2QZVP\\h2o\\0,1\O,0,-5.326605,-0.76522,0.922868\H,0,-4.
 368927,-0.716129,0.905928\H,0,-5.609308,0.14369,0.734116\\Version=ES64
 L-G09RevD.01\State=1-A'\HF=-76.3347686\MP2=-76.4249854\RMSD=4.145e-09\
 PG=CS [SG(H2O1)]\\@

 HE THAT RISETH LATE MUST TROT ALL DAY.

 Normal termination of Gaussian 09 at Wed Aug 26 10:30:20 2020.
