 Gaussian 09, Revision D.01,
 Gaussian 09:  ES64L-G09RevD.01 24-Apr-2013

 --------------------
 #p B2PLYPD3/Def2QZVP
 --------------------

 ---
 h2o
 ---
 Symbolic Z-matrix:
 Charge =  0 Multiplicity = 1

                         Standard orientation:
 ---------------------------------------------------------------------
 Center     Atomic      Atomic             Coordinates (Angstroms)
 Number     Number       Type             X           Y           Z
 ---------------------------------------------------------------------
      1          8           0        0.000000    0.115061    0.000000
      2          1           0        0.774481   -0.448263    0.000000
      3          1           0       -0.774481   -0.472227    0.000000
 ---------------------------------------------------------------------

 SCF Done:  E(RB2PLYPD3) =  -76.3347051939     A.U. after   10 cycles
 E2(B2PLYPD3) =    -0.9013377247D-01 E(B2PLYPD3) =    -0.76424838966398D+02

 The electronic state is 1-A'.
 Alpha  occ. eigenvalues --  -19.73136  -1.15244  -0.61385  -0.46976  -0.39861
 Alpha virt. eigenvalues --    0.04503   0.10114   0.27515   0.30434   0.31068
 Alpha virt. eigenvalues --    0.35284   0.43796   0.50626   0.55862   0.62777
 Alpha virt. eigenvalues --    0.65737   0.80839   0.93440   0.96115   1.03835

 Mulliken charges:
               1
     1  O   -0.452583
     2  H    0.223185
     3  H    0.229399
 Sum of Mulliken charges =   0.00000

 Dipole moment (field-independent basis, Debye):
    X=              0.0069    Y=             -1.9315    Z=              0.0000  Tot=              1.9315
 Quadrupole moment (field-independent basis, Debye-Ang):
   XX=             -4.2313   YY=             -6.3925   ZZ=             -7.6116
   XY=              0.0408   XZ=              0.0000   YZ=              0.0000

 1\1\GINC-NODE31\SP\RB2PLYPD3-FC\def2QZVP\H2O1\BOITTIER\26-Aug-2020\0\\
 #p B2PLYPD3/Def2QZVP\\h2o\\0,1\O,0,-5.326605,-0.763157,0.91937\H,0,-4.
 368927,-0.760945,0.921314\H,0,-5.609308,0.155495,0.77485\\Version=ES64
 L-G09RevD.01\State=1-A'\HF=-76.3347052\MP2=-76.424839\RMSD=3.964e-09\P
 G=CS [SG(H2O1)]\\@

 A warm smile is the universal language of kindness.

 Normal termination of Gaussian 09 at Wed Aug 26 09:38:24 2020.
