 Gaussian 09, Revision D.01,
 Gaussian 09:  ES64L-G09RevD.01 24-Apr-2013

 --------------------
 #p B2PLYPD3/Def2QZVP
 --------------------

 ---
 h2o
 ---
 Symbolic Z-matrix:
 Charge =  0 Multiplicity = 1

                         Standard orientation:
 ---------------------------------------------------------------------
 Center     Atomic      Atomic             Coordinates (Angstroms)
 Number     Number       Type             X           Y           Z
 ---------------------------------------------------------------------
      1          8           0        0.000000    0.114589    0.000000
      2          1           0        0.771452   -0.452982    0.000000
      3          1           0       -0.771452   -0.463732    0.000000
 ---------------------------------------------------------------------

 SCF Done:  E(RB2PLYPD3) =  -76.3349866731     A.U. after   10 cycles
 E2(B2PLYPD3) =    -0.9000683459D-01 E(B2PLYPD3) =    -0.76424993507703D+02

 The electronic state is 1-A'.
 Alpha  occ. eigenvalues --  -19.73076  -1.15421  -0.61565  -0.47027  -0.39894
 Alpha virt. eigenvalues --    0.04550   0.10150   0.27493   0.30425   0.31156
 Alpha virt. eigenvalues --    0.35446   0.43900   0.50660   0.55911   0.62810
 Alpha virt. eigenvalues --    0.65642   0.80946   0.93570   0.96035   1.04158

 Mulliken charges:
               1
     1  O   -0.449659
     2  H    0.223404
     3  H    0.226255
 Sum of Mulliken charges =   0.00000

 Dipole moment (field-independent basis, Debye):
    X=              0.0031    Y=             -1.9289    Z=              0.0000  Tot=              1.9289
 Quadrupole moment (field-independent basis, Debye-Ang):
   XX=             -4.2399   YY=             -6.3906   ZZ=             -7.6027
   XY=              0.0183   XZ=              0.0000   YZ=              0.0000

 1\1\GINC-NODE40\SP\RB2PLYPD3-FC\def2QZVP\H2O1\BOITTIER\26-Aug-2020\0\\
 #p B2PLYPD3/Def2QZVP\\h2o\\0,1\O,0,-5.326605,-0.762974,0.91836\H,0,-4.
 368927,-0.757322,0.928151\H,0,-5.609308,0.148948,0.783932\\Version=ES6
 4L-G09RevD.01\State=1-A'\HF=-76.3349867\MP2=-76.4249935\RMSD=3.885e-09
 \PG=CS [SG(H2O1)]\\@

 IF AT FIRST YOU DON'T SUCCEED, TRY, TRY AGAIN.

 Normal termination of Gaussian 09 at Wed Aug 26 08:36:42 2020.
