 Gaussian 09, Revision D.01,
 Gaussian 09:  ES64L-G09RevD.01 24-Apr-2013

 --------------------
 #p B2PLYPD3/Def2QZVP
 --------------------

 ---
 h2o
 ---
 Symbolic Z-matrix:
 Charge =  0 Multiplicity = 1

                         Standard orientation:
 ---------------------------------------------------------------------
 Center     Atomic      Atomic             Coordinates (Angstroms)
 Number     Number       Type             X           Y           Z
 ---------------------------------------------------------------------
      1          8           0        0.000000    0.114755    0.000000
      2          1           0        0.719177   -0.525820    0.000000
      3          1           0       -0.719177   -0.392218    0.000000
 ---------------------------------------------------------------------

 SCF Done:  E(RB2PLYPD3) =  -76.3288254403     A.U. after   10 cycles
 E2(B2PLYPD3) =    -0.8884377664D-01 E(B2PLYPD3) =    -0.76417669216959D+02

 The electronic state is 1-A'.
 Alpha  occ. eigenvalues --  -19.72537  -1.17815  -0.62730  -0.48235  -0.40344
 Alpha virt. eigenvalues --    0.04819   0.10579   0.27234   0.30309   0.31255
 Alpha virt. eigenvalues --    0.37780   0.45326   0.50327   0.56860   0.62063
 Alpha virt. eigenvalues --    0.64668   0.82006   0.94327   0.95392   1.05219

 Mulliken charges:
               1
     1  O   -0.401027
     2  H    0.223871
     3  H    0.177156
 Sum of Mulliken charges =   0.00000

 Dipole moment (field-independent basis, Debye):
    X=             -0.0439    Y=             -1.9588    Z=              0.0000  Tot=              1.9593
 Quadrupole moment (field-independent basis, Debye-Ang):
   XX=             -4.4893   YY=             -6.2377   ZZ=             -7.5029
   XY=             -0.2088   XZ=              0.0000   YZ=              0.0000

 1\1\GINC-NODE38\SP\RB2PLYPD3-FC\def2QZVP\H2O1\BOITTIER\26-Aug-2020\0\\
 #p B2PLYPD3/Def2QZVP\\h2o\\0,1\O,0,-5.326605,-0.761678,0.925163\H,0,-4
 .368927,-0.679143,0.865227\H,0,-5.609308,0.050038,0.736927\\Version=ES
 64L-G09RevD.01\State=1-A'\HF=-76.3288254\MP2=-76.4176692\RMSD=6.674e-0
 9\PG=CS [SG(H2O1)]\\@

 IF THE FACTS DO NOT CONFORM TO THE THEORY, THEY MUST BE DISPOSED OF.

 Normal termination of Gaussian 09 at Wed Aug 26 08:59:35 2020.
