 Gaussian 09, Revision D.01,
 Gaussian 09:  ES64L-G09RevD.01 24-Apr-2013

 --------------------
 #p B2PLYPD3/Def2QZVP
 --------------------

 ---
 h2o
 ---
 Symbolic Z-matrix:
 Charge =  0 Multiplicity = 1

                         Standard orientation:
 ---------------------------------------------------------------------
 Center     Atomic      Atomic             Coordinates (Angstroms)
 Number     Number       Type             X           Y           Z
 ---------------------------------------------------------------------
      1          8           0        0.000000    0.115857    0.000000
      2          1           0        0.758030   -0.471075    0.000000
      3          1           0       -0.758030   -0.455780    0.000000
 ---------------------------------------------------------------------

 SCF Done:  E(RB2PLYPD3) =  -76.3352199529     A.U. after   10 cycles
 E2(B2PLYPD3) =    -0.8982501983D-01 E(B2PLYPD3) =    -0.76425044972691D+02

 The electronic state is 1-A'.
 Alpha  occ. eigenvalues --  -19.73032  -1.15860  -0.61599  -0.47416  -0.39992
 Alpha virt. eigenvalues --    0.04598   0.10242   0.27474   0.30402   0.31132
 Alpha virt. eigenvalues --    0.36018   0.44106   0.50408   0.56230   0.62394
 Alpha virt. eigenvalues --    0.65502   0.81241   0.93910   0.95849   1.04315

 Mulliken charges:
               1
     1  O   -0.440587
     2  H    0.222428
     3  H    0.218158
 Sum of Mulliken charges =   0.00000

 Dipole moment (field-independent basis, Debye):
    X=             -0.0047    Y=             -1.9489    Z=              0.0000  Tot=              1.9489
 Quadrupole moment (field-independent basis, Debye-Ang):
   XX=             -4.3228   YY=             -6.3400   ZZ=             -7.5839
   XY=             -0.0253   XZ=              0.0000   YZ=              0.0000

 1\1\GINC-NODE32\SP\RB2PLYPD3-FC\def2QZVP\H2O1\BOITTIER\26-Aug-2020\0\\
 #p B2PLYPD3/Def2QZVP\\h2o\\0,1\O,0,-5.326605,-0.76298,0.923169\H,0,-4.
 368927,-0.734055,0.889774\H,0,-5.609308,0.125775,0.745484\\Version=ES6
 4L-G09RevD.01\State=1-A'\HF=-76.33522\MP2=-76.425045\RMSD=4.110e-09\PG
 =CS [SG(H2O1)]\\@

 AND ALL THIS SCIENCE I DON'T UNDERSTAND

 Normal termination of Gaussian 09 at Wed Aug 26 08:33:28 2020.
