 Gaussian 09, Revision D.01,
 Gaussian 09:  ES64L-G09RevD.01 24-Apr-2013

 --------------------
 #p B2PLYPD3/Def2QZVP
 --------------------

 ---
 h2o
 ---
 Symbolic Z-matrix:
 Charge =  0 Multiplicity = 1

                         Standard orientation:
 ---------------------------------------------------------------------
 Center     Atomic      Atomic             Coordinates (Angstroms)
 Number     Number       Type             X           Y           Z
 ---------------------------------------------------------------------
      1          8           0        0.000000    0.114903    0.000000
      2          1           0        0.762388   -0.465454    0.000000
      3          1           0       -0.762388   -0.453769    0.000000
 ---------------------------------------------------------------------

 SCF Done:  E(RB2PLYPD3) =  -76.3352266797     A.U. after   10 cycles
 E2(B2PLYPD3) =    -0.8982247591D-01 E(B2PLYPD3) =    -0.76425049155626D+02

 The electronic state is 1-A'.
 Alpha  occ. eigenvalues --  -19.73010  -1.15776  -0.61714  -0.47262  -0.39968
 Alpha virt. eigenvalues --    0.04607   0.10223   0.27466   0.30406   0.31198
 Alpha virt. eigenvalues --    0.35860   0.44084   0.50553   0.56108   0.62620
 Alpha virt. eigenvalues --    0.65501   0.81176   0.93825   0.95881   1.04447

 Mulliken charges:
               1
     1  O   -0.442764
     2  H    0.222999
     3  H    0.219765
 Sum of Mulliken charges =   0.00000

 Dipole moment (field-independent basis, Debye):
    X=             -0.0035    Y=             -1.9372    Z=              0.0000  Tot=              1.9372
 Quadrupole moment (field-independent basis, Debye-Ang):
   XX=             -4.2886   YY=             -6.3630   ZZ=             -7.5867
   XY=             -0.0195   XZ=              0.0000   YZ=              0.0000

 1\1\GINC-NODE29\SP\RB2PLYPD3-FC\def2QZVP\H2O1\BOITTIER\26-Aug-2020\0\\
 #p B2PLYPD3/Def2QZVP\\h2o\\0,1\O,0,-5.326605,-0.763277,0.917669\H,0,-4
 .368927,-0.738981,0.935316\H,0,-5.609308,0.135458,0.787373\\Version=ES
 64L-G09RevD.01\State=1-A'\HF=-76.3352267\MP2=-76.4250492\RMSD=4.013e-0
 9\PG=CS [SG(H2O1)]\\@

 "I COULD HAVE DONE IT IN A MUCH MORE COMPLICATED WAY"

 Normal termination of Gaussian 09 at Wed Aug 26 10:02:15 2020.
