 Gaussian 09, Revision D.01,
 Gaussian 09:  ES64L-G09RevD.01 24-Apr-2013

 --------------------
 #p B2PLYPD3/Def2QZVP
 --------------------

 ---
 h2o
 ---
 Symbolic Z-matrix:
 Charge =  0 Multiplicity = 1

                         Standard orientation:
 ---------------------------------------------------------------------
 Center     Atomic      Atomic             Coordinates (Angstroms)
 Number     Number       Type             X           Y           Z
 ---------------------------------------------------------------------
      1          8           0        0.000000    0.113151    0.000000
      2          1           0        0.777879   -0.445808    0.000000
      3          1           0       -0.777879   -0.459402    0.000000
 ---------------------------------------------------------------------

 SCF Done:  E(RB2PLYPD3) =  -76.3348146839     A.U. after   10 cycles
 E2(B2PLYPD3) =    -0.9000808327D-01 E(B2PLYPD3) =    -0.76424822767173D+02

 The electronic state is 1-A'.
 Alpha  occ. eigenvalues --  -19.73042  -1.15299  -0.61725  -0.46799  -0.39857
 Alpha virt. eigenvalues --    0.04557   0.10122   0.27479   0.30431   0.31254
 Alpha virt. eigenvalues --    0.35206   0.43869   0.50896   0.55730   0.63152
 Alpha virt. eigenvalues --    0.65643   0.80817   0.93452   0.96096   1.04346

 Mulliken charges:
               1
     1  O   -0.453033
     2  H    0.224737
     3  H    0.228296
 Sum of Mulliken charges =   0.00000

 Dipole moment (field-independent basis, Debye):
    X=              0.0038    Y=             -1.9111    Z=              0.0000  Tot=              1.9111
 Quadrupole moment (field-independent basis, Debye-Ang):
   XX=             -4.1885   YY=             -6.4248   ZZ=             -7.6072
   XY=              0.0235   XZ=              0.0000   YZ=              0.0000

 1\1\GINC-NODE33\SP\RB2PLYPD3-FC\def2QZVP\H2O1\BOITTIER\26-Aug-2020\0\\
 #p B2PLYPD3/Def2QZVP\\h2o\\0,1\O,0,-5.326605,-0.762106,0.917324\H,0,-4
 .368927,-0.775936,0.931169\H,0,-5.609308,0.153678,0.797612\\Version=ES
 64L-G09RevD.01\State=1-A'\HF=-76.3348147\MP2=-76.4248228\RMSD=3.822e-0
 9\PG=CS [SG(H2O1)]\\@

 THERE'S A SUCKER BORN EVERY MINUTE

 Normal termination of Gaussian 09 at Wed Aug 26 12:40:38 2020.
