 Gaussian 09, Revision D.01,
 Gaussian 09:  ES64L-G09RevD.01 24-Apr-2013

 --------------------
 #p B2PLYPD3/Def2QZVP
 --------------------

 ---
 h2o
 ---
 Symbolic Z-matrix:
 Charge =  0 Multiplicity = 1

                         Standard orientation:
 ---------------------------------------------------------------------
 Center     Atomic      Atomic             Coordinates (Angstroms)
 Number     Number       Type             X           Y           Z
 ---------------------------------------------------------------------
      1          8           0        0.000000    0.114394    0.000000
      2          1           0        0.777736   -0.444493    0.000000
      3          1           0       -0.777736   -0.470663    0.000000
 ---------------------------------------------------------------------

 SCF Done:  E(RB2PLYPD3) =  -76.3345970607     A.U. after   10 cycles
 E2(B2PLYPD3) =    -0.9014053301D-01 E(B2PLYPD3) =    -0.76424737593693D+02

 The electronic state is 1-A'.
 Alpha  occ. eigenvalues --  -19.73123  -1.15177  -0.61453  -0.46864  -0.39842
 Alpha virt. eigenvalues --    0.04504   0.10098   0.27509   0.30438   0.31109
 Alpha virt. eigenvalues --    0.35163   0.43776   0.50736   0.55772   0.62939
 Alpha virt. eigenvalues --    0.65741   0.80771   0.93374   0.96147   1.03900

 Mulliken charges:
               1
     1  O   -0.454341
     2  H    0.223802
     3  H    0.230539
 Sum of Mulliken charges =   0.00000

 Dipole moment (field-independent basis, Debye):
    X=              0.0074    Y=             -1.9232    Z=              0.0000  Tot=              1.9232
 Quadrupole moment (field-independent basis, Debye-Ang):
   XX=             -4.2061   YY=             -6.4090   ZZ=             -7.6141
   XY=              0.0449   XZ=              0.0000   YZ=              0.0000

 1\1\GINC-NODE17\SP\RB2PLYPD3-FC\def2QZVP\H2O1\BOITTIER\26-Aug-2020\0\\
 #p B2PLYPD3/Def2QZVP\\h2o\\0,1\O,0,-5.326605,-0.762653,0.91963\H,0,-4.
 368927,-0.770958,0.916231\H,0,-5.609308,0.157456,0.77595\\Version=ES64
 L-G09RevD.01\State=1-A'\HF=-76.3345971\MP2=-76.4247376\RMSD=3.954e-09\
 PG=CS [SG(H2O1)]\\@

 A SCIENTIST IS SOMEONE WHOSE CURIOSITY SURVIVES

 Normal termination of Gaussian 09 at Wed Aug 26 12:48:43 2020.
