 Gaussian 09, Revision D.01,
 Gaussian 09:  ES64L-G09RevD.01 24-Apr-2013

 --------------------
 #p B2PLYPD3/Def2QZVP
 --------------------

 ---
 h2o
 ---
 Symbolic Z-matrix:
 Charge =  0 Multiplicity = 1

                         Standard orientation:
 ---------------------------------------------------------------------
 Center     Atomic      Atomic             Coordinates (Angstroms)
 Number     Number       Type             X           Y           Z
 ---------------------------------------------------------------------
      1          8           0        0.000000    0.114023    0.000000
      2          1           0        0.765414   -0.467488    0.000000
      3          1           0       -0.765414   -0.444695    0.000000
 ---------------------------------------------------------------------

 SCF Done:  E(RB2PLYPD3) =  -76.3351372851     A.U. after   10 cycles
 E2(B2PLYPD3) =    -0.8979939281D-01 E(B2PLYPD3) =    -0.76424936677869D+02

 The electronic state is 1-A'.
 Alpha  occ. eigenvalues --  -19.72979  -1.15742  -0.61841  -0.47142  -0.39954
 Alpha virt. eigenvalues --    0.04619   0.10214   0.27454   0.30407   0.31256
 Alpha virt. eigenvalues --    0.35760   0.44090   0.50684   0.56013   0.62818
 Alpha virt. eigenvalues --    0.65480   0.81133   0.93763   0.95900   1.04565

 Mulliken charges:
               1
     1  O   -0.443944
     2  H    0.225116
     3  H    0.218827
 Sum of Mulliken charges =   0.00000

 Dipole moment (field-independent basis, Debye):
    X=             -0.0066    Y=             -1.9269    Z=              0.0000  Tot=              1.9270
 Quadrupole moment (field-independent basis, Debye-Ang):
   XX=             -4.2619   YY=             -6.3813   ZZ=             -7.5875
   XY=             -0.0385   XZ=              0.0000   YZ=              0.0000

 1\1\GINC-NODE30\SP\RB2PLYPD3-FC\def2QZVP\H2O1\BOITTIER\26-Aug-2020\0\\
 #p B2PLYPD3/Def2QZVP\\h2o\\0,1\O,0,-5.326605,-0.763043,0.910402\H,0,-4
 .368927,-0.746454,0.991585\H,0,-5.609308,0.139188,0.846516\\Version=ES
 64L-G09RevD.01\State=1-A'\HF=-76.3351373\MP2=-76.4249367\RMSD=4.059e-0
 9\PG=CS [SG(H2O1)]\\@

 NATURE REVEALS EVERY SECRET ONCE.

 Normal termination of Gaussian 09 at Wed Aug 26 08:45:09 2020.
