 Gaussian 09, Revision D.01,
 Gaussian 09:  ES64L-G09RevD.01 24-Apr-2013

 --------------------
 #p B2PLYPD3/Def2QZVP
 --------------------

 ---
 h2o
 ---
 Symbolic Z-matrix:
 Charge =  0 Multiplicity = 1

                         Standard orientation:
 ---------------------------------------------------------------------
 Center     Atomic      Atomic             Coordinates (Angstroms)
 Number     Number       Type             X           Y           Z
 ---------------------------------------------------------------------
      1          8           0        0.000000    0.111927    0.000000
      2          1           0        0.726061   -0.516080    0.000000
      3          1           0       -0.726061   -0.379337    0.000000
 ---------------------------------------------------------------------

 SCF Done:  E(RB2PLYPD3) =  -76.3285440962     A.U. after   10 cycles
 E2(B2PLYPD3) =    -0.8869197213D-01 E(B2PLYPD3) =    -0.76417236068291D+02

 The electronic state is 1-A'.
 Alpha  occ. eigenvalues --  -19.72409  -1.17829  -0.63268  -0.47909  -0.40329
 Alpha virt. eigenvalues --    0.04895   0.10565   0.27188   0.30304   0.31460
 Alpha virt. eigenvalues --    0.37608   0.45395   0.50694   0.56610   0.62644
 Alpha virt. eigenvalues --    0.64564   0.82039   0.94221   0.95369   1.05561

 Mulliken charges:
               1
     1  O   -0.401063
     2  H    0.224545
     3  H    0.176518
 Sum of Mulliken charges =   0.00000

 Dipole moment (field-independent basis, Debye):
    X=             -0.0423    Y=             -1.9275    Z=              0.0000  Tot=              1.9280
 Quadrupole moment (field-independent basis, Debye-Ang):
   XX=             -4.4197   YY=             -6.2880   ZZ=             -7.4986
   XY=             -0.2195   XZ=              0.0000   YZ=              0.0000

 1\1\GINC-NODE30\SP\RB2PLYPD3-FC\def2QZVP\H2O1\BOITTIER\26-Aug-2020\0\\
 #p B2PLYPD3/Def2QZVP\\h2o\\0,1\O,0,-5.326605,-0.760584,0.921355\H,0,-4
 .368927,-0.702653,0.888884\H,0,-5.609308,0.056042,0.774025\\Version=ES
 64L-G09RevD.01\State=1-A'\HF=-76.3285441\MP2=-76.4172361\RMSD=6.736e-0
 9\PG=CS [SG(H2O1)]\\@

 AND ALL THIS SCIENCE I DON'T UNDERSTAND

 Normal termination of Gaussian 09 at Wed Aug 26 08:33:28 2020.
