 Gaussian 09, Revision D.01,
 Gaussian 09:  ES64L-G09RevD.01 24-Apr-2013

 --------------------
 #p B2PLYPD3/Def2QZVP
 --------------------

 ---
 h2o
 ---
 Symbolic Z-matrix:
 Charge =  0 Multiplicity = 1

                         Standard orientation:
 ---------------------------------------------------------------------
 Center     Atomic      Atomic             Coordinates (Angstroms)
 Number     Number       Type             X           Y           Z
 ---------------------------------------------------------------------
      1          8           0        0.000000    0.118501    0.000000
      2          1           0        0.744547   -0.490239    0.000000
      3          1           0       -0.744547   -0.457766    0.000000
 ---------------------------------------------------------------------

 SCF Done:  E(RB2PLYPD3) =  -76.3349025516     A.U. after   10 cycles
 E2(B2PLYPD3) =    -0.8981320329D-01 E(B2PLYPD3) =    -0.76424715754848D+02

 The electronic state is 1-A'.
 Alpha  occ. eigenvalues --  -19.73082  -1.16150  -0.61289  -0.47874  -0.40068
 Alpha virt. eigenvalues --    0.04576   0.10306   0.27492   0.30389   0.30955
 Alpha virt. eigenvalues --    0.36496   0.44198   0.50032   0.56596   0.61758
 Alpha virt. eigenvalues --    0.65484   0.81405   0.94191   0.95763   1.04001

 Mulliken charges:
               1
     1  O   -0.433675
     2  H    0.221511
     3  H    0.212164
 Sum of Mulliken charges =   0.00000

 Dipole moment (field-independent basis, Debye):
    X=             -0.0107    Y=             -1.9816    Z=              0.0000  Tot=              1.9817
 Quadrupole moment (field-independent basis, Debye-Ang):
   XX=             -4.4238   YY=             -6.2721   ZZ=             -7.5741
   XY=             -0.0518   XZ=              0.0000   YZ=              0.0000

 1\1\GINC-NODE03\SP\RB2PLYPD3-FC\def2QZVP\H2O1\BOITTIER\26-Aug-2020\0\\
 #p B2PLYPD3/Def2QZVP\\h2o\\0,1\O,0,-5.326605,-0.763805,0.927058\H,0,-4
 .368927,-0.702526,0.863715\H,0,-5.609308,0.107451,0.709285\\Version=ES
 64L-G09RevD.01\State=1-A'\HF=-76.3349026\MP2=-76.4247158\RMSD=4.524e-0
 9\PG=CS [SG(H2O1)]\\@

                                                                                    A

 Normal termination of Gaussian 09 at Wed Aug 26 11:22:13 2020.
