 Gaussian 09, Revision D.01,
 Gaussian 09:  ES64L-G09RevD.01 24-Apr-2013

 --------------------
 #p B2PLYPD3/Def2QZVP
 --------------------

 ---
 h2o
 ---
 Symbolic Z-matrix:
 Charge =  0 Multiplicity = 1

                         Standard orientation:
 ---------------------------------------------------------------------
 Center     Atomic      Atomic             Coordinates (Angstroms)
 Number     Number       Type             X           Y           Z
 ---------------------------------------------------------------------
      1          8           0        0.000000    0.121228    0.000000
      2          1           0        0.729894   -0.510331    0.000000
      3          1           0       -0.729894   -0.459490    0.000000
 ---------------------------------------------------------------------

 SCF Done:  E(RB2PLYPD3) =  -76.3340653640     A.U. after   10 cycles
 E2(B2PLYPD3) =    -0.8980670655D-01 E(B2PLYPD3) =    -0.76423872070528D+02

 The electronic state is 1-A'.
 Alpha  occ. eigenvalues --  -19.73127  -1.16475  -0.60948  -0.48363  -0.40148
 Alpha virt. eigenvalues --    0.04543   0.10376   0.27508   0.30375   0.30772
 Alpha virt. eigenvalues --    0.36969   0.44310   0.49697   0.56982   0.61111
 Alpha virt. eigenvalues --    0.65446   0.81517   0.94504   0.95692   1.03737

 Mulliken charges:
               1
     1  O   -0.426343
     2  H    0.220739
     3  H    0.205605
 Sum of Mulliken charges =   0.00000

 Dipole moment (field-independent basis, Debye):
    X=             -0.0180    Y=             -2.0152    Z=              0.0000  Tot=              2.0153
 Quadrupole moment (field-independent basis, Debye-Ang):
   XX=             -4.5306   YY=             -6.1997   ZZ=             -7.5639
   XY=             -0.0780   XZ=              0.0000   YZ=              0.0000

 1\1\GINC-NODE12\SP\RB2PLYPD3-FC\def2QZVP\H2O1\BOITTIER\26-Aug-2020\0\\
 #p B2PLYPD3/Def2QZVP\\h2o\\0,1\O,0,-5.326605,-0.766864,0.922293\H,0,-4
 .368927,-0.646617,0.919953\H,0,-5.609308,0.10048,0.727945\\Version=ES6
 4L-G09RevD.01\State=1-A'\HF=-76.3340654\MP2=-76.4238721\RMSD=5.094e-09
 \PG=CS [SG(H2O1)]\\@

 THE 2ND LAW OF THERMODYNAMICS HAS THE SAME

 Normal termination of Gaussian 09 at Wed Aug 26 08:07:45 2020.
