 Gaussian 09, Revision D.01,
 Gaussian 09:  ES64L-G09RevD.01 24-Apr-2013

 --------------------
 #p B2PLYPD3/Def2QZVP
 --------------------

 ---
 h2o
 ---
 Symbolic Z-matrix:
 Charge =  0 Multiplicity = 1

                         Standard orientation:
 ---------------------------------------------------------------------
 Center     Atomic      Atomic             Coordinates (Angstroms)
 Number     Number       Type             X           Y           Z
 ---------------------------------------------------------------------
      1          8           0        0.000000    0.114248    0.000000
      2          1           0        0.765536   -0.461559    0.000000
      3          1           0       -0.765536   -0.452427    0.000000
 ---------------------------------------------------------------------

 SCF Done:  E(RB2PLYPD3) =  -76.3352055944     A.U. after   10 cycles
 E2(B2PLYPD3) =    -0.8982598434D-01 E(B2PLYPD3) =    -0.76425031578732D+02

 The electronic state is 1-A'.
 Alpha  occ. eigenvalues --  -19.72996  -1.15711  -0.61787  -0.47153  -0.39950
 Alpha virt. eigenvalues --    0.04610   0.10208   0.27461   0.30409   0.31242
 Alpha virt. eigenvalues --    0.35742   0.44065   0.50656   0.56021   0.62779
 Alpha virt. eigenvalues --    0.65503   0.81123   0.93763   0.95908   1.04531

 Mulliken charges:
               1
     1  O   -0.444423
     2  H    0.223467
     3  H    0.220957
 Sum of Mulliken charges =   0.00000

 Dipole moment (field-independent basis, Debye):
    X=             -0.0027    Y=             -1.9291    Z=              0.0000  Tot=              1.9291
 Quadrupole moment (field-independent basis, Debye-Ang):
   XX=             -4.2643   YY=             -6.3792   ZZ=             -7.5890
   XY=             -0.0154   XZ=              0.0000   YZ=              0.0000

 1\1\GINC-NODE01\SP\RB2PLYPD3-FC\def2QZVP\H2O1\BOITTIER\26-Aug-2020\0\\
 #p B2PLYPD3/Def2QZVP\\h2o\\0,1\O,0,-5.326605,-0.762834,0.917593\H,0,-4
 .368927,-0.748427,0.93326\H,0,-5.609308,0.13781,0.790763\\Version=ES64
 L-G09RevD.01\State=1-A'\HF=-76.3352056\MP2=-76.4250316\RMSD=3.950e-09\
 PG=CS [SG(H2O1)]\\@

 IN SO FAR AS QUANTUM MECHANICS IS CORRECT, CHEMICAL

 Normal termination of Gaussian 09 at Wed Aug 26 09:26:53 2020.
