 Gaussian 09, Revision D.01,
 Gaussian 09:  ES64L-G09RevD.01 24-Apr-2013

 --------------------
 #p B2PLYPD3/Def2QZVP
 --------------------

 ---
 h2o
 ---
 Symbolic Z-matrix:
 Charge =  0 Multiplicity = 1

                         Standard orientation:
 ---------------------------------------------------------------------
 Center     Atomic      Atomic             Coordinates (Angstroms)
 Number     Number       Type             X           Y           Z
 ---------------------------------------------------------------------
      1          8           0        0.000000    0.115338    0.000000
      2          1           0        0.748570   -0.484007    0.000000
      3          1           0       -0.748570   -0.438697    0.000000
 ---------------------------------------------------------------------

 SCF Done:  E(RB2PLYPD3) =  -76.3348124987     A.U. after   10 cycles
 E2(B2PLYPD3) =    -0.8954754608D-01 E(B2PLYPD3) =    -0.76424360044756D+02

 The electronic state is 1-A'.
 Alpha  occ. eigenvalues --  -19.72901  -1.16339  -0.61937  -0.47613  -0.40081
 Alpha virt. eigenvalues --    0.04679   0.10333   0.27418   0.30377   0.31226
 Alpha virt. eigenvalues --    0.36494   0.44390   0.50409   0.56395   0.62345
 Alpha virt. eigenvalues --    0.65279   0.81479   0.94144   0.95667   1.04756

 Mulliken charges:
               1
     1  O   -0.431695
     2  H    0.222547
     3  H    0.209147
 Sum of Mulliken charges =   0.00000

 Dipole moment (field-independent basis, Debye):
    X=             -0.0140    Y=             -1.9493    Z=              0.0000  Tot=              1.9493
 Quadrupole moment (field-independent basis, Debye-Ang):
   XX=             -4.3611   YY=             -6.3200   ZZ=             -7.5623
   XY=             -0.0740   XZ=              0.0000   YZ=              0.0000

 1\1\GINC-NODE14\SP\RB2PLYPD3-FC\def2QZVP\H2O1\BOITTIER\26-Aug-2020\0\\
 #p B2PLYPD3/Def2QZVP\\h2o\\0,1\O,0,-5.326605,-0.762935,0.921661\H,0,-4
 .368927,-0.718105,0.901277\H,0,-5.609308,0.109106,0.757539\\Version=ES
 64L-G09RevD.01\State=1-A'\HF=-76.3348125\MP2=-76.42436\RMSD=4.654e-09\
 PG=CS [SG(H2O1)]\\@

 BE CAREFUL NOT TO BECOME TOO GOOD OF A SONGBIRD OR

 Normal termination of Gaussian 09 at Wed Aug 26 10:22:12 2020.
