 Gaussian 09, Revision D.01,
 Gaussian 09:  ES64L-G09RevD.01 24-Apr-2013

 --------------------
 #p B2PLYPD3/Def2QZVP
 --------------------

 ---
 h2o
 ---
 Symbolic Z-matrix:
 Charge =  0 Multiplicity = 1

                         Standard orientation:
 ---------------------------------------------------------------------
 Center     Atomic      Atomic             Coordinates (Angstroms)
 Number     Number       Type             X           Y           Z
 ---------------------------------------------------------------------
      1          8           0        0.000000    0.120794    0.000000
      2          1           0        0.734874   -0.502433    0.000000
      3          1           0       -0.734874   -0.463921    0.000000
 ---------------------------------------------------------------------

 SCF Done:  E(RB2PLYPD3) =  -76.3344721598     A.U. after   10 cycles
 E2(B2PLYPD3) =    -0.8986455923D-01 E(B2PLYPD3) =    -0.76424336719024D+02

 The electronic state is 1-A'.
 Alpha  occ. eigenvalues --  -19.73147  -1.16304  -0.60952  -0.48223  -0.40114
 Alpha virt. eigenvalues --    0.04537   0.10342   0.27518   0.30382   0.30793
 Alpha virt. eigenvalues --    0.36780   0.44222   0.49755   0.56872   0.61247
 Alpha virt. eigenvalues --    0.65505   0.81460   0.94406   0.95738   1.03695

 Mulliken charges:
               1
     1  O   -0.429698
     2  H    0.220472
     3  H    0.209227
 Sum of Mulliken charges =   0.00000

 Dipole moment (field-independent basis, Debye):
    X=             -0.0134    Y=             -2.0085    Z=              0.0000  Tot=              2.0086
 Quadrupole moment (field-independent basis, Debye-Ang):
   XX=             -4.5014   YY=             -6.2187   ZZ=             -7.5704
   XY=             -0.0597   XZ=              0.0000   YZ=              0.0000

 1\1\GINC-NODE09\SP\RB2PLYPD3-FC\def2QZVP\H2O1\BOITTIER\26-Aug-2020\0\\
 #p B2PLYPD3/Def2QZVP\\h2o\\0,1\O,0,-5.326605,-0.766257,0.92377\H,0,-4.
 368927,-0.66167,0.904621\H,0,-5.609308,0.10582,0.720071\\Version=ES64L
 -G09RevD.01\State=1-A'\HF=-76.3344722\MP2=-76.4243367\RMSD=4.814e-09\P
 G=CS [SG(H2O1)]\\@

 EVERY WORD THAT YOU WRITE IS A BLOW THAT SMITES THE DEVIL.

 Normal termination of Gaussian 09 at Wed Aug 26 11:53:31 2020.
