 Gaussian 09, Revision D.01,
 Gaussian 09:  ES64L-G09RevD.01 24-Apr-2013

 --------------------
 #p B2PLYPD3/Def2QZVP
 --------------------

 ---
 h2o
 ---
 Symbolic Z-matrix:
 Charge =  0 Multiplicity = 1

                         Standard orientation:
 ---------------------------------------------------------------------
 Center     Atomic      Atomic             Coordinates (Angstroms)
 Number     Number       Type             X           Y           Z
 ---------------------------------------------------------------------
      1          8           0        0.000000    0.117602    0.000000
      2          1           0        0.780492   -0.437624    0.000000
      3          1           0       -0.780492   -0.503193    0.000000
 ---------------------------------------------------------------------

 SCF Done:  E(RB2PLYPD3) =  -76.3331344798     A.U. after   10 cycles
 E2(B2PLYPD3) =    -0.9057439827D-01 E(B2PLYPD3) =    -0.76423708878086D+02

 The electronic state is 1-A'.
 Alpha  occ. eigenvalues --  -19.73358  -1.14742  -0.60681  -0.46939  -0.39775
 Alpha virt. eigenvalues --    0.04325   0.10005   0.27597   0.30462   0.30635
 Alpha virt. eigenvalues --    0.34918   0.43491   0.50363   0.55796   0.62459
 Alpha virt. eigenvalues --    0.66048   0.80541   0.92987   0.96349   1.02603

 Mulliken charges:
               1
     1  O   -0.459498
     2  H    0.221808
     3  H    0.237690
 Sum of Mulliken charges =   0.00000

 Dipole moment (field-independent basis, Debye):
    X=              0.0194    Y=             -1.9516    Z=              0.0000  Tot=              1.9517
 Quadrupole moment (field-independent basis, Debye-Ang):
   XX=             -4.2362   YY=             -6.3743   ZZ=             -7.6386
   XY=              0.1111   XZ=              0.0000   YZ=              0.0000

 1\1\GINC-NODE36\SP\RB2PLYPD3-FC\def2QZVP\H2O1\BOITTIER\26-Aug-2020\0\\
 #p B2PLYPD3/Def2QZVP\\h2o\\0,1\O,0,-5.326605,-0.764939,0.919183\H,0,-4
 .368927,-0.755926,0.933853\H,0,-5.609308,0.178995,0.76549\\Version=ES6
 4L-G09RevD.01\State=1-A'\HF=-76.3331345\MP2=-76.4237089\RMSD=4.605e-09
 \PG=CS [SG(H2O1)]\\@

 GETTING A SIMPLE ANSWER FROM A PROFESSOR IS LIKE

 Normal termination of Gaussian 09 at Wed Aug 26 08:30:12 2020.
