 Gaussian 09, Revision D.01,
 Gaussian 09:  ES64L-G09RevD.01 24-Apr-2013

 --------------------
 #p B2PLYPD3/Def2QZVP
 --------------------

 ---
 h2o
 ---
 Symbolic Z-matrix:
 Charge =  0 Multiplicity = 1

                         Standard orientation:
 ---------------------------------------------------------------------
 Center     Atomic      Atomic             Coordinates (Angstroms)
 Number     Number       Type             X           Y           Z
 ---------------------------------------------------------------------
      1          8           0        0.000000    0.112184    0.000000
      2          1           0        0.776031   -0.456947    0.000000
      3          1           0       -0.776031   -0.440522    0.000000
 ---------------------------------------------------------------------

 SCF Done:  E(RB2PLYPD3) =  -76.3349419443     A.U. after   10 cycles
 E2(B2PLYPD3) =    -0.8985946816D-01 E(B2PLYPD3) =    -0.76424801412457D+02

 The electronic state is 1-A'.
 Alpha  occ. eigenvalues --  -19.72959  -1.15478  -0.61988  -0.46793  -0.39886
 Alpha virt. eigenvalues --    0.04612   0.10156   0.27448   0.30420   0.31369
 Alpha virt. eigenvalues --    0.35334   0.43990   0.51006   0.55733   0.63293
 Alpha virt. eigenvalues --    0.65528   0.80907   0.93556   0.96024   1.04734

 Mulliken charges:
               1
     1  O   -0.450293
     2  H    0.227346
     3  H    0.222946
 Sum of Mulliken charges =   0.00000

 Dipole moment (field-independent basis, Debye):
    X=             -0.0045    Y=             -1.9028    Z=              0.0000  Tot=              1.9028
 Quadrupole moment (field-independent basis, Debye-Ang):
   XX=             -4.1846   YY=             -6.4314   ZZ=             -7.5979
   XY=             -0.0284   XZ=              0.0000   YZ=              0.0000

 1\1\GINC-NODE12\SP\RB2PLYPD3-FC\def2QZVP\H2O1\BOITTIER\26-Aug-2020\0\\
 #p B2PLYPD3/Def2QZVP\\h2o\\0,1\O,0,-5.326605,-0.761671,0.908093\H,0,-4
 .368927,-0.776723,1.001687\H,0,-5.609308,0.147498,0.873479\\Version=ES
 64L-G09RevD.01\State=1-A'\HF=-76.3349419\MP2=-76.4248014\RMSD=3.861e-0
 9\PG=CS [SG(H2O1)]\\@

 IT WAS A GAME, A VERY INTERESTING GAME ONE COULD

 Normal termination of Gaussian 09 at Wed Aug 26 08:51:05 2020.
