 Gaussian 09, Revision D.01,
 Gaussian 09:  ES64L-G09RevD.01 24-Apr-2013

 --------------------
 #p B2PLYPD3/Def2QZVP
 --------------------

 ---
 h2o
 ---
 Symbolic Z-matrix:
 Charge =  0 Multiplicity = 1

                         Standard orientation:
 ---------------------------------------------------------------------
 Center     Atomic      Atomic             Coordinates (Angstroms)
 Number     Number       Type             X           Y           Z
 ---------------------------------------------------------------------
      1          8           0        0.000000    0.114341    0.000000
      2          1           0        0.788138   -0.430717    0.000000
      3          1           0       -0.788138   -0.484015    0.000000
 ---------------------------------------------------------------------

 SCF Done:  E(RB2PLYPD3) =  -76.3335016090     A.U. after   10 cycles
 E2(B2PLYPD3) =    -0.9039765727D-01 E(B2PLYPD3) =    -0.76423899266290D+02

 The electronic state is 1-A'.
 Alpha  occ. eigenvalues --  -19.73214  -1.14756  -0.61201  -0.46604  -0.39751
 Alpha virt. eigenvalues --    0.04407   0.10006   0.27539   0.30462   0.30962
 Alpha virt. eigenvalues --    0.34708   0.43560   0.50836   0.55545   0.63110
 Alpha virt. eigenvalues --    0.65928   0.80444   0.92994   0.96346   1.03303

 Mulliken charges:
               1
     1  O   -0.462144
     2  H    0.224564
     3  H    0.237580
 Sum of Mulliken charges =   0.00000

 Dipole moment (field-independent basis, Debye):
    X=              0.0146    Y=             -1.9162    Z=              0.0000  Tot=              1.9162
 Quadrupole moment (field-independent basis, Debye-Ang):
   XX=             -4.1531   YY=             -6.4352   ZZ=             -7.6347
   XY=              0.0929   XZ=              0.0000   YZ=              0.0000

 1\1\GINC-NODE13\SP\RB2PLYPD3-FC\def2QZVP\H2O1\BOITTIER\26-Aug-2020\0\\
 #p B2PLYPD3/Def2QZVP\\h2o\\0,1\O,0,-5.326605,-0.762993,0.916794\H,0,-4
 .368927,-0.785713,0.941013\H,0,-5.609308,0.177652,0.796554\\Version=ES
 64L-G09RevD.01\State=1-A'\HF=-76.3335016\MP2=-76.4238993\RMSD=4.328e-0
 9\PG=CS [SG(H2O1)]\\@

 LIFE IS A CONTINUAL STRUGGLE AGAINST THE TENDENCY TO PRODUCE ENTROPY.

 Normal termination of Gaussian 09 at Wed Aug 26 11:15:02 2020.
