 Gaussian 09, Revision D.01,
 Gaussian 09:  ES64L-G09RevD.01 24-Apr-2013

 --------------------
 #p B2PLYPD3/Def2QZVP
 --------------------

 ---
 h2o
 ---
 Symbolic Z-matrix:
 Charge =  0 Multiplicity = 1

                         Standard orientation:
 ---------------------------------------------------------------------
 Center     Atomic      Atomic             Coordinates (Angstroms)
 Number     Number       Type             X           Y           Z
 ---------------------------------------------------------------------
      1          8           0        0.000000    0.114191    0.000000
      2          1           0        0.767264   -0.459208    0.000000
      3          1           0       -0.767264   -0.454320    0.000000
 ---------------------------------------------------------------------

 SCF Done:  E(RB2PLYPD3) =  -76.3351774437     A.U. after   10 cycles
 E2(B2PLYPD3) =    -0.8986132258D-01 E(B2PLYPD3) =    -0.76425038766294D+02

 The electronic state is 1-A'.
 Alpha  occ. eigenvalues --  -19.73009  -1.15642  -0.61757  -0.47108  -0.39936
 Alpha virt. eigenvalues --    0.04600   0.10194   0.27467   0.30413   0.31235
 Alpha virt. eigenvalues --    0.35662   0.44029   0.50677   0.55984   0.62814
 Alpha virt. eigenvalues --    0.65530   0.81079   0.93717   0.95937   1.04480

 Mulliken charges:
               1
     1  O   -0.445765
     2  H    0.223549
     3  H    0.222216
 Sum of Mulliken charges =   0.00000

 Dipole moment (field-independent basis, Debye):
    X=             -0.0014    Y=             -1.9275    Z=              0.0000  Tot=              1.9275
 Quadrupole moment (field-independent basis, Debye-Ang):
   XX=             -4.2551   YY=             -6.3845   ZZ=             -7.5921
   XY=             -0.0083   XZ=              0.0000   YZ=              0.0000

 1\1\GINC-NODE10\SP\RB2PLYPD3-FC\def2QZVP\H2O1\BOITTIER\26-Aug-2020\0\\
 #p B2PLYPD3/Def2QZVP\\h2o\\0,1\O,0,-5.326605,-0.762784,0.917681\H,0,-4
 .368927,-0.751838,0.932287\H,0,-5.609308,0.140421,0.790405\\Version=ES
 64L-G09RevD.01\State=1-A'\HF=-76.3351774\MP2=-76.4250388\RMSD=3.911e-0
 9\PG=CS [SG(H2O1)]\\@

 THE FIRST MORNING OF CREATION WROTE WHAT THE LAST DAWN OF

 Normal termination of Gaussian 09 at Wed Aug 26 08:30:02 2020.
