 Gaussian 09, Revision D.01,
 Gaussian 09:  ES64L-G09RevD.01 24-Apr-2013

 --------------------
 #p B2PLYPD3/Def2QZVP
 --------------------

 ---
 h2o
 ---
 Symbolic Z-matrix:
 Charge =  0 Multiplicity = 1

                         Standard orientation:
 ---------------------------------------------------------------------
 Center     Atomic      Atomic             Coordinates (Angstroms)
 Number     Number       Type             X           Y           Z
 ---------------------------------------------------------------------
      1          8           0        0.000000    0.115170    0.000000
      2          1           0        0.736125   -0.507503    0.000000
      3          1           0       -0.736125   -0.413860    0.000000
 ---------------------------------------------------------------------

 SCF Done:  E(RB2PLYPD3) =  -76.3328190196     A.U. after   10 cycles
 E2(B2PLYPD3) =    -0.8925481304D-01 E(B2PLYPD3) =    -0.76422073832682D+02

 The electronic state is 1-A'.
 Alpha  occ. eigenvalues --  -19.72755  -1.16942  -0.62258  -0.47878  -0.40190
 Alpha virt. eigenvalues --    0.04738   0.10438   0.27346   0.30349   0.31221
 Alpha virt. eigenvalues --    0.37062   0.44771   0.50363   0.56597   0.62215
 Alpha virt. eigenvalues --    0.65020   0.81720   0.94255   0.95525   1.04875

 Mulliken charges:
               1
     1  O   -0.419422
     2  H    0.224550
     3  H    0.194872
 Sum of Mulliken charges =   0.00000

 Dipole moment (field-independent basis, Debye):
    X=             -0.0298    Y=             -1.9541    Z=              0.0000  Tot=              1.9544
 Quadrupole moment (field-independent basis, Debye-Ang):
   XX=             -4.4173   YY=             -6.2843   ZZ=             -7.5377
   XY=             -0.1501   XZ=              0.0000   YZ=              0.0000

 1\1\GINC-NODE16\SP\RB2PLYPD3-FC\def2QZVP\H2O1\BOITTIER\26-Aug-2020\0\\
 #p B2PLYPD3/Def2QZVP\\h2o\\0,1\O,0,-5.326605,-0.76066,0.929326\H,0,-4.
 368927,-0.717772,0.826297\H,0,-5.609308,0.072376,0.710506\\Version=ES6
 4L-G09RevD.01\State=1-A'\HF=-76.332819\MP2=-76.4220738\RMSD=5.880e-09\
 PG=CS [SG(H2O1)]\\@

 BE NOT THE FIRST BY WHOM THE NEW ARE TRIED,

 Normal termination of Gaussian 09 at Wed Aug 26 08:33:36 2020.
