 Gaussian 09, Revision D.01,
 Gaussian 09:  ES64L-G09RevD.01 24-Apr-2013

 --------------------
 #p B2PLYPD3/Def2QZVP
 --------------------

 ---
 h2o
 ---
 Symbolic Z-matrix:
 Charge =  0 Multiplicity = 1

                         Standard orientation:
 ---------------------------------------------------------------------
 Center     Atomic      Atomic             Coordinates (Angstroms)
 Number     Number       Type             X           Y           Z
 ---------------------------------------------------------------------
      1          8           0        0.000000    0.116313    0.000000
      2          1           0        0.752536   -0.477887    0.000000
      3          1           0       -0.752536   -0.452614    0.000000
 ---------------------------------------------------------------------

 SCF Done:  E(RB2PLYPD3) =  -76.3351457394     A.U. after   10 cycles
 E2(B2PLYPD3) =    -0.8974727575D-01 E(B2PLYPD3) =    -0.76424893015151D+02

 The electronic state is 1-A'.
 Alpha  occ. eigenvalues --  -19.73009  -1.16049  -0.61620  -0.47571  -0.40033
 Alpha virt. eigenvalues --    0.04617   0.10281   0.27464   0.30393   0.31122
 Alpha virt. eigenvalues --    0.36253   0.44198   0.50320   0.56357   0.62236
 Alpha virt. eigenvalues --    0.65440   0.81347   0.94042   0.95777   1.04377

 Mulliken charges:
               1
     1  O   -0.436756
     2  H    0.221985
     3  H    0.214772
 Sum of Mulliken charges =   0.00000

 Dipole moment (field-independent basis, Debye):
    X=             -0.0079    Y=             -1.9564    Z=              0.0000  Tot=              1.9564
 Quadrupole moment (field-independent basis, Debye-Ang):
   XX=             -4.3555   YY=             -6.3198   ZZ=             -7.5759
   XY=             -0.0413   XZ=              0.0000   YZ=              0.0000

 1\1\GINC-NODE04\SP\RB2PLYPD3-FC\def2QZVP\H2O1\BOITTIER\26-Aug-2020\0\\
 #p B2PLYPD3/Def2QZVP\\h2o\\0,1\O,0,-5.326605,-0.763704,0.921201\H,0,-4
 .368927,-0.717828,0.909724\H,0,-5.609308,0.121141,0.756531\\Version=ES
 64L-G09RevD.01\State=1-A'\HF=-76.3351457\MP2=-76.424893\RMSD=4.289e-09
 \PG=CS [SG(H2O1)]\\@

 ACTORS ARE SO FORTUNATE.  THEY CAN CHOOSE WHETHER

 Normal termination of Gaussian 09 at Wed Aug 26 09:02:30 2020.
