 Gaussian 09, Revision D.01,
 Gaussian 09:  ES64L-G09RevD.01 24-Apr-2013

 --------------------
 #p B2PLYPD3/Def2QZVP
 --------------------

 ---
 h2o
 ---
 Symbolic Z-matrix:
 Charge =  0 Multiplicity = 1

                         Standard orientation:
 ---------------------------------------------------------------------
 Center     Atomic      Atomic             Coordinates (Angstroms)
 Number     Number       Type             X           Y           Z
 ---------------------------------------------------------------------
      1          8           0        0.000000    0.113855    0.000000
      2          1           0        0.802627   -0.411413    0.000000
      3          1           0       -0.802627   -0.499426    0.000000
 ---------------------------------------------------------------------

 SCF Done:  E(RB2PLYPD3) =  -76.3313798740     A.U. after   10 cycles
 E2(B2PLYPD3) =    -0.9072310794D-01 E(B2PLYPD3) =    -0.76422102981958D+02

 The electronic state is 1-A'.
 Alpha  occ. eigenvalues --  -19.73310  -1.14226  -0.60927  -0.46219  -0.39630
 Alpha virt. eigenvalues --    0.04268   0.09884   0.27558   0.30492   0.30726
 Alpha virt. eigenvalues --    0.34161   0.43302   0.51047   0.55208   0.63419
 Alpha virt. eigenvalues --    0.66157   0.79952   0.92437   0.96603   1.02535

 Mulliken charges:
               1
     1  O   -0.472228
     2  H    0.226069
     3  H    0.246159
 Sum of Mulliken charges =   0.00000

 Dipole moment (field-independent basis, Debye):
    X=              0.0229    Y=             -1.9021    Z=              0.0000  Tot=              1.9023
 Quadrupole moment (field-independent basis, Debye-Ang):
   XX=             -4.0727   YY=             -6.4751   ZZ=             -7.6615
   XY=              0.1570   XZ=              0.0000   YZ=              0.0000

 1\1\GINC-NODE02\SP\RB2PLYPD3-FC\def2QZVP\H2O1\BOITTIER\26-Aug-2020\0\\
 #p B2PLYPD3/Def2QZVP\\h2o\\0,1\O,0,-5.326605,-0.762626,0.91711\H,0,-4.
 368927,-0.813544,0.936523\H,0,-5.609308,0.199598,0.796582\\Version=ES6
 4L-G09RevD.01\State=1-A'\HF=-76.3313799\MP2=-76.422103\RMSD=5.160e-09\
 PG=CS [SG(H2O1)]\\@

 I am not a vegetarian because I love animals;

 Normal termination of Gaussian 09 at Wed Aug 26 08:48:28 2020.
