 Gaussian 09, Revision D.01,
 Gaussian 09:  ES64L-G09RevD.01 24-Apr-2013

 --------------------
 #p B2PLYPD3/Def2QZVP
 --------------------

 ---
 h2o
 ---
 Symbolic Z-matrix:
 Charge =  0 Multiplicity = 1

                         Standard orientation:
 ---------------------------------------------------------------------
 Center     Atomic      Atomic             Coordinates (Angstroms)
 Number     Number       Type             X           Y           Z
 ---------------------------------------------------------------------
      1          8           0        0.000000    0.115682    0.000000
      2          1           0        0.759464   -0.469315    0.000000
      3          1           0       -0.759464   -0.456143    0.000000
 ---------------------------------------------------------------------

 SCF Done:  E(RB2PLYPD3) =  -76.3352233753     A.U. after   10 cycles
 E2(B2PLYPD3) =    -0.8983942057D-01 E(B2PLYPD3) =    -0.76425062795919D+02

 The electronic state is 1-A'.
 Alpha  occ. eigenvalues --  -19.73034  -1.15817  -0.61605  -0.47372  -0.39982
 Alpha virt. eigenvalues --    0.04596   0.10233   0.27475   0.30404   0.31140
 Alpha virt. eigenvalues --    0.35959   0.44087   0.50439   0.56195   0.62445
 Alpha virt. eigenvalues --    0.65514   0.81214   0.93877   0.95866   1.04315

 Mulliken charges:
               1
     1  O   -0.441500
     2  H    0.222580
     3  H    0.218920
 Sum of Mulliken charges =   0.00000

 Dipole moment (field-independent basis, Debye):
    X=             -0.0040    Y=             -1.9464    Z=              0.0000  Tot=              1.9464
 Quadrupole moment (field-independent basis, Debye-Ang):
   XX=             -4.3135   YY=             -6.3459   ZZ=             -7.5856
   XY=             -0.0218   XZ=              0.0000   YZ=              0.0000

 1\1\GINC-NODE19\SP\RB2PLYPD3-FC\def2QZVP\H2O1\BOITTIER\26-Aug-2020\0\\
 #p B2PLYPD3/Def2QZVP\\h2o\\0,1\O,0,-5.326605,-0.762835,0.92327\H,0,-4.
 368927,-0.737868,0.888115\H,0,-5.609308,0.127268,0.745606\\Version=ES6
 4L-G09RevD.01\State=1-A'\HF=-76.3352234\MP2=-76.4250628\RMSD=4.072e-09
 \PG=CS [SG(H2O1)]\\@

 FIREWORKS ENDED

 Normal termination of Gaussian 09 at Wed Aug 26 11:49:27 2020.
