 Gaussian 09, Revision D.01,
 Gaussian 09:  ES64L-G09RevD.01 24-Apr-2013

 --------------------
 #p B2PLYPD3/Def2QZVP
 --------------------

 ---
 h2o
 ---
 Symbolic Z-matrix:
 Charge =  0 Multiplicity = 1

                         Standard orientation:
 ---------------------------------------------------------------------
 Center     Atomic      Atomic             Coordinates (Angstroms)
 Number     Number       Type             X           Y           Z
 ---------------------------------------------------------------------
      1          8           0        0.000000    0.119797    0.000000
      2          1           0        0.736836   -0.499505    0.000000
      3          1           0       -0.736836   -0.458871    0.000000
 ---------------------------------------------------------------------

 SCF Done:  E(RB2PLYPD3) =  -76.3345630273     A.U. after   10 cycles
 E2(B2PLYPD3) =    -0.8979006223D-01 E(B2PLYPD3) =    -0.76424353089572D+02

 The electronic state is 1-A'.
 Alpha  occ. eigenvalues --  -19.73096  -1.16338  -0.61146  -0.48126  -0.40113
 Alpha virt. eigenvalues --    0.04568   0.10346   0.27496   0.30380   0.30876
 Alpha virt. eigenvalues --    0.36763   0.44268   0.49862   0.56796   0.61436
 Alpha virt. eigenvalues --    0.65454   0.81481   0.94365   0.95713   1.03907

 Mulliken charges:
               1
     1  O   -0.429570
     2  H    0.220751
     3  H    0.208819
 Sum of Mulliken charges =   0.00000

 Dipole moment (field-independent basis, Debye):
    X=             -0.0139    Y=             -1.9981    Z=              0.0000  Tot=              1.9982
 Quadrupole moment (field-independent basis, Debye-Ang):
   XX=             -4.4782   YY=             -6.2358   ZZ=             -7.5677
   XY=             -0.0635   XZ=              0.0000   YZ=              0.0000

 1\1\GINC-NODE35\SP\RB2PLYPD3-FC\def2QZVP\H2O1\BOITTIER\26-Aug-2020\0\\
 #p B2PLYPD3/Def2QZVP\\h2o\\0,1\O,0,-5.326605,-0.76567,0.923332\H,0,-4.
 368927,-0.671003,0.904544\H,0,-5.609308,0.105764,0.727204\\Version=ES6
 4L-G09RevD.01\State=1-A'\HF=-76.334563\MP2=-76.4243531\RMSD=4.797e-09\
 PG=CS [SG(H2O1)]\\@

 THERE ARE PEOPLE SO ADDICTED TO EXAGERATING THEY

 Normal termination of Gaussian 09 at Wed Aug 26 11:03:33 2020.
