 Gaussian 09, Revision D.01,
 Gaussian 09:  ES64L-G09RevD.01 24-Apr-2013

 --------------------
 #p B2PLYPD3/Def2QZVP
 --------------------

 ---
 h2o
 ---
 Symbolic Z-matrix:
 Charge =  0 Multiplicity = 1

                         Standard orientation:
 ---------------------------------------------------------------------
 Center     Atomic      Atomic             Coordinates (Angstroms)
 Number     Number       Type             X           Y           Z
 ---------------------------------------------------------------------
      1          8           0        0.000000    0.120723    0.000000
      2          1           0        0.725526   -0.516504    0.000000
      3          1           0       -0.725526   -0.449282    0.000000
 ---------------------------------------------------------------------

 SCF Done:  E(RB2PLYPD3) =  -76.3334805358     A.U. after   10 cycles
 E2(B2PLYPD3) =    -0.8965156937D-01 E(B2PLYPD3) =    -0.76423132105151D+02

 The electronic state is 1-A'.
 Alpha  occ. eigenvalues --  -19.73046  -1.16739  -0.61153  -0.48439  -0.40193
 Alpha virt. eigenvalues --    0.04583   0.10423   0.27469   0.30362   0.30827
 Alpha virt. eigenvalues --    0.37197   0.44482   0.49732   0.57040   0.61137
 Alpha virt. eigenvalues --    0.65314   0.81611   0.94566   0.95610   1.03998

 Mulliken charges:
               1
     1  O   -0.421635
     2  H    0.221144
     3  H    0.200491
 Sum of Mulliken charges =   0.00000

 Dipole moment (field-independent basis, Debye):
    X=             -0.0238    Y=             -2.0128    Z=              0.0000  Tot=              2.0130
 Quadrupole moment (field-independent basis, Debye-Ang):
   XX=             -4.5436   YY=             -6.1931   ZZ=             -7.5525
   XY=             -0.1026   XZ=              0.0000   YZ=              0.0000

 1\1\GINC-NODE31\SP\RB2PLYPD3-FC\def2QZVP\H2O1\BOITTIER\26-Aug-2020\0\\
 #p B2PLYPD3/Def2QZVP\\h2o\\0,1\O,0,-5.326605,-0.766395,0.922892\H,0,-4
 .368927,-0.643164,0.912242\H,0,-5.609308,0.089528,0.725993\\Version=ES
 64L-G09RevD.01\State=1-A'\HF=-76.3334805\MP2=-76.4231321\RMSD=5.465e-0
 9\PG=CS [SG(H2O1)]\\@

 ... SUBJECTS WHICH DISCLOSE THEIR FULL POWER, MEANING AND BEAUTY AS SOON

 Normal termination of Gaussian 09 at Wed Aug 26 08:43:23 2020.
