 Gaussian 09, Revision D.01,
 Gaussian 09:  ES64L-G09RevD.01 24-Apr-2013

 --------------------
 #p B2PLYPD3/Def2QZVP
 --------------------

 ---
 h2o
 ---
 Symbolic Z-matrix:
 Charge =  0 Multiplicity = 1

                         Standard orientation:
 ---------------------------------------------------------------------
 Center     Atomic      Atomic             Coordinates (Angstroms)
 Number     Number       Type             X           Y           Z
 ---------------------------------------------------------------------
      1          8           0        0.000000    0.115000    0.000000
      2          1           0        0.741773   -0.499887    0.000000
      3          1           0       -0.741773   -0.420114    0.000000
 ---------------------------------------------------------------------

 SCF Done:  E(RB2PLYPD3) =  -76.3336540618     A.U. after   10 cycles
 E2(B2PLYPD3) =    -0.8936094271D-01 E(B2PLYPD3) =    -0.76423015004465D+02

 The electronic state is 1-A'.
 Alpha  occ. eigenvalues --  -19.72803  -1.16697  -0.62171  -0.47742  -0.40144
 Alpha virt. eigenvalues --    0.04719   0.10395   0.27371   0.30360   0.31234
 Alpha virt. eigenvalues --    0.36821   0.44623   0.50413   0.56492   0.62319
 Alpha virt. eigenvalues --    0.65114   0.81625   0.94196   0.95581   1.04833

 Mulliken charges:
               1
     1  O   -0.424524
     2  H    0.224556
     3  H    0.199967
 Sum of Mulliken charges =   0.00000

 Dipole moment (field-independent basis, Debye):
    X=             -0.0250    Y=             -1.9495    Z=              0.0000  Tot=              1.9497
 Quadrupole moment (field-independent basis, Debye-Ang):
   XX=             -4.3886   YY=             -6.3030   ZZ=             -7.5474
   XY=             -0.1291   XZ=              0.0000   YZ=              0.0000

 1\1\GINC-NODE21\SP\RB2PLYPD3-FC\def2QZVP\H2O1\BOITTIER\26-Aug-2020\0\\
 #p B2PLYPD3/Def2QZVP\\h2o\\0,1\O,0,-5.326605,-0.760647,0.92903\H,0,-4.
 368927,-0.727572,0.828673\H,0,-5.609308,0.081969,0.713041\\Version=ES6
 4L-G09RevD.01\State=1-A'\HF=-76.3336541\MP2=-76.423015\RMSD=5.500e-09\
 PG=CS [SG(H2O1)]\\@

 PICNIC:  A SNACK IN THE GRASS.

 Normal termination of Gaussian 09 at Wed Aug 26 08:38:19 2020.
