 Gaussian 09, Revision D.01,
 Gaussian 09:  ES64L-G09RevD.01 24-Apr-2013

 --------------------
 #p B2PLYPD3/Def2QZVP
 --------------------

 ---
 h2o
 ---
 Symbolic Z-matrix:
 Charge =  0 Multiplicity = 1

                         Standard orientation:
 ---------------------------------------------------------------------
 Center     Atomic      Atomic             Coordinates (Angstroms)
 Number     Number       Type             X           Y           Z
 ---------------------------------------------------------------------
      1          8           0        0.000000    0.115055    0.000000
      2          1           0        0.748498   -0.486214    0.000000
      3          1           0       -0.748498   -0.434227    0.000000
 ---------------------------------------------------------------------

 SCF Done:  E(RB2PLYPD3) =  -76.3346680479     A.U. after   10 cycles
 E2(B2PLYPD3) =    -0.8951573670D-01 E(B2PLYPD3) =    -0.76424183784613D+02

 The electronic state is 1-A'.
 Alpha  occ. eigenvalues --  -19.72880  -1.16377  -0.62005  -0.47597  -0.40086
 Alpha virt. eigenvalues --    0.04688   0.10338   0.27408   0.30375   0.31243
 Alpha virt. eigenvalues --    0.36512   0.44422   0.50443   0.56382   0.62394
 Alpha virt. eigenvalues --    0.65251   0.81492   0.94135   0.95659   1.04794

 Mulliken charges:
               1
     1  O   -0.431051
     2  H    0.223248
     3  H    0.207803
 Sum of Mulliken charges =   0.00000

 Dipole moment (field-independent basis, Debye):
    X=             -0.0160    Y=             -1.9465    Z=              0.0000  Tot=              1.9466
 Quadrupole moment (field-independent basis, Debye-Ang):
   XX=             -4.3576   YY=             -6.3227   ZZ=             -7.5605
   XY=             -0.0850   XZ=              0.0000   YZ=              0.0000

 1\1\GINC-NODE40\SP\RB2PLYPD3-FC\def2QZVP\H2O1\BOITTIER\26-Aug-2020\0\\
 #p B2PLYPD3/Def2QZVP\\h2o\\0,1\O,0,-5.326605,-0.761889,0.925238\H,0,-4
 .368927,-0.727601,0.866495\H,0,-5.609308,0.101869,0.735604\\Version=ES
 64L-G09RevD.01\State=1-A'\HF=-76.334668\MP2=-76.4241838\RMSD=4.786e-09
 \PG=CS [SG(H2O1)]\\@

 THERE IS SOMETHING FASCINATING ABOUT SCIENCE.

 Normal termination of Gaussian 09 at Wed Aug 26 12:39:37 2020.
