 Gaussian 09, Revision D.01,
 Gaussian 09:  ES64L-G09RevD.01 24-Apr-2013

 --------------------
 #p B2PLYPD3/Def2QZVP
 --------------------

 ---
 h2o
 ---
 Symbolic Z-matrix:
 Charge =  0 Multiplicity = 1

                         Standard orientation:
 ---------------------------------------------------------------------
 Center     Atomic      Atomic             Coordinates (Angstroms)
 Number     Number       Type             X           Y           Z
 ---------------------------------------------------------------------
      1          8           0        0.000000    0.118452    0.000000
      2          1           0        0.752564   -0.477070    0.000000
      3          1           0       -0.752564   -0.470546    0.000000
 ---------------------------------------------------------------------

 SCF Done:  E(RB2PLYPD3) =  -76.3350875878     A.U. after   10 cycles
 E2(B2PLYPD3) =    -0.8999223144D-01 E(B2PLYPD3) =    -0.76425079819292D+02

 The electronic state is 1-A'.
 Alpha  occ. eigenvalues --  -19.73157  -1.15805  -0.61127  -0.47678  -0.40001
 Alpha virt. eigenvalues --    0.04528   0.10237   0.27525   0.30406   0.30911
 Alpha virt. eigenvalues --    0.36125   0.44008   0.50078   0.56433   0.61882
 Alpha virt. eigenvalues --    0.65629   0.81239   0.93982   0.95891   1.03725

 Mulliken charges:
               1
     1  O   -0.440042
     2  H    0.220922
     3  H    0.219120
 Sum of Mulliken charges =   0.00000

 Dipole moment (field-independent basis, Debye):
    X=             -0.0021    Y=             -1.9766    Z=              0.0000  Tot=              1.9766
 Quadrupole moment (field-independent basis, Debye-Ang):
   XX=             -4.3849   YY=             -6.2944   ZZ=             -7.5891
   XY=             -0.0105   XZ=              0.0000   YZ=              0.0000

 1\1\GINC-NODE12\SP\RB2PLYPD3-FC\def2QZVP\H2O1\BOITTIER\26-Aug-2020\0\\
 #p B2PLYPD3/Def2QZVP\\h2o\\0,1\O,0,-5.326605,-0.765273,0.920685\H,0,-4
 .368927,-0.703272,0.92343\H,0,-5.609308,0.131691,0.75096\\Version=ES64
 L-G09RevD.01\State=1-A'\HF=-76.3350876\MP2=-76.4250798\RMSD=4.190e-09\
 PG=CS [SG(H2O1)]\\@

 WHERE THERE IS MUCH DESIRE TO LEARN, THERE OF NECESSITY WILL BE

 Normal termination of Gaussian 09 at Wed Aug 26 10:20:28 2020.
