 Gaussian 09, Revision D.01,
 Gaussian 09:  ES64L-G09RevD.01 24-Apr-2013

 --------------------
 #p B2PLYPD3/Def2QZVP
 --------------------

 ---
 h2o
 ---
 Symbolic Z-matrix:
 Charge =  0 Multiplicity = 1

                         Standard orientation:
 ---------------------------------------------------------------------
 Center     Atomic      Atomic             Coordinates (Angstroms)
 Number     Number       Type             X           Y           Z
 ---------------------------------------------------------------------
      1          8           0        0.000000    0.126846    0.000000
      2          1           0        0.742475   -0.494330    0.000000
      3          1           0       -0.742475   -0.520442    0.000000
 ---------------------------------------------------------------------

 SCF Done:  E(RB2PLYPD3) =  -76.3329915994     A.U. after   10 cycles
 E2(B2PLYPD3) =    -0.9079049764D-01 E(B2PLYPD3) =    -0.76423782097058D+02

 The electronic state is 1-A'.
 Alpha  occ. eigenvalues --  -19.73642  -1.15262  -0.59420  -0.48305  -0.39960
 Alpha virt. eigenvalues --    0.04216   0.10128   0.27737   0.30078   0.30432
 Alpha virt. eigenvalues --    0.35935   0.43520   0.49207   0.56899   0.60426
 Alpha virt. eigenvalues --    0.66171   0.80970   0.94001   0.96242   1.01603

 Mulliken charges:
               1
     1  O   -0.443913
     2  H    0.218647
     3  H    0.225266
 Sum of Mulliken charges =   0.00000

 Dipole moment (field-independent basis, Debye):
    X=              0.0097    Y=             -2.0591    Z=              0.0000  Tot=              2.0591
 Quadrupole moment (field-independent basis, Debye-Ang):
   XX=             -4.5515   YY=             -6.1635   ZZ=             -7.6236
   XY=              0.0396   XZ=              0.0000   YZ=              0.0000

 1\1\GINC-NODE15\SP\RB2PLYPD3-FC\def2QZVP\H2O1\BOITTIER\26-Aug-2020\0\\
 #p B2PLYPD3/Def2QZVP\\h2o\\0,1\O,0,-5.326605,-0.76755,0.933243\H,0,-4.
 368927,-0.663505,0.837554\H,0,-5.609308,0.12835,0.637114\\Version=ES64
 L-G09RevD.01\State=1-A'\HF=-76.3329916\MP2=-76.4237821\RMSD=4.593e-09\
 PG=CS [SG(H2O1)]\\@

 CHARLIE BROWN -- WHICH DO YOU THINK LASTS LONGER IN LIFE, THE GOOD THINGS

 Normal termination of Gaussian 09 at Wed Aug 26 08:49:50 2020.
