 Gaussian 09, Revision D.01,
 Gaussian 09:  ES64L-G09RevD.01 24-Apr-2013

 --------------------
 #p B2PLYPD3/Def2QZVP
 --------------------

 ---
 h2o
 ---
 Symbolic Z-matrix:
 Charge =  0 Multiplicity = 1

                         Standard orientation:
 ---------------------------------------------------------------------
 Center     Atomic      Atomic             Coordinates (Angstroms)
 Number     Number       Type             X           Y           Z
 ---------------------------------------------------------------------
      1          8           0        0.000000    0.117499    0.000000
      2          1           0        0.744807   -0.488508    0.000000
      3          1           0       -0.744807   -0.451482    0.000000
 ---------------------------------------------------------------------

 SCF Done:  E(RB2PLYPD3) =  -76.3348892976     A.U. after   10 cycles
 E2(B2PLYPD3) =    -0.8970363930D-01 E(B2PLYPD3) =    -0.76424592936861D+02

 The electronic state is 1-A'.
 Alpha  occ. eigenvalues --  -19.73014  -1.16255  -0.61517  -0.47817  -0.40081
 Alpha virt. eigenvalues --    0.04616   0.10324   0.27464   0.30383   0.31050
 Alpha virt. eigenvalues --    0.36547   0.44283   0.50142   0.56554   0.61926
 Alpha virt. eigenvalues --    0.65400   0.81452   0.94204   0.95713   1.04288

 Mulliken charges:
               1
     1  O   -0.432236
     2  H    0.221522
     3  H    0.210713
 Sum of Mulliken charges =   0.00000

 Dipole moment (field-independent basis, Debye):
    X=             -0.0120    Y=             -1.9720    Z=              0.0000  Tot=              1.9721
 Quadrupole moment (field-independent basis, Debye-Ang):
   XX=             -4.4087   YY=             -6.2847   ZZ=             -7.5684
   XY=             -0.0594   XZ=              0.0000   YZ=              0.0000

 1\1\GINC-NODE30\SP\RB2PLYPD3-FC\def2QZVP\H2O1\BOITTIER\26-Aug-2020\0\\
 #p B2PLYPD3/Def2QZVP\\h2o\\0,1\O,0,-5.326605,-0.764667,0.920385\H,0,-4
 .368927,-0.695164,0.921937\H,0,-5.609308,0.113874,0.756921\\Version=ES
 64L-G09RevD.01\State=1-A'\HF=-76.3348893\MP2=-76.4245929\RMSD=4.580e-0
 9\PG=CS [SG(H2O1)]\\@

 MY GROUP MEETINGS AREN'T VERY STRUCTURED.

 Normal termination of Gaussian 09 at Wed Aug 26 12:45:22 2020.
