 Gaussian 09, Revision D.01,
 Gaussian 09:  ES64L-G09RevD.01 24-Apr-2013

 --------------------
 #p B2PLYPD3/Def2QZVP
 --------------------

 ---
 h2o
 ---
 Symbolic Z-matrix:
 Charge =  0 Multiplicity = 1

                         Standard orientation:
 ---------------------------------------------------------------------
 Center     Atomic      Atomic             Coordinates (Angstroms)
 Number     Number       Type             X           Y           Z
 ---------------------------------------------------------------------
      1          8           0        0.000000    0.124812    0.000000
      2          1           0        0.716472   -0.531779    0.000000
      3          1           0       -0.716472   -0.466716    0.000000
 ---------------------------------------------------------------------

 SCF Done:  E(RB2PLYPD3) =  -76.3327856240     A.U. after   10 cycles
 E2(B2PLYPD3) =    -0.8995801972D-01 E(B2PLYPD3) =    -0.76422743643714D+02

 The electronic state is 1-A'.
 Alpha  occ. eigenvalues --  -19.73249  -1.16630  -0.60344  -0.48857  -0.40200
 Alpha virt. eigenvalues --    0.04452   0.10413   0.27559   0.30369   0.30492
 Alpha virt. eigenvalues --    0.37237   0.44311   0.49360   0.57361   0.60380
 Alpha virt. eigenvalues --    0.65492   0.81501   0.94780   0.95701   1.03250

 Mulliken charges:
               1
     1  O   -0.421880
     2  H    0.220730
     3  H    0.201149
 Sum of Mulliken charges =   0.00000

 Dipole moment (field-independent basis, Debye):
    X=             -0.0248    Y=             -2.0553    Z=              0.0000  Tot=              2.0555
 Quadrupole moment (field-independent basis, Debye-Ang):
   XX=             -4.6431   YY=             -6.1199   ZZ=             -7.5630
   XY=             -0.0956   XZ=              0.0000   YZ=              0.0000

 1\1\GINC-NODE16\SP\RB2PLYPD3-FC\def2QZVP\H2O1\BOITTIER\26-Aug-2020\0\\
 #p B2PLYPD3/Def2QZVP\\h2o\\0,1\O,0,-5.326605,-0.768281,0.926661\H,0,-4
 .368927,-0.606388,0.893687\H,0,-5.609308,0.08293,0.684265\\Version=ES6
 4L-G09RevD.01\State=1-A'\HF=-76.3327856\MP2=-76.4227436\RMSD=5.585e-09
 \PG=CS [SG(H2O1)]\\@

 THOSE WHO ASPIRE NOT TO GUESS AND DIVINE,

 Normal termination of Gaussian 09 at Wed Aug 26 08:41:44 2020.
