 Gaussian 09, Revision D.01,
 Gaussian 09:  ES64L-G09RevD.01 24-Apr-2013

 --------------------
 #p B2PLYPD3/Def2QZVP
 --------------------

 ---
 h2o
 ---
 Symbolic Z-matrix:
 Charge =  0 Multiplicity = 1

                         Standard orientation:
 ---------------------------------------------------------------------
 Center     Atomic      Atomic             Coordinates (Angstroms)
 Number     Number       Type             X           Y           Z
 ---------------------------------------------------------------------
      1          8           0        0.000000    0.119143    0.000000
      2          1           0        0.744577   -0.488463    0.000000
      3          1           0       -0.744577   -0.464677    0.000000
 ---------------------------------------------------------------------

 SCF Done:  E(RB2PLYPD3) =  -76.3349462907     A.U. after   10 cycles
 E2(B2PLYPD3) =    -0.8988813299D-01 E(B2PLYPD3) =    -0.76424834423698D+02

 The electronic state is 1-A'.
 Alpha  occ. eigenvalues --  -19.73127  -1.16072  -0.61139  -0.47907  -0.40058
 Alpha virt. eigenvalues --    0.04551   0.10293   0.27512   0.30393   0.30898
 Alpha virt. eigenvalues --    0.36453   0.44136   0.49963   0.56620   0.61652
 Alpha virt. eigenvalues --    0.65542   0.81371   0.94188   0.95796   1.03826

 Mulliken charges:
               1
     1  O   -0.434781
     2  H    0.220778
     3  H    0.214002
 Sum of Mulliken charges =   0.00000

 Dipole moment (field-independent basis, Debye):
    X=             -0.0079    Y=             -1.9877    Z=              0.0000  Tot=              1.9877
 Quadrupole moment (field-independent basis, Debye-Ang):
   XX=             -4.4326   YY=             -6.2648   ZZ=             -7.5782
   XY=             -0.0378   XZ=              0.0000   YZ=              0.0000

 1\1\GINC-NODE10\SP\RB2PLYPD3-FC\def2QZVP\H2O1\BOITTIER\26-Aug-2020\0\\
 #p B2PLYPD3/Def2QZVP\\h2o\\0,1\O,0,-5.326605,-0.764972,0.924409\H,0,-4
 .368927,-0.691665,0.891875\H,0,-5.609308,0.115255,0.723113\\Version=ES
 64L-G09RevD.01\State=1-A'\HF=-76.3349463\MP2=-76.4248344\RMSD=4.435e-0
 9\PG=CS [SG(H2O1)]\\@

 Fatherhood is pretending the present you love most is soap-on-a-rope.

 Normal termination of Gaussian 09 at Wed Aug 26 12:02:45 2020.
