 Gaussian 09, Revision D.01,
 Gaussian 09:  ES64L-G09RevD.01 24-Apr-2013

 --------------------
 #p B2PLYPD3/Def2QZVP
 --------------------

 ---
 h2o
 ---
 Symbolic Z-matrix:
 Charge =  0 Multiplicity = 1

                         Standard orientation:
 ---------------------------------------------------------------------
 Center     Atomic      Atomic             Coordinates (Angstroms)
 Number     Number       Type             X           Y           Z
 ---------------------------------------------------------------------
      1          8           0        0.000000    0.118430    0.000000
      2          1           0        0.773690   -0.446634    0.000000
      3          1           0       -0.773690   -0.500809    0.000000
 ---------------------------------------------------------------------

 SCF Done:  E(RB2PLYPD3) =  -76.3336643306     A.U. after   10 cycles
 E2(B2PLYPD3) =    -0.9050013748D-01 E(B2PLYPD3) =    -0.76424164468103D+02

 The electronic state is 1-A'.
 Alpha  occ. eigenvalues --  -19.73352  -1.14929  -0.60659  -0.47148  -0.39822
 Alpha virt. eigenvalues --    0.04353   0.10048   0.27599   0.30452   0.30645
 Alpha virt. eigenvalues --    0.35168   0.43565   0.50214   0.55971   0.62217
 Alpha virt. eigenvalues --    0.65999   0.80702   0.93206   0.96268   1.02699

 Mulliken charges:
               1
     1  O   -0.455534
     2  H    0.221058
     3  H    0.234477
 Sum of Mulliken charges =   0.00000

 Dipole moment (field-independent basis, Debye):
    X=              0.0165    Y=             -1.9636    Z=              0.0000  Tot=              1.9637
 Quadrupole moment (field-independent basis, Debye-Ang):
   XX=             -4.2815   YY=             -6.3475   ZZ=             -7.6301
   XY=              0.0905   XZ=              0.0000   YZ=              0.0000

 1\1\GINC-NODE11\SP\RB2PLYPD3-FC\def2QZVP\H2O1\BOITTIER\26-Aug-2020\0\\
 #p B2PLYPD3/Def2QZVP\\h2o\\0,1\O,0,-5.326605,-0.765384,0.919973\H,0,-4
 .368927,-0.740029,0.930182\H,0,-5.609308,0.170223,0.756349\\Version=ES
 64L-G09RevD.01\State=1-A'\HF=-76.3336643\MP2=-76.4241645\RMSD=4.437e-0
 9\PG=CS [SG(H2O1)]\\@

 WE ARE REACHING THE STAGE WHERE THE PROBLEMS WE MUST SOLVE ARE

 Normal termination of Gaussian 09 at Wed Aug 26 11:02:27 2020.
