 Gaussian 09, Revision D.01,
 Gaussian 09:  ES64L-G09RevD.01 24-Apr-2013

 --------------------
 #p B2PLYPD3/Def2QZVP
 --------------------

 ---
 h2o
 ---
 Symbolic Z-matrix:
 Charge =  0 Multiplicity = 1

                         Standard orientation:
 ---------------------------------------------------------------------
 Center     Atomic      Atomic             Coordinates (Angstroms)
 Number     Number       Type             X           Y           Z
 ---------------------------------------------------------------------
      1          8           0        0.000000    0.115930    0.000000
      2          1           0        0.761631   -0.465451    0.000000
      3          1           0       -0.761631   -0.461991    0.000000
 ---------------------------------------------------------------------

 SCF Done:  E(RB2PLYPD3) =  -76.3351954994     A.U. after   10 cycles
 E2(B2PLYPD3) =    -0.8991861623D-01 E(B2PLYPD3) =    -0.76425114115607D+02

 The electronic state is 1-A'.
 Alpha  occ. eigenvalues --  -19.73072  -1.15696  -0.61498  -0.47333  -0.39960
 Alpha virt. eigenvalues --    0.04570   0.10210   0.27491   0.30411   0.31099
 Alpha virt. eigenvalues --    0.35843   0.44015   0.50424   0.56160   0.62435
 Alpha virt. eigenvalues --    0.65575   0.81149   0.93806   0.95917   1.04152

 Mulliken charges:
               1
     1  O   -0.443613
     2  H    0.222280
     3  H    0.221333
 Sum of Mulliken charges =   0.00000

 Dipole moment (field-independent basis, Debye):
    X=             -0.0010    Y=             -1.9475    Z=              0.0000  Tot=              1.9475
 Quadrupole moment (field-independent basis, Debye-Ang):
   XX=             -4.3063   YY=             -6.3487   ZZ=             -7.5913
   XY=             -0.0057   XZ=              0.0000   YZ=              0.0000

 1\1\GINC-NODE26\SP\RB2PLYPD3-FC\def2QZVP\H2O1\BOITTIER\26-Aug-2020\0\\
 #p B2PLYPD3/Def2QZVP\\h2o\\0,1\O,0,-5.326605,-0.76374,0.919462\H,0,-4.
 368927,-0.733426,0.923915\H,0,-5.609308,0.137314,0.770281\\Version=ES6
 4L-G09RevD.01\State=1-A'\HF=-76.3351955\MP2=-76.4251141\RMSD=4.005e-09
 \PG=CS [SG(H2O1)]\\@

 IF YOU WANT TO LEARN FROM THE THEORETICAL PHYSICISTS ABOUT THE

 Normal termination of Gaussian 09 at Wed Aug 26 10:13:16 2020.
