 Gaussian 09, Revision D.01,
 Gaussian 09:  ES64L-G09RevD.01 24-Apr-2013

 --------------------
 #p B2PLYPD3/Def2QZVP
 --------------------

 ---
 h2o
 ---
 Symbolic Z-matrix:
 Charge =  0 Multiplicity = 1

                         Standard orientation:
 ---------------------------------------------------------------------
 Center     Atomic      Atomic             Coordinates (Angstroms)
 Number     Number       Type             X           Y           Z
 ---------------------------------------------------------------------
      1          8           0        0.000000    0.115150    0.000000
      2          1           0        0.769654   -0.454908    0.000000
      3          1           0       -0.769654   -0.466290    0.000000
 ---------------------------------------------------------------------

 SCF Done:  E(RB2PLYPD3) =  -76.3349985422     A.U. after   10 cycles
 E2(B2PLYPD3) =    -0.9002504497D-01 E(B2PLYPD3) =    -0.76425023587208D+02

 The electronic state is 1-A'.
 Alpha  occ. eigenvalues --  -19.73097  -1.15438  -0.61483  -0.47098  -0.39902
 Alpha virt. eigenvalues --    0.04540   0.10155   0.27501   0.30424   0.31111
 Alpha virt. eigenvalues --    0.35504   0.43896   0.50577   0.55967   0.62688
 Alpha virt. eigenvalues --    0.65656   0.80972   0.93596   0.96027   1.04051

 Mulliken charges:
               1
     1  O   -0.448940
     2  H    0.222959
     3  H    0.225981
 Sum of Mulliken charges =   0.00000

 Dipole moment (field-independent basis, Debye):
    X=              0.0033    Y=             -1.9353    Z=              0.0000  Tot=              1.9353
 Quadrupole moment (field-independent basis, Debye-Ang):
   XX=             -4.2564   YY=             -6.3791   ZZ=             -7.6025
   XY=              0.0192   XZ=              0.0000   YZ=              0.0000

 1\1\GINC-NODE32\SP\RB2PLYPD3-FC\def2QZVP\H2O1\BOITTIER\26-Aug-2020\0\\
 #p B2PLYPD3/Def2QZVP\\h2o\\0,1\O,0,-5.326605,-0.763286,0.918904\H,0,-4
 .368927,-0.751449,0.925715\H,0,-5.609308,0.14807,0.777661\\Version=ES6
 4L-G09RevD.01\State=1-A'\HF=-76.3349985\MP2=-76.4250236\RMSD=3.915e-09
 \PG=CS [SG(H2O1)]\\@

 THE REASON MAN'S BEST FRIEND IS A DOG IS BECAUSE

 Normal termination of Gaussian 09 at Wed Aug 26 10:46:08 2020.
