 Gaussian 09, Revision D.01,
 Gaussian 09:  ES64L-G09RevD.01 24-Apr-2013

 --------------------
 #p B2PLYPD3/Def2QZVP
 --------------------

 ---
 h2o
 ---
 Symbolic Z-matrix:
 Charge =  0 Multiplicity = 1

                         Standard orientation:
 ---------------------------------------------------------------------
 Center     Atomic      Atomic             Coordinates (Angstroms)
 Number     Number       Type             X           Y           Z
 ---------------------------------------------------------------------
      1          8           0        0.000000    0.113483    0.000000
      2          1           0        0.762608   -0.466337    0.000000
      3          1           0       -0.762608   -0.441529    0.000000
 ---------------------------------------------------------------------

 SCF Done:  E(RB2PLYPD3) =  -76.3351622756     A.U. after   10 cycles
 E2(B2PLYPD3) =    -0.8967322259D-01 E(B2PLYPD3) =    -0.76424835498188D+02

 The electronic state is 1-A'.
 Alpha  occ. eigenvalues --  -19.72915  -1.15922  -0.62033  -0.47182  -0.39986
 Alpha virt. eigenvalues --    0.04662   0.10248   0.27429   0.30397   0.31333
 Alpha virt. eigenvalues --    0.35918   0.44202   0.50729   0.56050   0.62867
 Alpha virt. eigenvalues --    0.65383   0.81231   0.93866   0.95821   1.04858

 Mulliken charges:
               1
     1  O   -0.440820
     2  H    0.223910
     3  H    0.216910
 Sum of Mulliken charges =   0.00000

 Dipole moment (field-independent basis, Debye):
    X=             -0.0072    Y=             -1.9234    Z=              0.0000  Tot=              1.9234
 Quadrupole moment (field-independent basis, Debye-Ang):
   XX=             -4.2683   YY=             -6.3802   ZZ=             -7.5787
   XY=             -0.0418   XZ=              0.0000   YZ=              0.0000

 1\1\GINC-NODE30\SP\RB2PLYPD3-FC\def2QZVP\H2O1\BOITTIER\26-Aug-2020\0\\
 #p B2PLYPD3/Def2QZVP\\h2o\\0,1\O,0,-5.326605,-0.76239,0.916815\H,0,-4.
 368927,-0.747482,0.936658\H,0,-5.609308,0.129771,0.79961\\Version=ES64
 L-G09RevD.01\State=1-A'\HF=-76.3351623\MP2=-76.4248355\RMSD=4.123e-09\
 PG=CS [SG(H2O1)]\\@

 IF THE FACTS DO NOT CONFORM TO THE THEORY, THEY MUST BE DISPOSED OF.

 Normal termination of Gaussian 09 at Wed Aug 26 12:14:38 2020.
