 Gaussian 09, Revision D.01,
 Gaussian 09:  ES64L-G09RevD.01 24-Apr-2013

 --------------------
 #p B2PLYPD3/Def2QZVP
 --------------------

 ---
 h2o
 ---
 Symbolic Z-matrix:
 Charge =  0 Multiplicity = 1

                         Standard orientation:
 ---------------------------------------------------------------------
 Center     Atomic      Atomic             Coordinates (Angstroms)
 Number     Number       Type             X           Y           Z
 ---------------------------------------------------------------------
      1          8           0        0.000000    0.115443    0.000000
      2          1           0        0.751301   -0.480309    0.000000
      3          1           0       -0.751301   -0.443239    0.000000
 ---------------------------------------------------------------------

 SCF Done:  E(RB2PLYPD3) =  -76.3350009381     A.U. after   10 cycles
 E2(B2PLYPD3) =    -0.8962198383D-01 E(B2PLYPD3) =    -0.76424622921955D+02

 The electronic state is 1-A'.
 Alpha  occ. eigenvalues --  -19.72936  -1.16204  -0.61850  -0.47554  -0.40056
 Alpha virt. eigenvalues --    0.04659   0.10308   0.27433   0.30384   0.31207
 Alpha virt. eigenvalues --    0.36360   0.44309   0.50414   0.56347   0.62366
 Alpha virt. eigenvalues --    0.65340   0.81415   0.94086   0.95715   1.04655

 Mulliken charges:
               1
     1  O   -0.434263
     2  H    0.222525
     3  H    0.211737
 Sum of Mulliken charges =   0.00000

 Dipole moment (field-independent basis, Debye):
    X=             -0.0114    Y=             -1.9488    Z=              0.0000  Tot=              1.9488
 Quadrupole moment (field-independent basis, Debye-Ang):
   XX=             -4.3495   YY=             -6.3264   ZZ=             -7.5683
   XY=             -0.0607   XZ=              0.0000   YZ=              0.0000

 1\1\GINC-NODE19\SP\RB2PLYPD3-FC\def2QZVP\H2O1\BOITTIER\26-Aug-2020\0\\
 #p B2PLYPD3/Def2QZVP\\h2o\\0,1\O,0,-5.326605,-0.762898,0.922208\H,0,-4
 .368927,-0.723159,0.896769\H,0,-5.609308,0.113567,0.753486\\Version=ES
 64L-G09RevD.01\State=1-A'\HF=-76.3350009\MP2=-76.4246229\RMSD=4.466e-0
 9\PG=CS [SG(H2O1)]\\@

 SI MONUMENTUM REQUIRIS, CIRCUMSPICE

 Normal termination of Gaussian 09 at Wed Aug 26 11:03:25 2020.
