 Gaussian 09, Revision D.01,
 Gaussian 09:  ES64L-G09RevD.01 24-Apr-2013

 --------------------
 #p B2PLYPD3/Def2QZVP
 --------------------

 ---
 h2o
 ---
 Symbolic Z-matrix:
 Charge =  0 Multiplicity = 1

                         Standard orientation:
 ---------------------------------------------------------------------
 Center     Atomic      Atomic             Coordinates (Angstroms)
 Number     Number       Type             X           Y           Z
 ---------------------------------------------------------------------
      1          8           0        0.000000    0.116841    0.000000
      2          1           0        0.775074   -0.446069    0.000000
      3          1           0       -0.775074   -0.488661    0.000000
 ---------------------------------------------------------------------

 SCF Done:  E(RB2PLYPD3) =  -76.3341411987     A.U. after   10 cycles
 E2(B2PLYPD3) =    -0.9034990019D-01 E(B2PLYPD3) =    -0.76424491098932D+02

 The electronic state is 1-A'.
 Alpha  occ. eigenvalues --  -19.73260  -1.15036  -0.60976  -0.47044  -0.39832
 Alpha virt. eigenvalues --    0.04416   0.10071   0.27563   0.30446   0.30837
 Alpha virt. eigenvalues --    0.35180   0.43651   0.50413   0.55900   0.62493
 Alpha virt. eigenvalues --    0.65894   0.80740   0.93287   0.96212   1.03171

 Mulliken charges:
               1
     1  O   -0.454950
     2  H    0.222111
     3  H    0.232839
 Sum of Mulliken charges =   0.00000

 Dipole moment (field-independent basis, Debye):
    X=              0.0126    Y=             -1.9480    Z=              0.0000  Tot=              1.9480
 Quadrupole moment (field-independent basis, Debye-Ang):
   XX=             -4.2527   YY=             -6.3714   ZZ=             -7.6233
   XY=              0.0719   XZ=              0.0000   YZ=              0.0000

 1\1\GINC-NODE30\SP\RB2PLYPD3-FC\def2QZVP\H2O1\BOITTIER\26-Aug-2020\0\\
 #p B2PLYPD3/Def2QZVP\\h2o\\0,1\O,0,-5.326605,-0.764483,0.9187\H,0,-4.3
 68927,-0.750297,0.934778\H,0,-5.609308,0.166073,0.772015\\Version=ES64
 L-G09RevD.01\State=1-A'\HF=-76.3341412\MP2=-76.4244911\RMSD=4.227e-09\
 PG=CS [SG(H2O1)]\\@

 TIME GOES, YOU SAY?  AH NO!

 Normal termination of Gaussian 09 at Wed Aug 26 12:14:33 2020.
