 Gaussian 09, Revision D.01,
 Gaussian 09:  ES64L-G09RevD.01 24-Apr-2013

 --------------------
 #p B2PLYPD3/Def2QZVP
 --------------------

 ---
 h2o
 ---
 Symbolic Z-matrix:
 Charge =  0 Multiplicity = 1

                         Standard orientation:
 ---------------------------------------------------------------------
 Center     Atomic      Atomic             Coordinates (Angstroms)
 Number     Number       Type             X           Y           Z
 ---------------------------------------------------------------------
      1          8           0        0.000000    0.119360    0.000000
      2          1           0        0.747194   -0.484425    0.000000
      3          1           0       -0.747194   -0.470452    0.000000
 ---------------------------------------------------------------------

 SCF Done:  E(RB2PLYPD3) =  -76.3349943209     A.U. after   10 cycles
 E2(B2PLYPD3) =    -0.8997356986D-01 E(B2PLYPD3) =    -0.76424967890794D+02

 The electronic state is 1-A'.
 Alpha  occ. eigenvalues --  -19.73168  -1.15932  -0.61033  -0.47854  -0.40033
 Alpha virt. eigenvalues --    0.04525   0.10265   0.27529   0.30400   0.30859
 Alpha virt. eigenvalues --    0.36316   0.44053   0.49952   0.56575   0.61654
 Alpha virt. eigenvalues --    0.65610   0.81307   0.94113   0.95851   1.03662

 Mulliken charges:
               1
     1  O   -0.437197
     2  H    0.220555
     3  H    0.216642
 Sum of Mulliken charges =   0.00000

 Dipole moment (field-independent basis, Debye):
    X=             -0.0046    Y=             -1.9882    Z=              0.0000  Tot=              1.9882
 Quadrupole moment (field-independent basis, Debye-Ang):
   XX=             -4.4232   YY=             -6.2692   ZZ=             -7.5845
   XY=             -0.0223   XZ=              0.0000   YZ=              0.0000

 1\1\GINC-NODE21\SP\RB2PLYPD3-FC\def2QZVP\H2O1\BOITTIER\26-Aug-2020\0\\
 #p B2PLYPD3/Def2QZVP\\h2o\\0,1\O,0,-5.326605,-0.765374,0.923328\H,0,-4
 .368927,-0.692619,0.902973\H,0,-5.609308,0.122654,0.729262\\Version=ES
 64L-G09RevD.01\State=1-A'\HF=-76.3349943\MP2=-76.4249679\RMSD=4.321e-0
 9\PG=CS [SG(H2O1)]\\@

 AN OPTIMIST IS A GUY

 Normal termination of Gaussian 09 at Wed Aug 26 11:35:31 2020.
