 Gaussian 09, Revision D.01,
 Gaussian 09:  ES64L-G09RevD.01 24-Apr-2013

 --------------------
 #p B2PLYPD3/Def2QZVP
 --------------------

 ---
 h2o
 ---
 Symbolic Z-matrix:
 Charge =  0 Multiplicity = 1

                         Standard orientation:
 ---------------------------------------------------------------------
 Center     Atomic      Atomic             Coordinates (Angstroms)
 Number     Number       Type             X           Y           Z
 ---------------------------------------------------------------------
      1          8           0        0.000000    0.118648    0.000000
      2          1           0        0.767115   -0.462462    0.000000
      3          1           0       -0.767115   -0.486719    0.000000
 ---------------------------------------------------------------------

 SCF Done:  E(RB2PLYPD3) =  -76.3344349762     A.U. after   10 cycles
 E2(B2PLYPD3) =    -0.9036140755D-01 E(B2PLYPD3) =    -0.76424796383801D+02

 The electronic state is 1-A'.
 Alpha  occ. eigenvalues --  -19.73308  -1.15170  -0.60760  -0.47329  -0.39875
 Alpha virt. eigenvalues --    0.04408   0.10103   0.27586   0.30439   0.30743
 Alpha virt. eigenvalues --    0.35439   0.43672   0.50142   0.56131   0.62071
 Alpha virt. eigenvalues --    0.65908   0.80877   0.93491   0.96153   1.03019

 Mulliken charges:
               1
     1  O   -0.451243
     2  H    0.222525
     3  H    0.228719
 Sum of Mulliken charges =   0.00000

 Dipole moment (field-independent basis, Debye):
    X=              0.0076    Y=             -1.9698    Z=              0.0000  Tot=              1.9699
 Quadrupole moment (field-independent basis, Debye-Ang):
   XX=             -4.3170   YY=             -6.3295   ZZ=             -7.6185
   XY=              0.0400   XZ=              0.0000   YZ=              0.0000

 1\1\GINC-NODE20\SP\RB2PLYPD3-FC\def2QZVP\H2O1\BOITTIER\26-Aug-2020\0\\
 #p B2PLYPD3/Def2QZVP\\h2o\\0,1\O,0,-5.326605,-0.766199,0.912343\H,0,-4
 .368927,-0.720575,0.995566\H,0,-5.609308,0.163796,0.81173\\Version=ES6
 4L-G09RevD.01\State=1-A'\HF=-76.334435\MP2=-76.4247964\RMSD=4.085e-09\
 PG=CS [SG(H2O1)]\\@

 THE CHYMISTS ARE A STRANGE CLASS OF MORTALS IMPELLED

 Normal termination of Gaussian 09 at Wed Aug 26 08:35:29 2020.
