 Gaussian 09, Revision D.01,
 Gaussian 09:  ES64L-G09RevD.01 24-Apr-2013

 --------------------
 #p B2PLYPD3/Def2QZVP
 --------------------

 ---
 h2o
 ---
 Symbolic Z-matrix:
 Charge =  0 Multiplicity = 1

                         Standard orientation:
 ---------------------------------------------------------------------
 Center     Atomic      Atomic             Coordinates (Angstroms)
 Number     Number       Type             X           Y           Z
 ---------------------------------------------------------------------
      1          8           0        0.000000    0.115860    0.000000
      2          1           0        0.759965   -0.468475    0.000000
      3          1           0       -0.759965   -0.458409    0.000000
 ---------------------------------------------------------------------

 SCF Done:  E(RB2PLYPD3) =  -76.3352173999     A.U. after   10 cycles
 E2(B2PLYPD3) =    -0.8987119071D-01 E(B2PLYPD3) =    -0.76425088590627D+02

 The electronic state is 1-A'.
 Alpha  occ. eigenvalues --  -19.73051  -1.15776  -0.61553  -0.47369  -0.39975
 Alpha virt. eigenvalues --    0.04585   0.10225   0.27482   0.30406   0.31119
 Alpha virt. eigenvalues --    0.35926   0.44060   0.50421   0.56191   0.62422
 Alpha virt. eigenvalues --    0.65538   0.81193   0.93857   0.95884   1.04240

 Mulliken charges:
               1
     1  O   -0.442169
     2  H    0.222475
     3  H    0.219694
 Sum of Mulliken charges =   0.00000

 Dipole moment (field-independent basis, Debye):
    X=             -0.0031    Y=             -1.9478    Z=              0.0000  Tot=              1.9478
 Quadrupole moment (field-independent basis, Debye-Ang):
   XX=             -4.3135   YY=             -6.3451   ZZ=             -7.5877
   XY=             -0.0167   XZ=              0.0000   YZ=              0.0000

 1\1\GINC-NODE05\SP\RB2PLYPD3-FC\def2QZVP\H2O1\BOITTIER\26-Aug-2020\0\\
 #p B2PLYPD3/Def2QZVP\\h2o\\0,1\O,0,-5.326605,-0.762952,0.923306\H,0,-4
 .368927,-0.737672,0.888552\H,0,-5.609308,0.128943,0.744606\\Version=ES
 64L-G09RevD.01\State=1-A'\HF=-76.3352174\MP2=-76.4250886\RMSD=4.050e-0
 9\PG=CS [SG(H2O1)]\\@

 DESK:  A WASTEBASKET WITH DRAWERS.

 Normal termination of Gaussian 09 at Wed Aug 26 11:06:10 2020.
