 Gaussian 09, Revision D.01,
 Gaussian 09:  ES64L-G09RevD.01 24-Apr-2013

 --------------------
 #p B2PLYPD3/Def2QZVP
 --------------------

 ---
 h2o
 ---
 Symbolic Z-matrix:
 Charge =  0 Multiplicity = 1

                         Standard orientation:
 ---------------------------------------------------------------------
 Center     Atomic      Atomic             Coordinates (Angstroms)
 Number     Number       Type             X           Y           Z
 ---------------------------------------------------------------------
      1          8           0        0.000000    0.114802    0.000000
      2          1           0        0.762057   -0.466055    0.000000
      3          1           0       -0.762057   -0.452364    0.000000
 ---------------------------------------------------------------------

 SCF Done:  E(RB2PLYPD3) =  -76.3352271557     A.U. after   10 cycles
 E2(B2PLYPD3) =    -0.8980353705D-01 E(B2PLYPD3) =    -0.76425030692796D+02

 The electronic state is 1-A'.
 Alpha  occ. eigenvalues --  -19.73000  -1.15801  -0.61745  -0.47265  -0.39972
 Alpha virt. eigenvalues --    0.04613   0.10228   0.27462   0.30404   0.31210
 Alpha virt. eigenvalues --    0.35881   0.44101   0.50563   0.56111   0.62632
 Alpha virt. eigenvalues --    0.65486   0.81189   0.93837   0.95870   1.04490

 Mulliken charges:
               1
     1  O   -0.442343
     2  H    0.223072
     3  H    0.219271
 Sum of Mulliken charges =   0.00000

 Dipole moment (field-independent basis, Debye):
    X=             -0.0041    Y=             -1.9365    Z=              0.0000  Tot=              1.9365
 Quadrupole moment (field-independent basis, Debye-Ang):
   XX=             -4.2889   YY=             -6.3633   ZZ=             -7.5854
   XY=             -0.0229   XZ=              0.0000   YZ=              0.0000

 1\1\GINC-NODE38\SP\RB2PLYPD3-FC\def2QZVP\H2O1\BOITTIER\26-Aug-2020\0\\
 #p B2PLYPD3/Def2QZVP\\h2o\\0,1\O,0,-5.326605,-0.763236,0.917429\H,0,-4
 .368927,-0.73879,0.936957\H,0,-5.609308,0.134609,0.789519\\Version=ES6
 4L-G09RevD.01\State=1-A'\HF=-76.3352272\MP2=-76.4250307\RMSD=4.030e-09
 \PG=CS [SG(H2O1)]\\@

 NOTHING MAKES A PERSON MORE PRODUCTIVE THAN THE LAST MINUTE.

 Normal termination of Gaussian 09 at Wed Aug 26 10:33:30 2020.
