 Gaussian 09, Revision D.01,
 Gaussian 09:  ES64L-G09RevD.01 24-Apr-2013

 --------------------
 #p B2PLYPD3/Def2QZVP
 --------------------

 ---
 h2o
 ---
 Symbolic Z-matrix:
 Charge =  0 Multiplicity = 1

                         Standard orientation:
 ---------------------------------------------------------------------
 Center     Atomic      Atomic             Coordinates (Angstroms)
 Number     Number       Type             X           Y           Z
 ---------------------------------------------------------------------
      1          8           0        0.000000    0.120868    0.000000
      2          1           0        0.775636   -0.451814    0.000000
      3          1           0       -0.775636   -0.515133    0.000000
 ---------------------------------------------------------------------

 SCF Done:  E(RB2PLYPD3) =  -76.3325537645     A.U. after   10 cycles
 E2(B2PLYPD3) =    -0.9083484650D-01 E(B2PLYPD3) =    -0.76423388611017D+02

 The electronic state is 1-A'.
 Alpha  occ. eigenvalues --  -19.73531  -1.14596  -0.60084  -0.47210  -0.39774
 Alpha virt. eigenvalues --    0.04223   0.09973   0.27672   0.30321   0.30469
 Alpha virt. eigenvalues --    0.34951   0.43343   0.49941   0.55996   0.61854
 Alpha virt. eigenvalues --    0.66239   0.80530   0.92964   0.96411   1.01915

 Mulliken charges:
               1
     1  O   -0.459326
     2  H    0.222188
     3  H    0.237138
 Sum of Mulliken charges =   0.00000

 Dipole moment (field-independent basis, Debye):
    X=              0.0200    Y=             -1.9850    Z=              0.0000  Tot=              1.9851
 Quadrupole moment (field-independent basis, Debye-Ang):
   XX=             -4.3058   YY=             -6.3214   ZZ=             -7.6485
   XY=              0.1047   XZ=              0.0000   YZ=              0.0000

 1\1\GINC-NODE32\SP\RB2PLYPD3-FC\def2QZVP\H2O1\BOITTIER\26-Aug-2020\0\\
 #p B2PLYPD3/Def2QZVP\\h2o\\0,1\O,0,-5.326605,-0.767701,0.911317\H,0,-4
 .368927,-0.722165,1.013083\H,0,-5.609308,0.189421,0.810791\\Version=ES
 64L-G09RevD.01\State=1-A'\HF=-76.3325538\MP2=-76.4233886\RMSD=4.553e-0
 9\PG=CS [SG(H2O1)]\\@

 ALMOST ALL THE CHEMICAL PROCESSES WHICH OCCUR IN NATURE,

 Normal termination of Gaussian 09 at Wed Aug 26 09:20:41 2020.
