 Gaussian 09, Revision D.01,
 Gaussian 09:  ES64L-G09RevD.01 24-Apr-2013

 --------------------
 #p B2PLYPD3/Def2QZVP
 --------------------

 ---
 h2o
 ---
 Symbolic Z-matrix:
 Charge =  0 Multiplicity = 1

                         Standard orientation:
 ---------------------------------------------------------------------
 Center     Atomic      Atomic             Coordinates (Angstroms)
 Number     Number       Type             X           Y           Z
 ---------------------------------------------------------------------
      1          8           0        0.000000    0.115844    0.000000
      2          1           0        0.729919   -0.510183    0.000000
      3          1           0       -0.729919   -0.416571    0.000000
 ---------------------------------------------------------------------

 SCF Done:  E(RB2PLYPD3) =  -76.3324347303     A.U. after   10 cycles
 E2(B2PLYPD3) =    -0.8918862906D-01 E(B2PLYPD3) =    -0.76421623359349D+02

 The electronic state is 1-A'.
 Alpha  occ. eigenvalues --  -19.72738  -1.17147  -0.62233  -0.48068  -0.40234
 Alpha virt. eigenvalues --    0.04749   0.10477   0.27336   0.30340   0.31206
 Alpha virt. eigenvalues --    0.37306   0.44866   0.50252   0.56749   0.62006
 Alpha virt. eigenvalues --    0.64966   0.81800   0.94389   0.95465   1.04974

 Mulliken charges:
               1
     1  O   -0.415237
     2  H    0.222799
     3  H    0.192438
 Sum of Mulliken charges =   0.00000

 Dipole moment (field-independent basis, Debye):
    X=             -0.0306    Y=             -1.9641    Z=              0.0000  Tot=              1.9643
 Quadrupole moment (field-independent basis, Debye-Ang):
   XX=             -4.4554   YY=             -6.2599   ZZ=             -7.5298
   XY=             -0.1479   XZ=              0.0000   YZ=              0.0000

 1\1\GINC-NODE30\SP\RB2PLYPD3-FC\def2QZVP\H2O1\BOITTIER\26-Aug-2020\0\\
 #p B2PLYPD3/Def2QZVP\\h2o\\0,1\O,0,-5.326605,-0.762759,0.924\H,0,-4.36
 8927,-0.68712,0.881286\H,0,-5.609308,0.075312,0.739705\\Version=ES64L-
 G09RevD.01\State=1-A'\HF=-76.3324347\MP2=-76.4216234\RMSD=5.986e-09\PG
 =CS [SG(H2O1)]\\@

 IT'S WHAT YOU LEARN AFTER YOU KNOW IT ALL

 Normal termination of Gaussian 09 at Wed Aug 26 11:58:47 2020.
