 Gaussian 09, Revision D.01,
 Gaussian 09:  ES64L-G09RevD.01 24-Apr-2013

 --------------------
 #p B2PLYPD3/Def2QZVP
 --------------------

 ---
 h2o
 ---
 Symbolic Z-matrix:
 Charge =  0 Multiplicity = 1

                         Standard orientation:
 ---------------------------------------------------------------------
 Center     Atomic      Atomic             Coordinates (Angstroms)
 Number     Number       Type             X           Y           Z
 ---------------------------------------------------------------------
      1          8           0        0.000000    0.120788    0.000000
      2          1           0        0.735334   -0.501733    0.000000
      3          1           0       -0.735334   -0.464570    0.000000
 ---------------------------------------------------------------------

 SCF Done:  E(RB2PLYPD3) =  -76.3345034804     A.U. after   10 cycles
 E2(B2PLYPD3) =    -0.8987401263D-01 E(B2PLYPD3) =    -0.76424377493049D+02

 The electronic state is 1-A'.
 Alpha  occ. eigenvalues --  -19.73151  -1.16284  -0.60944  -0.48212  -0.40110
 Alpha virt. eigenvalues --    0.04535   0.10338   0.27520   0.30383   0.30792
 Alpha virt. eigenvalues --    0.36760   0.44210   0.49757   0.56863   0.61255
 Alpha virt. eigenvalues --    0.65513   0.81453   0.94396   0.95745   1.03681

 Mulliken charges:
               1
     1  O   -0.430062
     2  H    0.220444
     3  H    0.209618
 Sum of Mulliken charges =   0.00000

 Dipole moment (field-independent basis, Debye):
    X=             -0.0129    Y=             -2.0082    Z=              0.0000  Tot=              2.0082
 Quadrupole moment (field-independent basis, Debye-Ang):
   XX=             -4.4992   YY=             -6.2200   ZZ=             -7.5712
   XY=             -0.0576   XZ=              0.0000   YZ=              0.0000

 1\1\GINC-NODE09\SP\RB2PLYPD3-FC\def2QZVP\H2O1\BOITTIER\26-Aug-2020\0\\
 #p B2PLYPD3/Def2QZVP\\h2o\\0,1\O,0,-5.326605,-0.766186,0.92406\H,0,-4.
 368927,-0.663183,0.901898\H,0,-5.609308,0.106205,0.718214\\Version=ES6
 4L-G09RevD.01\State=1-A'\HF=-76.3345035\MP2=-76.4243775\RMSD=4.787e-09
 \PG=CS [SG(H2O1)]\\@

 THERE'S NOTHING SO GREAT AS THE GREAT OUTDOORS.

 Normal termination of Gaussian 09 at Wed Aug 26 08:30:52 2020.
