 Gaussian 09, Revision D.01,
 Gaussian 09:  ES64L-G09RevD.01 24-Apr-2013

 --------------------
 #p B2PLYPD3/Def2QZVP
 --------------------

 ---
 h2o
 ---
 Symbolic Z-matrix:
 Charge =  0 Multiplicity = 1

                         Standard orientation:
 ---------------------------------------------------------------------
 Center     Atomic      Atomic             Coordinates (Angstroms)
 Number     Number       Type             X           Y           Z
 ---------------------------------------------------------------------
      1          8           0        0.000000    0.115281    0.000000
      2          1           0        0.714179   -0.534193    0.000000
      3          1           0       -0.714179   -0.388057    0.000000
 ---------------------------------------------------------------------

 SCF Done:  E(RB2PLYPD3) =  -76.3274187464     A.U. after   10 cycles
 E2(B2PLYPD3) =    -0.8879919830D-01 E(B2PLYPD3) =    -0.76416217944718D+02

 The electronic state is 1-A'.
 Alpha  occ. eigenvalues --  -19.72517  -1.18002  -0.62706  -0.48369  -0.40377
 Alpha virt. eigenvalues --    0.04810   0.10609   0.27216   0.30302   0.31192
 Alpha virt. eigenvalues --    0.37937   0.45446   0.50249   0.56952   0.61918
 Alpha virt. eigenvalues --    0.64616   0.82040   0.94304   0.95394   1.05128

 Mulliken charges:
               1
     1  O   -0.396628
     2  H    0.224360
     3  H    0.172268
 Sum of Mulliken charges =   0.00000

 Dipole moment (field-independent basis, Debye):
    X=             -0.0489    Y=             -1.9662    Z=              0.0000  Tot=              1.9668
 Quadrupole moment (field-independent basis, Debye-Ang):
   XX=             -4.5188   YY=             -6.2158   ZZ=             -7.4969
   XY=             -0.2259   XZ=              0.0000   YZ=              0.0000

 1\1\GINC-NODE06\SP\RB2PLYPD3-FC\def2QZVP\H2O1\BOITTIER\26-Aug-2020\0\\
 #p B2PLYPD3/Def2QZVP\\h2o\\0,1\O,0,-5.326605,-0.761324,0.927587\H,0,-4
 .368927,-0.673637,0.843727\H,0,-5.609308,0.038861,0.719781\\Version=ES
 64L-G09RevD.01\State=1-A'\HF=-76.3274187\MP2=-76.4162179\RMSD=6.742e-0
 9\PG=CS [SG(H2O1)]\\@

      HUMANKIND PERIODICALLY GOES THROUGH A SPEEDUP OF ITS AFFAIRS,

 Normal termination of Gaussian 09 at Wed Aug 26 08:52:11 2020.
