 Gaussian 09, Revision D.01,
 Gaussian 09:  ES64L-G09RevD.01 24-Apr-2013

 --------------------
 #p B2PLYPD3/Def2QZVP
 --------------------

 ---
 h2o
 ---
 Symbolic Z-matrix:
 Charge =  0 Multiplicity = 1

                         Standard orientation:
 ---------------------------------------------------------------------
 Center     Atomic      Atomic             Coordinates (Angstroms)
 Number     Number       Type             X           Y           Z
 ---------------------------------------------------------------------
      1          8           0        0.000000    0.115952    0.000000
      2          1           0        0.762678   -0.464386    0.000000
      3          1           0       -0.762678   -0.463233    0.000000
 ---------------------------------------------------------------------

 SCF Done:  E(RB2PLYPD3) =  -76.3351701371     A.U. after   10 cycles
 E2(B2PLYPD3) =    -0.8994611996D-01 E(B2PLYPD3) =    -0.76425116257072D+02

 The electronic state is 1-A'.
 Alpha  occ. eigenvalues --  -19.73084  -1.15649  -0.61468  -0.47308  -0.39951
 Alpha virt. eigenvalues --    0.04561   0.10200   0.27496   0.30413   0.31088
 Alpha virt. eigenvalues --    0.35792   0.43989   0.50428   0.56139   0.62447
 Alpha virt. eigenvalues --    0.65596   0.81121   0.93774   0.95937   1.04100

 Mulliken charges:
               1
     1  O   -0.444479
     2  H    0.222396
     3  H    0.222082
 Sum of Mulliken charges =   0.00000

 Dipole moment (field-independent basis, Debye):
    X=             -0.0003    Y=             -1.9471    Z=              0.0000  Tot=              1.9471
 Quadrupole moment (field-independent basis, Debye-Ang):
   XX=             -4.3015   YY=             -6.3512   ZZ=             -7.5935
   XY=             -0.0019   XZ=              0.0000   YZ=              0.0000

 1\1\GINC-NODE05\SP\RB2PLYPD3-FC\def2QZVP\H2O1\BOITTIER\26-Aug-2020\0\\
 #p B2PLYPD3/Def2QZVP\\h2o\\0,1\O,0,-5.326605,-0.763142,0.922753\H,0,-4
 .368927,-0.740668,0.894163\H,0,-5.609308,0.134984,0.747878\\Version=ES
 64L-G09RevD.01\State=1-A'\HF=-76.3351701\MP2=-76.4251163\RMSD=3.987e-0
 9\PG=CS [SG(H2O1)]\\@

 SIC AS THE CAWSE OF EWERY THING IS, SIC WILBE THE EFFECT.

 Normal termination of Gaussian 09 at Wed Aug 26 11:11:40 2020.
