 Gaussian 09, Revision D.01,
 Gaussian 09:  ES64L-G09RevD.01 24-Apr-2013

 --------------------
 #p B2PLYPD3/Def2QZVP
 --------------------

 ---
 h2o
 ---
 Symbolic Z-matrix:
 Charge =  0 Multiplicity = 1

                         Standard orientation:
 ---------------------------------------------------------------------
 Center     Atomic      Atomic             Coordinates (Angstroms)
 Number     Number       Type             X           Y           Z
 ---------------------------------------------------------------------
      1          8           0        0.000000    0.114251    0.000000
      2          1           0        0.779580   -0.442222    0.000000
      3          1           0       -0.779580   -0.471789    0.000000
 ---------------------------------------------------------------------

 SCF Done:  E(RB2PLYPD3) =  -76.3344738752     A.U. after   10 cycles
 E2(B2PLYPD3) =    -0.9017076292D-01 E(B2PLYPD3) =    -0.76424644638147D+02

 The electronic state is 1-A'.
 Alpha  occ. eigenvalues --  -19.73130  -1.15115  -0.61438  -0.46812  -0.39827
 Alpha virt. eigenvalues --    0.04494   0.10085   0.27512   0.30441   0.31103
 Alpha virt. eigenvalues --    0.35085   0.43747   0.50770   0.55728   0.62992
 Alpha virt. eigenvalues --    0.65764   0.80721   0.93320   0.96176   1.03850

 Mulliken charges:
               1
     1  O   -0.455607
     2  H    0.224026
     3  H    0.231581
 Sum of Mulliken charges =   0.00000

 Dipole moment (field-independent basis, Debye):
    X=              0.0083    Y=             -1.9207    Z=              0.0000  Tot=              1.9207
 Quadrupole moment (field-independent basis, Debye-Ang):
   XX=             -4.1949   YY=             -6.4154   ZZ=             -7.6170
   XY=              0.0509   XZ=              0.0000   YZ=              0.0000

 1\1\GINC-NODE06\SP\RB2PLYPD3-FC\def2QZVP\H2O1\BOITTIER\26-Aug-2020\0\\
 #p B2PLYPD3/Def2QZVP\\h2o\\0,1\O,0,-5.326605,-0.762467,0.920155\H,0,-4
 .368927,-0.77575,0.910964\H,0,-5.609308,0.159272,0.772968\\Version=ES6
 4L-G09RevD.01\State=1-A'\HF=-76.3344739\MP2=-76.4246446\RMSD=3.980e-09
 \PG=CS [SG(H2O1)]\\@

 LIFE CAN ONLY BE UNDERSTOOD BACKWARD, BUT MUST

 Normal termination of Gaussian 09 at Wed Aug 26 09:12:22 2020.
