 Gaussian 09, Revision D.01,
 Gaussian 09:  ES64L-G09RevD.01 24-Apr-2013

 --------------------
 #p B2PLYPD3/Def2QZVP
 --------------------

 ---
 h2o
 ---
 Symbolic Z-matrix:
 Charge =  0 Multiplicity = 1

                         Standard orientation:
 ---------------------------------------------------------------------
 Center     Atomic      Atomic             Coordinates (Angstroms)
 Number     Number       Type             X           Y           Z
 ---------------------------------------------------------------------
      1          8           0        0.000000    0.115669    0.000000
      2          1           0        0.775001   -0.447029    0.000000
      3          1           0       -0.775001   -0.478323    0.000000
 ---------------------------------------------------------------------

 SCF Done:  E(RB2PLYPD3) =  -76.3345123865     A.U. after   10 cycles
 E2(B2PLYPD3) =    -0.9021478532D-01 E(B2PLYPD3) =    -0.76424727171857D+02

 The electronic state is 1-A'.
 Alpha  occ. eigenvalues --  -19.73182  -1.15160  -0.61237  -0.46992  -0.39848
 Alpha virt. eigenvalues --    0.04471   0.10097   0.27533   0.30439   0.30987
 Alpha virt. eigenvalues --    0.35234   0.43739   0.50555   0.55869   0.62684
 Alpha virt. eigenvalues --    0.65796   0.80797   0.93379   0.96153   1.03589

 Mulliken charges:
               1
     1  O   -0.453657
     2  H    0.222817
     3  H    0.230840
 Sum of Mulliken charges =   0.00000

 Dipole moment (field-independent basis, Debye):
    X=              0.0091    Y=             -1.9370    Z=              0.0000  Tot=              1.9370
 Quadrupole moment (field-independent basis, Debye-Ang):
   XX=             -4.2370   YY=             -6.3862   ZZ=             -7.6162
   XY=              0.0531   XZ=              0.0000   YZ=              0.0000

 1\1\GINC-NODE31\SP\RB2PLYPD3-FC\def2QZVP\H2O1\BOITTIER\26-Aug-2020\0\\
 #p B2PLYPD3/Def2QZVP\\h2o\\0,1\O,0,-5.326605,-0.763638,0.918967\H,0,-4
 .368927,-0.757603,0.927472\H,0,-5.609308,0.159852,0.775097\\Version=ES
 64L-G09RevD.01\State=1-A'\HF=-76.3345124\MP2=-76.4247272\RMSD=4.053e-0
 9\PG=CS [SG(H2O1)]\\@

 GARLIC THEN HAVE POWER TO SAVE FROM DEATH

 Normal termination of Gaussian 09 at Wed Aug 26 10:28:44 2020.
