 Gaussian 09, Revision D.01,
 Gaussian 09:  ES64L-G09RevD.01 24-Apr-2013

 --------------------
 #p B2PLYPD3/Def2QZVP
 --------------------

 ---
 h2o
 ---
 Symbolic Z-matrix:
 Charge =  0 Multiplicity = 1

                         Standard orientation:
 ---------------------------------------------------------------------
 Center     Atomic      Atomic             Coordinates (Angstroms)
 Number     Number       Type             X           Y           Z
 ---------------------------------------------------------------------
      1          8           0        0.000000    0.114439    0.000000
      2          1           0        0.761752   -0.466656    0.000000
      3          1           0       -0.761752   -0.448858    0.000000
 ---------------------------------------------------------------------

 SCF Done:  E(RB2PLYPD3) =  -76.3352191581     A.U. after   10 cycles
 E2(B2PLYPD3) =    -0.8975648530D-01 E(B2PLYPD3) =    -0.76424975643400D+02

 The electronic state is 1-A'.
 Alpha  occ. eigenvalues --  -19.72972  -1.15855  -0.61835  -0.47253  -0.39980
 Alpha virt. eigenvalues --    0.04630   0.10237   0.27451   0.30401   0.31248
 Alpha virt. eigenvalues --    0.35914   0.44140   0.50605   0.56104   0.62690
 Alpha virt. eigenvalues --    0.65449   0.81213   0.93858   0.95848   1.04611

 Mulliken charges:
               1
     1  O   -0.441552
     2  H    0.223264
     3  H    0.218288
 Sum of Mulliken charges =   0.00000

 Dipole moment (field-independent basis, Debye):
    X=             -0.0053    Y=             -1.9331    Z=              0.0000  Tot=              1.9331
 Quadrupole moment (field-independent basis, Debye-Ang):
   XX=             -4.2854   YY=             -6.3668   ZZ=             -7.5827
   XY=             -0.0298   XZ=              0.0000   YZ=              0.0000

 1\1\GINC-NODE09\SP\RB2PLYPD3-FC\def2QZVP\H2O1\BOITTIER\26-Aug-2020\0\\
 #p B2PLYPD3/Def2QZVP\\h2o\\0,1\O,0,-5.326605,-0.762974,0.917518\H,0,-4
 .368927,-0.740659,0.934641\H,0,-5.609308,0.132289,0.790419\\Version=ES
 64L-G09RevD.01\State=1-A'\HF=-76.3352192\MP2=-76.4249756\RMSD=4.063e-0
 9\PG=CS [SG(H2O1)]\\@

 ALL SCIENCE IS EITHER PHYSICS, OR STAMP COLLECTING.

 Normal termination of Gaussian 09 at Wed Aug 26 10:54:09 2020.
