 Gaussian 09, Revision D.01,
 Gaussian 09:  ES64L-G09RevD.01 24-Apr-2013

 --------------------
 #p B2PLYPD3/Def2QZVP
 --------------------

 ---
 h2o
 ---
 Symbolic Z-matrix:
 Charge =  0 Multiplicity = 1

                         Standard orientation:
 ---------------------------------------------------------------------
 Center     Atomic      Atomic             Coordinates (Angstroms)
 Number     Number       Type             X           Y           Z
 ---------------------------------------------------------------------
      1          8           0        0.000000    0.119307    0.000000
      2          1           0        0.744970   -0.487664    0.000000
      3          1           0       -0.744970   -0.466794    0.000000
 ---------------------------------------------------------------------

 SCF Done:  E(RB2PLYPD3) =  -76.3349564626     A.U. after   10 cycles
 E2(B2PLYPD3) =    -0.8991634559D-01 E(B2PLYPD3) =    -0.76424872808220D+02

 The electronic state is 1-A'.
 Alpha  occ. eigenvalues --  -19.73143  -1.16036  -0.61092  -0.47906  -0.40052
 Alpha virt. eigenvalues --    0.04541   0.10286   0.27518   0.30395   0.30880
 Alpha virt. eigenvalues --    0.36423   0.44111   0.49947   0.56618   0.61630
 Alpha virt. eigenvalues --    0.65564   0.81355   0.94175   0.95812   1.03763

 Mulliken charges:
               1
     1  O   -0.435360
     2  H    0.220639
     3  H    0.214721
 Sum of Mulliken charges =   0.00000

 Dipole moment (field-independent basis, Debye):
    X=             -0.0069    Y=             -1.9890    Z=              0.0000  Tot=              1.9890
 Quadrupole moment (field-independent basis, Debye-Ang):
   XX=             -4.4331   YY=             -6.2639   ZZ=             -7.5800
   XY=             -0.0332   XZ=              0.0000   YZ=              0.0000

 1\1\GINC-NODE38\SP\RB2PLYPD3-FC\def2QZVP\H2O1\BOITTIER\26-Aug-2020\0\\
 #p B2PLYPD3/Def2QZVP\\h2o\\0,1\O,0,-5.326605,-0.765422,0.92294\H,0,-4.
 368927,-0.688162,0.906295\H,0,-5.609308,0.118952,0.732005\\Version=ES6
 4L-G09RevD.01\State=1-A'\HF=-76.3349565\MP2=-76.4248728\RMSD=4.404e-09
 \PG=CS [SG(H2O1)]\\@

 THE DIFFICULTY IN SCIENCE IS OFTEN NOT SO MUCH HOW

 Normal termination of Gaussian 09 at Wed Aug 26 09:33:28 2020.
