 Gaussian 09, Revision D.01,
 Gaussian 09:  ES64L-G09RevD.01 24-Apr-2013

 --------------------
 #p B2PLYPD3/Def2QZVP
 --------------------

 ---
 h2o
 ---
 Symbolic Z-matrix:
 Charge =  0 Multiplicity = 1

                         Standard orientation:
 ---------------------------------------------------------------------
 Center     Atomic      Atomic             Coordinates (Angstroms)
 Number     Number       Type             X           Y           Z
 ---------------------------------------------------------------------
      1          8           0        0.000000    0.116006    0.000000
      2          1           0        0.766577   -0.458503    0.000000
      3          1           0       -0.766577   -0.469547    0.000000
 ---------------------------------------------------------------------

 SCF Done:  E(RB2PLYPD3) =  -76.3350187820     A.U. after   10 cycles
 E2(B2PLYPD3) =    -0.9004612877D-01 E(B2PLYPD3) =    -0.76425064910755D+02

 The electronic state is 1-A'.
 Alpha  occ. eigenvalues --  -19.73125  -1.15477  -0.61364  -0.47216  -0.39916
 Alpha virt. eigenvalues --    0.04528   0.10165   0.27512   0.30422   0.31046
 Alpha virt. eigenvalues --    0.35606   0.43896   0.50450   0.56059   0.62498
 Alpha virt. eigenvalues --    0.65672   0.81017   0.93649   0.96011   1.03905

 Mulliken charges:
               1
     1  O   -0.447615
     2  H    0.222336
     3  H    0.225279
 Sum of Mulliken charges =   0.00000

 Dipole moment (field-independent basis, Debye):
    X=              0.0033    Y=             -1.9453    Z=              0.0000  Tot=              1.9453
 Quadrupole moment (field-independent basis, Debye-Ang):
   XX=             -4.2832   YY=             -6.3607   ZZ=             -7.6015
   XY=              0.0185   XZ=              0.0000   YZ=              0.0000

 1\1\GINC-NODE01\SP\RB2PLYPD3-FC\def2QZVP\H2O1\BOITTIER\26-Aug-2020\0\\
 #p B2PLYPD3/Def2QZVP\\h2o\\0,1\O,0,-5.326605,-0.763469,0.92135\H,0,-4.
 368927,-0.744507,0.907376\H,0,-5.609308,0.144058,0.757072\\Version=ES6
 4L-G09RevD.01\State=1-A'\HF=-76.3350188\MP2=-76.4250649\RMSD=3.962e-09
 \PG=CS [SG(H2O1)]\\@

 Time has a wonderful way of weeding out the trivial.

 Normal termination of Gaussian 09 at Wed Aug 26 10:03:33 2020.
