 Gaussian 09, Revision D.01,
 Gaussian 09:  ES64L-G09RevD.01 24-Apr-2013

 --------------------
 #p B2PLYPD3/Def2QZVP
 --------------------

 ---
 h2o
 ---
 Symbolic Z-matrix:
 Charge =  0 Multiplicity = 1

                         Standard orientation:
 ---------------------------------------------------------------------
 Center     Atomic      Atomic             Coordinates (Angstroms)
 Number     Number       Type             X           Y           Z
 ---------------------------------------------------------------------
      1          8           0        0.000000    0.118102    0.000000
      2          1           0        0.763662   -0.462476    0.000000
      3          1           0       -0.763662   -0.482344    0.000000
 ---------------------------------------------------------------------

 SCF Done:  E(RB2PLYPD3) =  -76.3347578643     A.U. after   10 cycles
 E2(B2PLYPD3) =    -0.9021525744D-01 E(B2PLYPD3) =    -0.76424973121737D+02

 The electronic state is 1-A'.
 Alpha  occ. eigenvalues --  -19.73239  -1.15373  -0.60960  -0.47388  -0.39912
 Alpha virt. eigenvalues --    0.04459   0.10146   0.27558   0.30428   0.30840
 Alpha virt. eigenvalues --    0.35629   0.43791   0.50183   0.56187   0.62108
 Alpha virt. eigenvalues --    0.65799   0.80992   0.93634   0.96067   1.03341

 Mulliken charges:
               1
     1  O   -0.448012
     2  H    0.221402
     3  H    0.226610
 Sum of Mulliken charges =   0.00000

 Dipole moment (field-independent basis, Debye):
    X=              0.0062    Y=             -1.9668    Z=              0.0000  Tot=              1.9668
 Quadrupole moment (field-independent basis, Debye-Ang):
   XX=             -4.3263   YY=             -6.3273   ZZ=             -7.6085
   XY=              0.0327   XZ=              0.0000   YZ=              0.0000

 1\1\GINC-NODE28\SP\RB2PLYPD3-FC\def2QZVP\H2O1\BOITTIER\26-Aug-2020\0\\
 #p B2PLYPD3/Def2QZVP\\h2o\\0,1\O,0,-5.326605,-0.765501,0.917426\H,0,-4
 .368927,-0.720961,0.950902\H,0,-5.609308,0.153025,0.775633\\Version=ES
 64L-G09RevD.01\State=1-A'\HF=-76.3347579\MP2=-76.4249731\RMSD=4.085e-0
 9\PG=CS [SG(H2O1)]\\@

 SUCCESS IS COUNTED SWEETEST

 Normal termination of Gaussian 09 at Wed Aug 26 12:35:45 2020.
