 Gaussian 09, Revision D.01,
 Gaussian 09:  ES64L-G09RevD.01 24-Apr-2013

 --------------------
 #p B2PLYPD3/Def2QZVP
 --------------------

 ---
 h2o
 ---
 Symbolic Z-matrix:
 Charge =  0 Multiplicity = 1

                         Standard orientation:
 ---------------------------------------------------------------------
 Center     Atomic      Atomic             Coordinates (Angstroms)
 Number     Number       Type             X           Y           Z
 ---------------------------------------------------------------------
      1          8           0        0.000000    0.120339    0.000000
      2          1           0        0.747196   -0.484689    0.000000
      3          1           0       -0.747196   -0.478026    0.000000
 ---------------------------------------------------------------------

 SCF Done:  E(RB2PLYPD3) =  -76.3348783427     A.U. after   10 cycles
 E2(B2PLYPD3) =    -0.9008954027D-01 E(B2PLYPD3) =    -0.76424967882957D+02

 The electronic state is 1-A'.
 Alpha  occ. eigenvalues --  -19.73236  -1.15819  -0.60808  -0.47901  -0.40018
 Alpha virt. eigenvalues --    0.04483   0.10244   0.27558   0.30406   0.30759
 Alpha virt. eigenvalues --    0.36249   0.43967   0.49849   0.56608   0.61497
 Alpha virt. eigenvalues --    0.65697   0.81254   0.94086   0.95908   1.03359

 Mulliken charges:
               1
     1  O   -0.438653
     2  H    0.220245
     3  H    0.218408
 Sum of Mulliken charges =   0.00000

 Dipole moment (field-independent basis, Debye):
    X=             -0.0022    Y=             -1.9974    Z=              0.0000  Tot=              1.9974
 Quadrupole moment (field-independent basis, Debye-Ang):
   XX=             -4.4369   YY=             -6.2573   ZZ=             -7.5907
   XY=             -0.0106   XZ=              0.0000   YZ=              0.0000

 1\1\GINC-NODE11\SP\RB2PLYPD3-FC\def2QZVP\H2O1\BOITTIER\26-Aug-2020\0\\
 #p B2PLYPD3/Def2QZVP\\h2o\\0,1\O,0,-5.326605,-0.766511,0.920973\H,0,-4
 .368927,-0.681929,0.928622\H,0,-5.609308,0.130155,0.740943\\Version=ES
 64L-G09RevD.01\State=1-A'\HF=-76.3348783\MP2=-76.4249679\RMSD=4.314e-0
 9\PG=CS [SG(H2O1)]\\@

 THERE ONCE WAS A GIRL NAMED IRENE,

 Normal termination of Gaussian 09 at Wed Aug 26 08:30:26 2020.
