 Gaussian 09, Revision D.01,
 Gaussian 09:  ES64L-G09RevD.01 24-Apr-2013

 --------------------
 #p B2PLYPD3/Def2QZVP
 --------------------

 ---
 h2o
 ---
 Symbolic Z-matrix:
 Charge =  0 Multiplicity = 1

                         Standard orientation:
 ---------------------------------------------------------------------
 Center     Atomic      Atomic             Coordinates (Angstroms)
 Number     Number       Type             X           Y           Z
 ---------------------------------------------------------------------
      1          8           0        0.000000    0.127700    0.000000
      2          1           0        0.745702   -0.489044    0.000000
      3          1           0       -0.745702   -0.532558    0.000000
 ---------------------------------------------------------------------

 SCF Done:  E(RB2PLYPD3) =  -76.3322403729     A.U. after   10 cycles
 E2(B2PLYPD3) =    -0.9097647682D-01 E(B2PLYPD3) =    -0.76423216849678D+02

 The electronic state is 1-A'.
 Alpha  occ. eigenvalues --  -19.73728  -1.15036  -0.59175  -0.48252  -0.39922
 Alpha virt. eigenvalues --    0.04147   0.10075   0.27773   0.29917   0.30442
 Alpha virt. eigenvalues --    0.35726   0.43398   0.49134   0.56840   0.60355
 Alpha virt. eigenvalues --    0.66295   0.80854   0.93790   0.96354   1.01229

 Mulliken charges:
               1
     1  O   -0.446868
     2  H    0.218090
     3  H    0.228778
 Sum of Mulliken charges =   0.00000

 Dipole moment (field-independent basis, Debye):
    X=              0.0162    Y=             -2.0646    Z=              0.0000  Tot=              2.0647
 Quadrupole moment (field-independent basis, Debye-Ang):
   XX=             -4.5483   YY=             -6.1600   ZZ=             -7.6351
   XY=              0.0661   XZ=              0.0000   YZ=              0.0000

 1\1\GINC-NODE30\SP\RB2PLYPD3-FC\def2QZVP\H2O1\BOITTIER\26-Aug-2020\0\\
 #p B2PLYPD3/Def2QZVP\\h2o\\0,1\O,0,-5.326605,-0.768144,0.933266\H,0,-4
 .368927,-0.66422,0.841084\H,0,-5.609308,0.138574,0.633342\\Version=ES6
 4L-G09RevD.01\State=1-A'\HF=-76.3322404\MP2=-76.4232168\RMSD=4.688e-09
 \PG=CS [SG(H2O1)]\\@

 THERE IS NO SUBJECT, HOWEVER COMPLEX,

 Normal termination of Gaussian 09 at Wed Aug 26 08:45:21 2020.
