 Gaussian 09, Revision D.01,
 Gaussian 09:  ES64L-G09RevD.01 24-Apr-2013

 --------------------
 #p B2PLYPD3/Def2QZVP
 --------------------

 ---
 h2o
 ---
 Symbolic Z-matrix:
 Charge =  0 Multiplicity = 1

                         Standard orientation:
 ---------------------------------------------------------------------
 Center     Atomic      Atomic             Coordinates (Angstroms)
 Number     Number       Type             X           Y           Z
 ---------------------------------------------------------------------
      1          8           0        0.000000    0.116169    0.000000
      2          1           0        0.741481   -0.493441    0.000000
      3          1           0       -0.741481   -0.435914    0.000000
 ---------------------------------------------------------------------

 SCF Done:  E(RB2PLYPD3) =  -76.3343733215     A.U. after   10 cycles
 E2(B2PLYPD3) =    -0.8947876892D-01 E(B2PLYPD3) =    -0.76423852090430D+02

 The electronic state is 1-A'.
 Alpha  occ. eigenvalues --  -19.72886  -1.16564  -0.61902  -0.47824  -0.40130
 Alpha virt. eigenvalues --    0.04686   0.10377   0.27408   0.30367   0.31176
 Alpha virt. eigenvalues --    0.36778   0.44498   0.50273   0.56562   0.62103
 Alpha virt. eigenvalues --    0.65218   0.81583   0.94273   0.95601   1.04720

 Mulliken charges:
               1
     1  O   -0.426912
     2  H    0.222179
     3  H    0.204733
 Sum of Mulliken charges =   0.00000

 Dipole moment (field-independent basis, Debye):
    X=             -0.0184    Y=             -1.9612    Z=              0.0000  Tot=              1.9612
 Quadrupole moment (field-independent basis, Debye-Ang):
   XX=             -4.4061   YY=             -6.2905   ZZ=             -7.5538
   XY=             -0.0924   XZ=              0.0000   YZ=              0.0000

 1\1\GINC-NODE22\SP\RB2PLYPD3-FC\def2QZVP\H2O1\BOITTIER\26-Aug-2020\0\\
 #p B2PLYPD3/Def2QZVP\\h2o\\0,1\O,0,-5.326605,-0.763638,0.921001\H,0,-4
 .368927,-0.699103,0.910685\H,0,-5.609308,0.101348,0.758313\\Version=ES
 64L-G09RevD.01\State=1-A'\HF=-76.3343733\MP2=-76.4238521\RMSD=5.019e-0
 9\PG=CS [SG(H2O1)]\\@

 I FIND THAT THE THREE TRULY GREAT TIMES FOR THINKING THOUGHTS

 Normal termination of Gaussian 09 at Wed Aug 26 12:51:35 2020.
