 Gaussian 09, Revision D.01,
 Gaussian 09:  ES64L-G09RevD.01 24-Apr-2013

 --------------------
 #p B2PLYPD3/Def2QZVP
 --------------------

 ---
 h2o
 ---
 Symbolic Z-matrix:
 Charge =  0 Multiplicity = 1

                         Standard orientation:
 ---------------------------------------------------------------------
 Center     Atomic      Atomic             Coordinates (Angstroms)
 Number     Number       Type             X           Y           Z
 ---------------------------------------------------------------------
      1          8           0        0.000000    0.114898    0.000000
      2          1           0        0.777216   -0.444740    0.000000
      3          1           0       -0.777216   -0.474443    0.000000
 ---------------------------------------------------------------------

 SCF Done:  E(RB2PLYPD3) =  -76.3345213362     A.U. after   10 cycles
 E2(B2PLYPD3) =    -0.9018345118D-01 E(B2PLYPD3) =    -0.76424704787400D+02

 The electronic state is 1-A'.
 Alpha  occ. eigenvalues --  -19.73151  -1.15147  -0.61354  -0.46901  -0.39839
 Alpha virt. eigenvalues --    0.04486   0.10093   0.27520   0.30440   0.31054
 Alpha virt. eigenvalues --    0.35166   0.43750   0.50669   0.55798   0.62847
 Alpha virt. eigenvalues --    0.65773   0.80765   0.93356   0.96159   1.03745

 Mulliken charges:
               1
     1  O   -0.454495
     2  H    0.223441
     3  H    0.231054
 Sum of Mulliken charges =   0.00000

 Dipole moment (field-independent basis, Debye):
    X=              0.0085    Y=             -1.9283    Z=              0.0000  Tot=              1.9283
 Quadrupole moment (field-independent basis, Debye-Ang):
   XX=             -4.2155   YY=             -6.4014   ZZ=             -7.6160
   XY=              0.0508   XZ=              0.0000   YZ=              0.0000

 1\1\GINC-NODE24\SP\RB2PLYPD3-FC\def2QZVP\H2O1\BOITTIER\26-Aug-2020\0\\
 #p B2PLYPD3/Def2QZVP\\h2o\\0,1\O,0,-5.326605,-0.763177,0.918451\H,0,-4
 .368927,-0.76545,0.928787\H,0,-5.609308,0.160331,0.782069\\Version=ES6
 4L-G09RevD.01\State=1-A'\HF=-76.3345213\MP2=-76.4247048\RMSD=4.007e-09
 \PG=CS [SG(H2O1)]\\@

 THE REAL VOYAGE OF DISCOVERY CONSISTS NOT IN SEEKING NEW LANDSCAPES

 Normal termination of Gaussian 09 at Wed Aug 26 11:44:45 2020.
