 Gaussian 09, Revision D.01,
 Gaussian 09:  ES64L-G09RevD.01 24-Apr-2013

 --------------------
 #p B2PLYPD3/Def2QZVP
 --------------------

 ---
 h2o
 ---
 Symbolic Z-matrix:
 Charge =  0 Multiplicity = 1

                         Standard orientation:
 ---------------------------------------------------------------------
 Center     Atomic      Atomic             Coordinates (Angstroms)
 Number     Number       Type             X           Y           Z
 ---------------------------------------------------------------------
      1          8           0        0.000000    0.116013    0.000000
      2          1           0        0.767251   -0.457572    0.000000
      3          1           0       -0.767251   -0.470533    0.000000
 ---------------------------------------------------------------------

 SCF Done:  E(RB2PLYPD3) =  -76.3349837497     A.U. after   10 cycles
 E2(B2PLYPD3) =    -0.9006322831D-01 E(B2PLYPD3) =    -0.76425046978014D+02

 The electronic state is 1-A'.
 Alpha  occ. eigenvalues --  -19.73132  -1.15447  -0.61347  -0.47199  -0.39910
 Alpha virt. eigenvalues --    0.04523   0.10159   0.27515   0.30424   0.31039
 Alpha virt. eigenvalues --    0.35574   0.43880   0.50454   0.56045   0.62507
 Alpha virt. eigenvalues --    0.65685   0.80998   0.93627   0.96024   1.03870

 Mulliken charges:
               1
     1  O   -0.448146
     2  H    0.222353
     3  H    0.225794
 Sum of Mulliken charges =   0.00000

 Dipole moment (field-independent basis, Debye):
    X=              0.0039    Y=             -1.9450    Z=              0.0000  Tot=              1.9450
 Quadrupole moment (field-independent basis, Debye-Ang):
   XX=             -4.2800   YY=             -6.3623   ZZ=             -7.6029
   XY=              0.0217   XZ=              0.0000   YZ=              0.0000

 1\1\GINC-NODE33\SP\RB2PLYPD3-FC\def2QZVP\H2O1\BOITTIER\26-Aug-2020\0\\
 #p B2PLYPD3/Def2QZVP\\h2o\\0,1\O,0,-5.326605,-0.763462,0.921412\H,0,-4
 .368927,-0.745743,0.906855\H,0,-5.609308,0.145184,0.756635\\Version=ES
 64L-G09RevD.01\State=1-A'\HF=-76.3349837\MP2=-76.425047\RMSD=3.964e-09
 \PG=CS [SG(H2O1)]\\@

 TWO ROADS DIVERGED IN A WOOD, AND I--

 Normal termination of Gaussian 09 at Wed Aug 26 10:28:25 2020.
