 Gaussian 09, Revision D.01,
 Gaussian 09:  ES64L-G09RevD.01 24-Apr-2013

 --------------------
 #p B2PLYPD3/Def2QZVP
 --------------------

 ---
 h2o
 ---
 Symbolic Z-matrix:
 Charge =  0 Multiplicity = 1

                         Standard orientation:
 ---------------------------------------------------------------------
 Center     Atomic      Atomic             Coordinates (Angstroms)
 Number     Number       Type             X           Y           Z
 ---------------------------------------------------------------------
      1          8           0        0.000000    0.121099    0.000000
      2          1           0        0.786129   -0.436412    0.000000
      3          1           0       -0.786129   -0.532381    0.000000
 ---------------------------------------------------------------------

 SCF Done:  E(RB2PLYPD3) =  -76.3305586759     A.U. after   10 cycles
 E2(B2PLYPD3) =    -0.9112980349D-01 E(B2PLYPD3) =    -0.76421688479402D+02

 The electronic state is 1-A'.
 Alpha  occ. eigenvalues --  -19.73634  -1.14173  -0.59803  -0.46944  -0.39685
 Alpha virt. eigenvalues --    0.04094   0.09868   0.27701   0.30039   0.30492
 Alpha virt. eigenvalues --    0.34544   0.43146   0.49985   0.55749   0.61995
 Alpha virt. eigenvalues --    0.66423   0.80202   0.92395   0.96585   1.01370

 Mulliken charges:
               1
     1  O   -0.466132
     2  H    0.222367
     3  H    0.243764
 Sum of Mulliken charges =   0.00000

 Dipole moment (field-independent basis, Debye):
    X=              0.0297    Y=             -1.9801    Z=              0.0000  Tot=              1.9803
 Quadrupole moment (field-independent basis, Debye-Ang):
   XX=             -4.2565   YY=             -6.3416   ZZ=             -7.6704
   XY=              0.1610   XZ=              0.0000   YZ=              0.0000

 1\1\GINC-NODE03\SP\RB2PLYPD3-FC\def2QZVP\H2O1\BOITTIER\26-Aug-2020\0\\
 #p B2PLYPD3/Def2QZVP\\h2o\\0,1\O,0,-5.326605,-0.767855,0.911162\H,0,-4
 .368927,-0.739738,1.015471\H,0,-5.609308,0.209458,0.811289\\Version=ES
 64L-G09RevD.01\State=1-A'\HF=-76.3305587\MP2=-76.4216885\RMSD=5.157e-0
 9\PG=CS [SG(H2O1)]\\@

 I DON'T PRETEND TO UNDERSTAND THE UNIVERSE --

 Normal termination of Gaussian 09 at Wed Aug 26 09:01:34 2020.
