 Gaussian 09, Revision D.01,
 Gaussian 09:  ES64L-G09RevD.01 24-Apr-2013

 --------------------
 #p B2PLYPD3/Def2QZVP
 --------------------

 ---
 h2o
 ---
 Symbolic Z-matrix:
 Charge =  0 Multiplicity = 1

                         Standard orientation:
 ---------------------------------------------------------------------
 Center     Atomic      Atomic             Coordinates (Angstroms)
 Number     Number       Type             X           Y           Z
 ---------------------------------------------------------------------
      1          8           0        0.000000    0.111904    0.000000
      2          1           0        0.773380   -0.456741    0.000000
      3          1           0       -0.773380   -0.438491    0.000000
 ---------------------------------------------------------------------

 SCF Done:  E(RB2PLYPD3) =  -76.3350241178     A.U. after   10 cycles
 E2(B2PLYPD3) =    -0.8976487437D-01 E(B2PLYPD3) =    -0.76424788992143D+02

 The electronic state is 1-A'.
 Alpha  occ. eigenvalues --  -19.72914  -1.15622  -0.62119  -0.46841  -0.39914
 Alpha virt. eigenvalues --    0.04644   0.10184   0.27431   0.30412   0.31418
 Alpha virt. eigenvalues --    0.35471   0.44076   0.51019   0.55776   0.63303
 Alpha virt. eigenvalues --    0.65454   0.80995   0.93644   0.95961   1.04935

 Mulliken charges:
               1
     1  O   -0.447695
     2  H    0.226336
     3  H    0.221360
 Sum of Mulliken charges =   0.00000

 Dipole moment (field-independent basis, Debye):
    X=             -0.0050    Y=             -1.9017    Z=              0.0000  Tot=              1.9017
 Quadrupole moment (field-independent basis, Debye-Ang):
   XX=             -4.1940   YY=             -6.4277   ZZ=             -7.5910
   XY=             -0.0315   XZ=              0.0000   YZ=              0.0000

 1\1\GINC-NODE26\SP\RB2PLYPD3-FC\def2QZVP\H2O1\BOITTIER\26-Aug-2020\0\\
 #p B2PLYPD3/Def2QZVP\\h2o\\0,1\O,0,-5.326605,-0.761584,0.911255\H,0,-4
 .368927,-0.773042,0.976026\H,0,-5.609308,0.142429,0.848884\\Version=ES
 64L-G09RevD.01\State=1-A'\HF=-76.3350241\MP2=-76.424789\RMSD=3.909e-09
 \PG=CS [SG(H2O1)]\\@

 THERE ARE PEOPLE SO ADDICTED TO EXAGERATING THEY

 Normal termination of Gaussian 09 at Wed Aug 26 09:04:53 2020.
