 Gaussian 09, Revision D.01,
 Gaussian 09:  ES64L-G09RevD.01 24-Apr-2013

 --------------------
 #p B2PLYPD3/Def2QZVP
 --------------------

 ---
 h2o
 ---
 Symbolic Z-matrix:
 Charge =  0 Multiplicity = 1

                         Standard orientation:
 ---------------------------------------------------------------------
 Center     Atomic      Atomic             Coordinates (Angstroms)
 Number     Number       Type             X           Y           Z
 ---------------------------------------------------------------------
      1          8           0        0.000000    0.118560    0.000000
      2          1           0        0.785110   -0.431651    0.000000
      3          1           0       -0.785110   -0.516830    0.000000
 ---------------------------------------------------------------------

 SCF Done:  E(RB2PLYPD3) =  -76.3319428450     A.U. after   10 cycles
 E2(B2PLYPD3) =    -0.9080431379D-01 E(B2PLYPD3) =    -0.76422747158747D+02

 The electronic state is 1-A'.
 Alpha  occ. eigenvalues --  -19.73460  -1.14466  -0.60366  -0.46860  -0.39724
 Alpha virt. eigenvalues --    0.04228   0.09940   0.27633   0.30398   0.30477
 Alpha virt. eigenvalues --    0.34699   0.43340   0.50284   0.55710   0.62383
 Alpha virt. eigenvalues --    0.66201   0.80350   0.92675   0.96474   1.02059

 Mulliken charges:
               1
     1  O   -0.463426
     2  H    0.221783
     3  H    0.241643
 Sum of Mulliken charges =   0.00000

 Dipole moment (field-independent basis, Debye):
    X=              0.0253    Y=             -1.9575    Z=              0.0000  Tot=              1.9577
 Quadrupole moment (field-independent basis, Debye-Ang):
   XX=             -4.2262   YY=             -6.3722   ZZ=             -7.6535
   XY=              0.1446   XZ=              0.0000   YZ=              0.0000

 1\1\GINC-NODE17\SP\RB2PLYPD3-FC\def2QZVP\H2O1\BOITTIER\26-Aug-2020\0\\
 #p B2PLYPD3/Def2QZVP\\h2o\\0,1\O,0,-5.326605,-0.765898,0.916645\H,0,-4
 .368927,-0.75562,0.959965\H,0,-5.609308,0.194037,0.779818\\Version=ES6
 4L-G09RevD.01\State=1-A'\HF=-76.3319428\MP2=-76.4227472\RMSD=4.995e-09
 \PG=CS [SG(H2O1)]\\@

 GOOD SENSE ABOUT TRIVIALITIES IS BETTER THAN NONSENSE

 Normal termination of Gaussian 09 at Wed Aug 26 08:29:51 2020.
