 Gaussian 09, Revision D.01,
 Gaussian 09:  ES64L-G09RevD.01 24-Apr-2013

 --------------------
 #p B2PLYPD3/Def2QZVP
 --------------------

 ---
 h2o
 ---
 Symbolic Z-matrix:
 Charge =  0 Multiplicity = 1

                         Standard orientation:
 ---------------------------------------------------------------------
 Center     Atomic      Atomic             Coordinates (Angstroms)
 Number     Number       Type             X           Y           Z
 ---------------------------------------------------------------------
      1          8           0        0.000000    0.109741    0.000000
      2          1           0        0.757655   -0.476644    0.000000
      3          1           0       -0.757655   -0.401282    0.000000
 ---------------------------------------------------------------------

 SCF Done:  E(RB2PLYPD3) =  -76.3336829113     A.U. after   10 cycles
 E2(B2PLYPD3) =    -0.8917044477D-01 E(B2PLYPD3) =    -0.76422853356054D+02

 The electronic state is 1-A'.
 Alpha  occ. eigenvalues --  -19.72605  -1.16564  -0.63019  -0.47079  -0.40083
 Alpha virt. eigenvalues --    0.04828   0.10350   0.27305   0.30361   0.31644
 Alpha virt. eigenvalues --    0.36307   0.44675   0.51178   0.55979   0.63467
 Alpha virt. eigenvalues --    0.64972   0.81490   0.94016   0.95610   1.05665

 Mulliken charges:
               1
     1  O   -0.429606
     2  H    0.226302
     3  H    0.203304
 Sum of Mulliken charges =   0.00000

 Dipole moment (field-independent basis, Debye):
    X=             -0.0207    Y=             -1.8891    Z=              0.0000  Tot=              1.8892
 Quadrupole moment (field-independent basis, Debye-Ang):
   XX=             -4.2421   YY=             -6.4073   ZZ=             -7.5473
   XY=             -0.1285   XZ=              0.0000   YZ=              0.0000

 1\1\GINC-NODE10\SP\RB2PLYPD3-FC\def2QZVP\H2O1\BOITTIER\26-Aug-2020\0\\
 #p B2PLYPD3/Def2QZVP\\h2o\\0,1\O,0,-5.326605,-0.759978,0.914329\H,0,-4
 .368927,-0.761672,0.941503\H,0,-5.609308,0.105369,0.834087\\Version=ES
 64L-G09RevD.01\State=1-A'\HF=-76.3336829\MP2=-76.4228534\RMSD=5.356e-0
 9\PG=CS [SG(H2O1)]\\@

 SUPPORT THE RIGHT TO ARM BEARS!

 Normal termination of Gaussian 09 at Wed Aug 26 08:41:49 2020.
