 Gaussian 09, Revision D.01,
 Gaussian 09:  ES64L-G09RevD.01 24-Apr-2013

 --------------------
 #p B2PLYPD3/Def2QZVP
 --------------------

 ---
 h2o
 ---
 Symbolic Z-matrix:
 Charge =  0 Multiplicity = 1

                         Standard orientation:
 ---------------------------------------------------------------------
 Center     Atomic      Atomic             Coordinates (Angstroms)
 Number     Number       Type             X           Y           Z
 ---------------------------------------------------------------------
      1          8           0        0.000000    0.120739    0.000000
      2          1           0        0.722956   -0.520107    0.000000
      3          1           0       -0.722956   -0.445807    0.000000
 ---------------------------------------------------------------------

 SCF Done:  E(RB2PLYPD3) =  -76.3331110699     A.U. after   10 cycles
 E2(B2PLYPD3) =    -0.8959818354D-01 E(B2PLYPD3) =    -0.76422709253483D+02

 The electronic state is 1-A'.
 Alpha  occ. eigenvalues --  -19.73020  -1.16856  -0.61199  -0.48500  -0.40214
 Alpha virt. eigenvalues --    0.04592   0.10445   0.27456   0.30357   0.30830
 Alpha virt. eigenvalues --    0.37305   0.44555   0.49724   0.57086   0.61102
 Alpha virt. eigenvalues --    0.65264   0.81647   0.94598   0.95582   1.04065

 Mulliken charges:
               1
     1  O   -0.419392
     2  H    0.221265
     3  H    0.198127
 Sum of Mulliken charges =   0.00000

 Dipole moment (field-independent basis, Debye):
    X=             -0.0265    Y=             -2.0143    Z=              0.0000  Tot=              2.0145
 Quadrupole moment (field-independent basis, Debye-Ang):
   XX=             -4.5556   YY=             -6.1855   ZZ=             -7.5479
   XY=             -0.1129   XZ=              0.0000   YZ=              0.0000

 1\1\GINC-NODE38\SP\RB2PLYPD3-FC\def2QZVP\H2O1\BOITTIER\26-Aug-2020\0\\
 #p B2PLYPD3/Def2QZVP\\h2o\\0,1\O,0,-5.326605,-0.765821,0.925384\H,0,-4
 .368927,-0.643873,0.888907\H,0,-5.609308,0.081057,0.709706\\Version=ES
 64L-G09RevD.01\State=1-A'\HF=-76.3331111\MP2=-76.4227093\RMSD=5.645e-0
 9\PG=CS [SG(H2O1)]\\@

 GOD GAVE US TWO ENDS... ONE TO SIT ON...

 Normal termination of Gaussian 09 at Wed Aug 26 09:03:33 2020.
