 Gaussian 09, Revision D.01,
 Gaussian 09:  ES64L-G09RevD.01 24-Apr-2013

 --------------------
 #p B2PLYPD3/Def2QZVP
 --------------------

 ---
 h2o
 ---
 Symbolic Z-matrix:
 Charge =  0 Multiplicity = 1

                         Standard orientation:
 ---------------------------------------------------------------------
 Center     Atomic      Atomic             Coordinates (Angstroms)
 Number     Number       Type             X           Y           Z
 ---------------------------------------------------------------------
      1          8           0        0.000000    0.116738    0.000000
      2          1           0        0.741341   -0.507340    0.000000
      3          1           0       -0.741341   -0.426561    0.000000
 ---------------------------------------------------------------------

 SCF Done:  E(RB2PLYPD3) =  -76.3337471109     A.U. after   10 cycles
 E2(B2PLYPD3) =    -0.8954737986D-01 E(B2PLYPD3) =    -0.76423294490791D+02

 The electronic state is 1-A'.
 Alpha  occ. eigenvalues --  -19.72920  -1.16516  -0.61771  -0.47839  -0.40121
 Alpha virt. eigenvalues --    0.04647   0.10367   0.27418   0.30371   0.31057
 Alpha virt. eigenvalues --    0.36745   0.44483   0.50215   0.56561   0.62028
 Alpha virt. eigenvalues --    0.65252   0.81542   0.94145   0.95670   1.04334

 Mulliken charges:
               1
     1  O   -0.427177
     2  H    0.225744
     3  H    0.201433
 Sum of Mulliken charges =   0.00000

 Dipole moment (field-independent basis, Debye):
    X=             -0.0260    Y=             -1.9663    Z=              0.0000  Tot=              1.9665
 Quadrupole moment (field-independent basis, Debye-Ang):
   XX=             -4.4143   YY=             -6.2811   ZZ=             -7.5575
   XY=             -0.1294   XZ=              0.0000   YZ=              0.0000

 1\1\GINC-NODE36\SP\RB2PLYPD3-FC\def2QZVP\H2O1\BOITTIER\26-Aug-2020\0\\
 #p B2PLYPD3/Def2QZVP\\h2o\\0,1\O,0,-5.326605,-0.760045,0.933656\H,0,-4
 .368927,-0.732158,0.788275\H,0,-5.609308,0.076924,0.680038\\Version=ES
 64L-G09RevD.01\State=1-A'\HF=-76.3337471\MP2=-76.4232945\RMSD=5.457e-0
 9\PG=CS [SG(H2O1)]\\@

 YOU SHOULDN'T LET PEOPLE DRIVE YOU CRAZY

 Normal termination of Gaussian 09 at Wed Aug 26 09:28:30 2020.
