 Gaussian 09, Revision D.01,
 Gaussian 09:  ES64L-G09RevD.01 24-Apr-2013

 --------------------
 #p B2PLYPD3/Def2QZVP
 --------------------

 ---
 h2o
 ---
 Symbolic Z-matrix:
 Charge =  0 Multiplicity = 1

                         Standard orientation:
 ---------------------------------------------------------------------
 Center     Atomic      Atomic             Coordinates (Angstroms)
 Number     Number       Type             X           Y           Z
 ---------------------------------------------------------------------
      1          8           0        0.000000    0.119340    0.000000
      2          1           0        0.742800   -0.490827    0.000000
      3          1           0       -0.742800   -0.463890    0.000000
 ---------------------------------------------------------------------

 SCF Done:  E(RB2PLYPD3) =  -76.3348838598     A.U. after   10 cycles
 E2(B2PLYPD3) =    -0.8987067261D-01 E(B2PLYPD3) =    -0.76424754532431D+02

 The electronic state is 1-A'.
 Alpha  occ. eigenvalues --  -19.73123  -1.16127  -0.61130  -0.47960  -0.40070
 Alpha virt. eigenvalues --    0.04553   0.10304   0.27510   0.30390   0.30890
 Alpha virt. eigenvalues --    0.36522   0.44161   0.49934   0.56663   0.61594
 Alpha virt. eigenvalues --    0.65526   0.81395   0.94231   0.95779   1.03833

 Mulliken charges:
               1
     1  O   -0.433673
     2  H    0.220697
     3  H    0.212976
 Sum of Mulliken charges =   0.00000

 Dipole moment (field-independent basis, Debye):
    X=             -0.0090    Y=             -1.9905    Z=              0.0000  Tot=              1.9906
 Quadrupole moment (field-independent basis, Debye-Ang):
   XX=             -4.4438   YY=             -6.2576   ZZ=             -7.5760
   XY=             -0.0426   XZ=              0.0000   YZ=              0.0000

 1\1\GINC-NODE20\SP\RB2PLYPD3-FC\def2QZVP\H2O1\BOITTIER\26-Aug-2020\0\\
 #p B2PLYPD3/Def2QZVP\\h2o\\0,1\O,0,-5.326605,-0.765361,0.923319\H,0,-4
 .368927,-0.684803,0.902875\H,0,-5.609308,0.114615,0.729335\\Version=ES
 64L-G09RevD.01\State=1-A'\HF=-76.3348839\MP2=-76.4247545\RMSD=4.505e-0
 9\PG=CS [SG(H2O1)]\\@

 TO DETECT ERRORS, THE PROGRAMMER MUST HAVE A CONNIVING MIND,

 Normal termination of Gaussian 09 at Wed Aug 26 10:16:39 2020.
