 Gaussian 09, Revision D.01,
 Gaussian 09:  ES64L-G09RevD.01 24-Apr-2013

 --------------------
 #p B2PLYPD3/Def2QZVP
 --------------------

 ---
 h2o
 ---
 Symbolic Z-matrix:
 Charge =  0 Multiplicity = 1

                         Standard orientation:
 ---------------------------------------------------------------------
 Center     Atomic      Atomic             Coordinates (Angstroms)
 Number     Number       Type             X           Y           Z
 ---------------------------------------------------------------------
      1          8           0        0.000000    0.114325    0.000000
      2          1           0        0.759201   -0.470020    0.000000
      3          1           0       -0.759201   -0.444578    0.000000
 ---------------------------------------------------------------------

 SCF Done:  E(RB2PLYPD3) =  -76.3351765445     A.U. after   10 cycles
 E2(B2PLYPD3) =    -0.8968358434D-01 E(B2PLYPD3) =    -0.76424860128872D+02

 The electronic state is 1-A'.
 Alpha  occ. eigenvalues --  -19.72938  -1.15979  -0.61922  -0.47308  -0.40004
 Alpha virt. eigenvalues --    0.04652   0.10261   0.27437   0.30395   0.31273
 Alpha virt. eigenvalues --    0.36041   0.44212   0.50600   0.56150   0.62672
 Alpha virt. eigenvalues --    0.65391   0.81281   0.93926   0.95797   1.04730

 Mulliken charges:
               1
     1  O   -0.439219
     2  H    0.223220
     3  H    0.215999
 Sum of Mulliken charges =   0.00000

 Dipole moment (field-independent basis, Debye):
    X=             -0.0075    Y=             -1.9335    Z=              0.0000  Tot=              1.9335
 Quadrupole moment (field-independent basis, Debye-Ang):
   XX=             -4.2962   YY=             -6.3612   ZZ=             -7.5770
   XY=             -0.0425   XZ=              0.0000   YZ=              0.0000

 1\1\GINC-NODE14\SP\RB2PLYPD3-FC\def2QZVP\H2O1\BOITTIER\26-Aug-2020\0\\
 #p B2PLYPD3/Def2QZVP\\h2o\\0,1\O,0,-5.326605,-0.762794,0.918309\H,0,-4
 .368927,-0.737915,0.927209\H,0,-5.609308,0.126656,0.785206\\Version=ES
 64L-G09RevD.01\State=1-A'\HF=-76.3351765\MP2=-76.4248601\RMSD=4.181e-0
 9\PG=CS [SG(H2O1)]\\@

 THERE'S NOTHING WRONG WITH FOLLOWING A TRAIN OF THOUGHT...

 Normal termination of Gaussian 09 at Wed Aug 26 10:19:35 2020.
