 Gaussian 09, Revision D.01,
 Gaussian 09:  ES64L-G09RevD.01 24-Apr-2013

 --------------------
 #p B2PLYPD3/Def2QZVP
 --------------------

 ---
 h2o
 ---
 Symbolic Z-matrix:
 Charge =  0 Multiplicity = 1

                         Standard orientation:
 ---------------------------------------------------------------------
 Center     Atomic      Atomic             Coordinates (Angstroms)
 Number     Number       Type             X           Y           Z
 ---------------------------------------------------------------------
      1          8           0        0.000000    0.123025    0.000000
      2          1           0        0.785972   -0.424839    0.000000
      3          1           0       -0.785972   -0.559361    0.000000
 ---------------------------------------------------------------------

 SCF Done:  E(RB2PLYPD3) =  -76.3283232711     A.U. after   10 cycles
 E2(B2PLYPD3) =    -0.9137532196D-01 E(B2PLYPD3) =    -0.76419698593007D+02

 The electronic state is 1-A'.
 Alpha  occ. eigenvalues --  -19.73747  -1.14014  -0.59406  -0.46989  -0.39661
 Alpha virt. eigenvalues --    0.03954   0.09821   0.27739   0.29588   0.30499
 Alpha virt. eigenvalues --    0.34548   0.43076   0.49770   0.55743   0.61742
 Alpha virt. eigenvalues --    0.66534   0.80075   0.91932   0.96708   1.00818

 Mulliken charges:
               1
     1  O   -0.466530
     2  H    0.218716
     3  H    0.247814
 Sum of Mulliken charges =   0.00000

 Dipole moment (field-independent basis, Debye):
    X=              0.0428    Y=             -1.9967    Z=              0.0000  Tot=              1.9972
 Quadrupole moment (field-independent basis, Debye-Ang):
   XX=             -4.2839   YY=             -6.3106   ZZ=             -7.6823
   XY=              0.2235   XZ=              0.0000   YZ=              0.0000

 1\1\GINC-NODE01\SP\RB2PLYPD3-FC\def2QZVP\H2O1\BOITTIER\26-Aug-2020\0\\
 #p B2PLYPD3/Def2QZVP\\h2o\\0,1\O,0,-5.326605,-0.768002,0.922845\H,0,-4
 .368927,-0.740445,0.923722\H,0,-5.609308,0.212514,0.717734\\Version=ES
 64L-G09RevD.01\State=1-A'\HF=-76.3283233\MP2=-76.4196986\RMSD=5.939e-0
 9\PG=CS [SG(H2O1)]\\@

 GOD GAVE US TWO ENDS... ONE TO SIT ON...

 Normal termination of Gaussian 09 at Wed Aug 26 08:34:16 2020.
