 Gaussian 09, Revision D.01,
 Gaussian 09:  ES64L-G09RevD.01 24-Apr-2013

 --------------------
 #p B2PLYPD3/Def2QZVP
 --------------------

 ---
 h2o
 ---
 Symbolic Z-matrix:
 Charge =  0 Multiplicity = 1

                         Standard orientation:
 ---------------------------------------------------------------------
 Center     Atomic      Atomic             Coordinates (Angstroms)
 Number     Number       Type             X           Y           Z
 ---------------------------------------------------------------------
      1          8           0        0.000000    0.119745    0.000000
      2          1           0        0.775964   -0.456225    0.000000
      3          1           0       -0.775964   -0.501735    0.000000
 ---------------------------------------------------------------------

 SCF Done:  E(RB2PLYPD3) =  -76.3332394610     A.U. after   10 cycles
 E2(B2PLYPD3) =    -0.9070616188D-01 E(B2PLYPD3) =    -0.76423945622920D+02

 The electronic state is 1-A'.
 Alpha  occ. eigenvalues --  -19.73462  -1.14695  -0.60320  -0.47160  -0.39787
 Alpha virt. eigenvalues --    0.04281   0.09997   0.27644   0.30464   0.30496
 Alpha virt. eigenvalues --    0.34983   0.43407   0.50071   0.55970   0.62029
 Alpha virt. eigenvalues --    0.66158   0.80584   0.93089   0.96351   1.02283

 Mulliken charges:
               1
     1  O   -0.458686
     2  H    0.223884
     3  H    0.234802
 Sum of Mulliken charges =   0.00000

 Dipole moment (field-independent basis, Debye):
    X=              0.0141    Y=             -1.9746    Z=              0.0000  Tot=              1.9747
 Quadrupole moment (field-independent basis, Debye-Ang):
   XX=             -4.2886   YY=             -6.3376   ZZ=             -7.6422
   XY=              0.0757   XZ=              0.0000   YZ=              0.0000

 1\1\GINC-NODE36\SP\RB2PLYPD3-FC\def2QZVP\H2O1\BOITTIER\26-Aug-2020\0\\
 #p B2PLYPD3/Def2QZVP\\h2o\\0,1\O,0,-5.326605,-0.766859,0.908258\H,0,-4
 .368927,-0.730042,1.032193\H,0,-5.609308,0.183831,0.840242\\Version=ES
 64L-G09RevD.01\State=1-A'\HF=-76.3332395\MP2=-76.4239456\RMSD=4.255e-0
 9\PG=CS [SG(H2O1)]\\@

 CHILDREN YOU ARE VERY LITTLE,

 Normal termination of Gaussian 09 at Wed Aug 26 08:57:00 2020.
