 Gaussian 09, Revision D.01,
 Gaussian 09:  ES64L-G09RevD.01 24-Apr-2013

 --------------------
 #p B2PLYPD3/Def2QZVP
 --------------------

 ---
 h2o
 ---
 Symbolic Z-matrix:
 Charge =  0 Multiplicity = 1

                         Standard orientation:
 ---------------------------------------------------------------------
 Center     Atomic      Atomic             Coordinates (Angstroms)
 Number     Number       Type             X           Y           Z
 ---------------------------------------------------------------------
      1          8           0        0.000000    0.118194    0.000000
      2          1           0        0.743477   -0.498850    0.000000
      3          1           0       -0.743477   -0.446706    0.000000
 ---------------------------------------------------------------------

 SCF Done:  E(RB2PLYPD3) =  -76.3345750154     A.U. after   10 cycles
 E2(B2PLYPD3) =    -0.8975633192D-01 E(B2PLYPD3) =    -0.76424331347360D+02

 The electronic state is 1-A'.
 Alpha  occ. eigenvalues --  -19.73048  -1.16238  -0.61383  -0.47877  -0.40081
 Alpha virt. eigenvalues --    0.04588   0.10321   0.27476   0.30384   0.30962
 Alpha virt. eigenvalues --    0.36565   0.44267   0.50062   0.56595   0.61801
 Alpha virt. eigenvalues --    0.65430   0.81436   0.94170   0.95746   1.04041

 Mulliken charges:
               1
     1  O   -0.432040
     2  H    0.223603
     3  H    0.208436
 Sum of Mulliken charges =   0.00000

 Dipole moment (field-independent basis, Debye):
    X=             -0.0171    Y=             -1.9792    Z=              0.0000  Tot=              1.9793
 Quadrupole moment (field-independent basis, Debye-Ang):
   XX=             -4.4245   YY=             -6.2719   ZZ=             -7.5703
   XY=             -0.0832   XZ=              0.0000   YZ=              0.0000

 1\1\GINC-NODE35\SP\RB2PLYPD3-FC\def2QZVP\H2O1\BOITTIER\26-Aug-2020\0\\
 #p B2PLYPD3/Def2QZVP\\h2o\\0,1\O,0,-5.326605,-0.761804,0.932092\H,0,-4
 .368927,-0.71924,0.811498\H,0,-5.609308,0.092146,0.681654\\Version=ES6
 4L-G09RevD.01\State=1-A'\HF=-76.334575\MP2=-76.4243313\RMSD=4.838e-09\
 PG=CS [SG(H2O1)]\\@

 If fifty million people say a stupid thing,

 Normal termination of Gaussian 09 at Wed Aug 26 07:55:49 2020.
