 Gaussian 09, Revision D.01,
 Gaussian 09:  ES64L-G09RevD.01 24-Apr-2013

 --------------------
 #p B2PLYPD3/Def2QZVP
 --------------------

 ---
 h2o
 ---
 Symbolic Z-matrix:
 Charge =  0 Multiplicity = 1

                         Standard orientation:
 ---------------------------------------------------------------------
 Center     Atomic      Atomic             Coordinates (Angstroms)
 Number     Number       Type             X           Y           Z
 ---------------------------------------------------------------------
      1          8           0        0.000000    0.115618    0.000000
      2          1           0        0.704646   -0.547237    0.000000
      3          1           0       -0.704646   -0.377709    0.000000
 ---------------------------------------------------------------------

 SCF Done:  E(RB2PLYPD3) =  -76.3239891158     A.U. after   10 cycles
 E2(B2PLYPD3) =    -0.8864376319D-01 E(B2PLYPD3) =    -0.76412632878957D+02

 The electronic state is 1-A'.
 Alpha  occ. eigenvalues --  -19.72429  -1.18451  -0.62819  -0.48588  -0.40453
 Alpha virt. eigenvalues --    0.04815   0.10676   0.27159   0.30284   0.31133
 Alpha virt. eigenvalues --    0.38246   0.45743   0.50179   0.57095   0.61756
 Alpha virt. eigenvalues --    0.64469   0.82126   0.94239   0.95385   1.05129

 Mulliken charges:
               1
     1  O   -0.386260
     2  H    0.224791
     3  H    0.161469
 Sum of Mulliken charges =   0.00000

 Dipole moment (field-independent basis, Debye):
    X=             -0.0582    Y=             -1.9739    Z=              0.0000  Tot=              1.9748
 Quadrupole moment (field-independent basis, Debye-Ang):
   XX=             -4.5654   YY=             -6.1814   ZZ=             -7.4815
   XY=             -0.2575   XZ=              0.0000   YZ=              0.0000

 1\1\GINC-NODE36\SP\RB2PLYPD3-FC\def2QZVP\H2O1\BOITTIER\26-Aug-2020\0\\
 #p B2PLYPD3/Def2QZVP\\h2o\\0,1\O,0,-5.326605,-0.761413,0.928032\H,0,-4
 .368927,-0.656034,0.840561\H,0,-5.609308,0.022688,0.715517\\Version=ES
 64L-G09RevD.01\State=1-A'\HF=-76.3239891\MP2=-76.4126329\RMSD=6.682e-0
 9\PG=CS [SG(H2O1)]\\@

 The arm of the moral universe is long, but it bends toward justice.

 Normal termination of Gaussian 09 at Wed Aug 26 08:58:17 2020.
