 Gaussian 09, Revision D.01,
 Gaussian 09:  ES64L-G09RevD.01 24-Apr-2013

 --------------------
 #p B2PLYPD3/Def2QZVP
 --------------------

 ---
 h2o
 ---
 Symbolic Z-matrix:
 Charge =  0 Multiplicity = 1

                         Standard orientation:
 ---------------------------------------------------------------------
 Center     Atomic      Atomic             Coordinates (Angstroms)
 Number     Number       Type             X           Y           Z
 ---------------------------------------------------------------------
      1          8           0        0.000000    0.118183    0.000000
      2          1           0        0.760683   -0.466448    0.000000
      3          1           0       -0.760683   -0.479018    0.000000
 ---------------------------------------------------------------------

 SCF Done:  E(RB2PLYPD3) =  -76.3349038266     A.U. after   10 cycles
 E2(B2PLYPD3) =    -0.9015304501D-01 E(B2PLYPD3) =    -0.76425056871630D+02

 The electronic state is 1-A'.
 Alpha  occ. eigenvalues --  -19.73217  -1.15489  -0.61009  -0.47466  -0.39936
 Alpha virt. eigenvalues --    0.04480   0.10171   0.27549   0.30422   0.30864
 Alpha virt. eigenvalues --    0.35762   0.43849   0.50156   0.56254   0.62049
 Alpha virt. eigenvalues --    0.65753   0.81062   0.93733   0.96018   1.03455

 Mulliken charges:
               1
     1  O   -0.445887
     2  H    0.221273
     3  H    0.224615
 Sum of Mulliken charges =   0.00000

 Dipole moment (field-independent basis, Debye):
    X=              0.0040    Y=             -1.9693    Z=              0.0000  Tot=              1.9694
 Quadrupole moment (field-independent basis, Debye-Ang):
   XX=             -4.3419   YY=             -6.3188   ZZ=             -7.6032
   XY=              0.0206   XZ=              0.0000   YZ=              0.0000

 1\1\GINC-NODE21\SP\RB2PLYPD3-FC\def2QZVP\H2O1\BOITTIER\26-Aug-2020\0\\
 #p B2PLYPD3/Def2QZVP\\h2o\\0,1\O,0,-5.326605,-0.765492,0.917972\H,0,-4
 .368927,-0.715754,0.946451\H,0,-5.609308,0.147664,0.7713\\Version=ES64
 L-G09RevD.01\State=1-A'\HF=-76.3349038\MP2=-76.4250569\RMSD=4.080e-09\
 PG=CS [SG(H2O1)]\\@

 AND ALL THIS SCIENCE I DON'T UNDERSTAND

 Normal termination of Gaussian 09 at Wed Aug 26 10:01:19 2020.
