 Gaussian 09, Revision D.01,
 Gaussian 09:  ES64L-G09RevD.01 24-Apr-2013

 --------------------
 #p B2PLYPD3/Def2QZVP
 --------------------

 ---
 h2o
 ---
 Symbolic Z-matrix:
 Charge =  0 Multiplicity = 1

                         Standard orientation:
 ---------------------------------------------------------------------
 Center     Atomic      Atomic             Coordinates (Angstroms)
 Number     Number       Type             X           Y           Z
 ---------------------------------------------------------------------
      1          8           0        0.000000    0.113382    0.000000
      2          1           0        0.756093   -0.475084    0.000000
      3          1           0       -0.756093   -0.431976    0.000000
 ---------------------------------------------------------------------

 SCF Done:  E(RB2PLYPD3) =  -76.3348930221     A.U. after   10 cycles
 E2(B2PLYPD3) =    -0.8950923069D-01 E(B2PLYPD3) =    -0.76424402252777D+02

 The electronic state is 1-A'.
 Alpha  occ. eigenvalues --  -19.72842  -1.16224  -0.62214  -0.47329  -0.40045
 Alpha virt. eigenvalues --    0.04708   0.10304   0.27397   0.30382   0.31369
 Alpha virt. eigenvalues --    0.36235   0.44376   0.50695   0.56172   0.62791
 Alpha virt. eigenvalues --    0.65250   0.81396   0.94015   0.95704   1.05055

 Mulliken charges:
               1
     1  O   -0.434935
     2  H    0.223771
     3  H    0.211164
 Sum of Mulliken charges =   0.00000

 Dipole moment (field-independent basis, Debye):
    X=             -0.0127    Y=             -1.9261    Z=              0.0000  Tot=              1.9261
 Quadrupole moment (field-independent basis, Debye-Ang):
   XX=             -4.2985   YY=             -6.3633   ZZ=             -7.5653
   XY=             -0.0719   XZ=              0.0000   YZ=              0.0000

 1\1\GINC-NODE21\SP\RB2PLYPD3-FC\def2QZVP\H2O1\BOITTIER\26-Aug-2020\0\\
 #p B2PLYPD3/Def2QZVP\\h2o\\0,1\O,0,-5.326605,-0.762263,0.91731\H,0,-4.
 368927,-0.737557,0.931825\H,0,-5.609308,0.117814,0.796336\\Version=ES6
 4L-G09RevD.01\State=1-A'\HF=-76.334893\MP2=-76.4244023\RMSD=4.513e-09\
 PG=CS [SG(H2O1)]\\@

 CONFIDENCE IS WHAT YOU FEEL BEFORE YOU FULLY

 Normal termination of Gaussian 09 at Wed Aug 26 08:30:43 2020.
