 Gaussian 09, Revision D.01,
 Gaussian 09:  ES64L-G09RevD.01 24-Apr-2013

 --------------------
 #p B2PLYPD3/Def2QZVP
 --------------------

 ---
 h2o
 ---
 Symbolic Z-matrix:
 Charge =  0 Multiplicity = 1

                         Standard orientation:
 ---------------------------------------------------------------------
 Center     Atomic      Atomic             Coordinates (Angstroms)
 Number     Number       Type             X           Y           Z
 ---------------------------------------------------------------------
      1          8           0        0.000000    0.114756    0.000000
      2          1           0        0.756152   -0.473838    0.000000
      3          1           0       -0.756152   -0.444212    0.000000
 ---------------------------------------------------------------------

 SCF Done:  E(RB2PLYPD3) =  -76.3351324345     A.U. after   10 cycles
 E2(B2PLYPD3) =    -0.8965909239D-01 E(B2PLYPD3) =    -0.76424791526884D+02

 The electronic state is 1-A'.
 Alpha  occ. eigenvalues --  -19.72938  -1.16066  -0.61896  -0.47403  -0.40024
 Alpha virt. eigenvalues --    0.04655   0.10279   0.27436   0.30391   0.31248
 Alpha virt. eigenvalues --    0.36165   0.44249   0.50527   0.56226   0.62553
 Alpha virt. eigenvalues --    0.65371   0.81336   0.93989   0.95764   1.04703

 Mulliken charges:
               1
     1  O   -0.437301
     2  H    0.222896
     3  H    0.214406
 Sum of Mulliken charges =   0.00000

 Dipole moment (field-independent basis, Debye):
    X=             -0.0089    Y=             -1.9394    Z=              0.0000  Tot=              1.9394
 Quadrupole moment (field-independent basis, Debye-Ang):
   XX=             -4.3168   YY=             -6.3478   ZZ=             -7.5736
   XY=             -0.0491   XZ=              0.0000   YZ=              0.0000

 1\1\GINC-NODE08\SP\RB2PLYPD3-FC\def2QZVP\H2O1\BOITTIER\26-Aug-2020\0\\
 #p B2PLYPD3/Def2QZVP\\h2o\\0,1\O,0,-5.326605,-0.763003,0.918947\H,0,-4
 .368927,-0.730717,0.923375\H,0,-5.609308,0.122802,0.778803\\Version=ES
 64L-G09RevD.01\State=1-A'\HF=-76.3351324\MP2=-76.4247915\RMSD=4.281e-0
 9\PG=CS [SG(H2O1)]\\@

 We make a living by what we get,

 Normal termination of Gaussian 09 at Wed Aug 26 08:32:28 2020.
