 Gaussian 09, Revision D.01,
 Gaussian 09:  ES64L-G09RevD.01 24-Apr-2013

 --------------------
 #p B2PLYPD3/Def2QZVP
 --------------------

 ---
 h2o
 ---
 Symbolic Z-matrix:
 Charge =  0 Multiplicity = 1

                         Standard orientation:
 ---------------------------------------------------------------------
 Center     Atomic      Atomic             Coordinates (Angstroms)
 Number     Number       Type             X           Y           Z
 ---------------------------------------------------------------------
      1          8           0        0.000000    0.116739    0.000000
      2          1           0        0.754716   -0.475757    0.000000
      3          1           0       -0.754716   -0.458155    0.000000
 ---------------------------------------------------------------------

 SCF Done:  E(RB2PLYPD3) =  -76.3351813108     A.U. after   10 cycles
 E2(B2PLYPD3) =    -0.8984634183D-01 E(B2PLYPD3) =    -0.76425027652615D+02

 The electronic state is 1-A'.
 Alpha  occ. eigenvalues --  -19.73060  -1.15906  -0.61472  -0.47540  -0.40008
 Alpha virt. eigenvalues --    0.04585   0.10254   0.27485   0.30400   0.31067
 Alpha virt. eigenvalues --    0.36126   0.44108   0.50284   0.56329   0.62197
 Alpha virt. eigenvalues --    0.65518   0.81276   0.93972   0.95837   1.04167

 Mulliken charges:
               1
     1  O   -0.439204
     2  H    0.222069
     3  H    0.217134
 Sum of Mulliken charges =   0.00000

 Dipole moment (field-independent basis, Debye):
    X=             -0.0055    Y=             -1.9592    Z=              0.0000  Tot=              1.9592
 Quadrupole moment (field-independent basis, Debye-Ang):
   XX=             -4.3509   YY=             -6.3206   ZZ=             -7.5828
   XY=             -0.0288   XZ=              0.0000   YZ=              0.0000

 1\1\GINC-NODE05\SP\RB2PLYPD3-FC\def2QZVP\H2O1\BOITTIER\26-Aug-2020\0\\
 #p B2PLYPD3/Def2QZVP\\h2o\\0,1\O,0,-5.326605,-0.763216,0.92474\H,0,-4.
 368927,-0.726068,0.878696\H,0,-5.609308,0.121565,0.731505\\Version=ES6
 4L-G09RevD.01\State=1-A'\HF=-76.3351813\MP2=-76.4250277\RMSD=4.187e-09
 \PG=CS [SG(H2O1)]\\@

 A politician is a person who can make waves and then

 Normal termination of Gaussian 09 at Wed Aug 26 10:39:41 2020.
