 Gaussian 09, Revision D.01,
 Gaussian 09:  ES64L-G09RevD.01 24-Apr-2013

 --------------------
 #p B2PLYPD3/Def2QZVP
 --------------------

 ---
 h2o
 ---
 Symbolic Z-matrix:
 Charge =  0 Multiplicity = 1

                         Standard orientation:
 ---------------------------------------------------------------------
 Center     Atomic      Atomic             Coordinates (Angstroms)
 Number     Number       Type             X           Y           Z
 ---------------------------------------------------------------------
      1          8           0        0.000000    0.117249    0.000000
      2          1           0        0.749232   -0.485467    0.000000
      3          1           0       -0.749232   -0.452521    0.000000
 ---------------------------------------------------------------------

 SCF Done:  E(RB2PLYPD3) =  -76.3350071643     A.U. after   10 cycles
 E2(B2PLYPD3) =    -0.8977738535D-01 E(B2PLYPD3) =    -0.76424784549603D+02

 The electronic state is 1-A'.
 Alpha  occ. eigenvalues --  -19.73041  -1.16089  -0.61478  -0.47697  -0.40047
 Alpha virt. eigenvalues --    0.04598   0.10291   0.27476   0.30391   0.31044
 Alpha virt. eigenvalues --    0.36355   0.44199   0.50195   0.56455   0.62034
 Alpha virt. eigenvalues --    0.65459   0.81371   0.94090   0.95775   1.04189

 Mulliken charges:
               1
     1  O   -0.435453
     2  H    0.222443
     3  H    0.213010
 Sum of Mulliken charges =   0.00000

 Dipole moment (field-independent basis, Debye):
    X=             -0.0105    Y=             -1.9671    Z=              0.0000  Tot=              1.9672
 Quadrupole moment (field-independent basis, Debye-Ang):
   XX=             -4.3842   YY=             -6.2995   ZZ=             -7.5754
   XY=             -0.0533   XZ=              0.0000   YZ=              0.0000

 1\1\GINC-NODE20\SP\RB2PLYPD3-FC\def2QZVP\H2O1\BOITTIER\26-Aug-2020\0\\
 #p B2PLYPD3/Def2QZVP\\h2o\\0,1\O,0,-5.326605,-0.762722,0.927703\H,0,-4
 .368927,-0.720941,0.852058\H,0,-5.609308,0.108529,0.710939\\Version=ES
 64L-G09RevD.01\State=1-A'\HF=-76.3350072\MP2=-76.4247845\RMSD=4.438e-0
 9\PG=CS [SG(H2O1)]\\@

 WOMEN HOLD UP HALF THE SKY. -- MAO TSE TUNG

 Normal termination of Gaussian 09 at Wed Aug 26 12:28:50 2020.
