 Gaussian 09, Revision D.01,
 Gaussian 09:  ES64L-G09RevD.01 24-Apr-2013

 --------------------
 #p B2PLYPD3/Def2QZVP
 --------------------

 ---
 h2o
 ---
 Symbolic Z-matrix:
 Charge =  0 Multiplicity = 1

                         Standard orientation:
 ---------------------------------------------------------------------
 Center     Atomic      Atomic             Coordinates (Angstroms)
 Number     Number       Type             X           Y           Z
 ---------------------------------------------------------------------
      1          8           0        0.000000    0.118948    0.000000
      2          1           0        0.752828   -0.476770    0.000000
      3          1           0       -0.752828   -0.474814    0.000000
 ---------------------------------------------------------------------

 SCF Done:  E(RB2PLYPD3) =  -76.3350218096     A.U. after   10 cycles
 E2(B2PLYPD3) =    -0.9005622909D-01 E(B2PLYPD3) =    -0.76425078038638D+02

 The electronic state is 1-A'.
 Alpha  occ. eigenvalues --  -19.73194  -1.15737  -0.61007  -0.47696  -0.39991
 Alpha virt. eigenvalues --    0.04505   0.10224   0.27540   0.30409   0.30857
 Alpha virt. eigenvalues --    0.36081   0.43960   0.50025   0.56444   0.61805
 Alpha virt. eigenvalues --    0.65677   0.81207   0.93957   0.95924   1.03557

 Mulliken charges:
               1
     1  O   -0.440955
     2  H    0.220745
     3  H    0.220210
 Sum of Mulliken charges =   0.00000

 Dipole moment (field-independent basis, Debye):
    X=             -0.0006    Y=             -1.9811    Z=              0.0000  Tot=              1.9811
 Quadrupole moment (field-independent basis, Debye-Ang):
   XX=             -4.3905   YY=             -6.2891   ZZ=             -7.5927
   XY=             -0.0032   XZ=              0.0000   YZ=              0.0000

 1\1\GINC-NODE21\SP\RB2PLYPD3-FC\def2QZVP\H2O1\BOITTIER\26-Aug-2020\0\\
 #p B2PLYPD3/Def2QZVP\\h2o\\0,1\O,0,-5.326605,-0.764773,0.924687\H,0,-4
 .368927,-0.708365,0.888621\H,0,-5.609308,0.128772,0.722303\\Version=ES
 64L-G09RevD.01\State=1-A'\HF=-76.3350218\MP2=-76.425078\RMSD=4.186e-09
 \PG=CS [SG(H2O1)]\\@

 When cryptography is outlawed, bayl bhgynjf jvyy unir cevinpl.

 Normal termination of Gaussian 09 at Wed Aug 26 10:51:32 2020.
