 Gaussian 09, Revision D.01,
 Gaussian 09:  ES64L-G09RevD.01 24-Apr-2013

 --------------------
 #p B2PLYPD3/Def2QZVP
 --------------------

 ---
 h2o
 ---
 Symbolic Z-matrix:
 Charge =  0 Multiplicity = 1

                         Standard orientation:
 ---------------------------------------------------------------------
 Center     Atomic      Atomic             Coordinates (Angstroms)
 Number     Number       Type             X           Y           Z
 ---------------------------------------------------------------------
      1          8           0        0.000000    0.117466    0.000000
      2          1           0        0.765026   -0.463131    0.000000
      3          1           0       -0.765026   -0.476594    0.000000
 ---------------------------------------------------------------------

 SCF Done:  E(RB2PLYPD3) =  -76.3348530233     A.U. after   10 cycles
 E2(B2PLYPD3) =    -0.9017426083D-01 E(B2PLYPD3) =    -0.76425027284145D+02

 The electronic state is 1-A'.
 Alpha  occ. eigenvalues --  -19.73209  -1.15384  -0.61072  -0.47325  -0.39909
 Alpha virt. eigenvalues --    0.04478   0.10148   0.27546   0.30427   0.30902
 Alpha virt. eigenvalues --    0.35601   0.43811   0.50266   0.56139   0.62232
 Alpha virt. eigenvalues --    0.65769   0.80989   0.93628   0.96056   1.03498

 Mulliken charges:
               1
     1  O   -0.448275
     2  H    0.222369
     3  H    0.225907
 Sum of Mulliken charges =   0.00000

 Dipole moment (field-independent basis, Debye):
    X=              0.0041    Y=             -1.9600    Z=              0.0000  Tot=              1.9600
 Quadrupole moment (field-independent basis, Debye-Ang):
   XX=             -4.3109   YY=             -6.3388   ZZ=             -7.6072
   XY=              0.0223   XZ=              0.0000   YZ=              0.0000

 1\1\GINC-NODE29\SP\RB2PLYPD3-FC\def2QZVP\H2O1\BOITTIER\26-Aug-2020\0\\
 #p B2PLYPD3/Def2QZVP\\h2o\\0,1\O,0,-5.326605,-0.765324,0.91436\H,0,-4.
 368927,-0.724911,0.974164\H,0,-5.609308,0.154141,0.801071\\Version=ES6
 4L-G09RevD.01\State=1-A'\HF=-76.334853\MP2=-76.4250273\RMSD=4.014e-09\
 PG=CS [SG(H2O1)]\\@

 NOT WHAT WE DID SHALL BE THE TEST

 Normal termination of Gaussian 09 at Wed Aug 26 12:20:55 2020.
