 Gaussian 09, Revision D.01,
 Gaussian 09:  ES64L-G09RevD.01 24-Apr-2013

 --------------------
 #p B2PLYPD3/Def2QZVP
 --------------------

 ---
 h2o
 ---
 Symbolic Z-matrix:
 Charge =  0 Multiplicity = 1

                         Standard orientation:
 ---------------------------------------------------------------------
 Center     Atomic      Atomic             Coordinates (Angstroms)
 Number     Number       Type             X           Y           Z
 ---------------------------------------------------------------------
      1          8           0        0.000000    0.117879    0.000000
      2          1           0        0.774646   -0.446267    0.000000
      3          1           0       -0.774646   -0.496767    0.000000
 ---------------------------------------------------------------------

 SCF Done:  E(RB2PLYPD3) =  -76.3338041972     A.U. after   10 cycles
 E2(B2PLYPD3) =    -0.9045917719D-01 E(B2PLYPD3) =    -0.76424263374430D+02

 The electronic state is 1-A'.
 Alpha  occ. eigenvalues --  -19.73324  -1.14947  -0.60758  -0.47101  -0.39821
 Alpha virt. eigenvalues --    0.04371   0.10052   0.27588   0.30451   0.30707
 Alpha virt. eigenvalues --    0.35151   0.43584   0.50285   0.55937   0.62319
 Alpha virt. eigenvalues --    0.65971   0.80703   0.93219   0.96256   1.02840

 Mulliken charges:
               1
     1  O   -0.455688
     2  H    0.221568
     3  H    0.234120
 Sum of Mulliken charges =   0.00000

 Dipole moment (field-independent basis, Debye):
    X=              0.0153    Y=             -1.9579    Z=              0.0000  Tot=              1.9580
 Quadrupole moment (field-independent basis, Debye-Ang):
   XX=             -4.2691   YY=             -6.3570   ZZ=             -7.6287
   XY=              0.0847   XZ=              0.0000   YZ=              0.0000

 1\1\GINC-NODE31\SP\RB2PLYPD3-FC\def2QZVP\H2O1\BOITTIER\26-Aug-2020\0\\
 #p B2PLYPD3/Def2QZVP\\h2o\\0,1\O,0,-5.326605,-0.765269,0.918127\H,0,-4
 .368927,-0.742603,0.944137\H,0,-5.609308,0.170952,0.77172\\Version=ES6
 4L-G09RevD.01\State=1-A'\HF=-76.3338042\MP2=-76.4242634\RMSD=4.364e-09
 \PG=CS [SG(H2O1)]\\@

 GARLIC THEN HAVE POWER TO SAVE FROM DEATH

 Normal termination of Gaussian 09 at Wed Aug 26 12:09:30 2020.
