 Gaussian 09, Revision D.01,
 Gaussian 09:  ES64L-G09RevD.01 24-Apr-2013

 --------------------
 #p B2PLYPD3/Def2QZVP
 --------------------

 ---
 h2o
 ---
 Symbolic Z-matrix:
 Charge =  0 Multiplicity = 1

                         Standard orientation:
 ---------------------------------------------------------------------
 Center     Atomic      Atomic             Coordinates (Angstroms)
 Number     Number       Type             X           Y           Z
 ---------------------------------------------------------------------
      1          8           0        0.000000    0.115892    0.000000
      2          1           0        0.746789   -0.488259    0.000000
      3          1           0       -0.746789   -0.438874    0.000000
 ---------------------------------------------------------------------

 SCF Done:  E(RB2PLYPD3) =  -76.3347128654     A.U. after   10 cycles
 E2(B2PLYPD3) =    -0.8956892072D-01 E(B2PLYPD3) =    -0.76424281786135D+02

 The electronic state is 1-A'.
 Alpha  occ. eigenvalues --  -19.72921  -1.16356  -0.61848  -0.47683  -0.40088
 Alpha virt. eigenvalues --    0.04666   0.10337   0.27425   0.30377   0.31177
 Alpha virt. eigenvalues --    0.36547   0.44387   0.50335   0.56449   0.62227
 Alpha virt. eigenvalues --    0.65293   0.81489   0.94162   0.95670   1.04630

 Mulliken charges:
               1
     1  O   -0.431050
     2  H    0.222836
     3  H    0.208214
 Sum of Mulliken charges =   0.00000

 Dipole moment (field-independent basis, Debye):
    X=             -0.0155    Y=             -1.9555    Z=              0.0000  Tot=              1.9556
 Quadrupole moment (field-independent basis, Debye-Ang):
   XX=             -4.3772   YY=             -6.3084   ZZ=             -7.5623
   XY=             -0.0802   XZ=              0.0000   YZ=              0.0000

 1\1\GINC-NODE40\SP\RB2PLYPD3-FC\def2QZVP\H2O1\BOITTIER\26-Aug-2020\0\\
 #p B2PLYPD3/Def2QZVP\\h2o\\0,1\O,0,-5.326605,-0.76231,0.925856\H,0,-4.
 368927,-0.720641,0.864141\H,0,-5.609308,0.101647,0.728077\\Version=ES6
 4L-G09RevD.01\State=1-A'\HF=-76.3347129\MP2=-76.4242818\RMSD=4.756e-09
 \PG=CS [SG(H2O1)]\\@

 TOWERING GENIUS DISDAINS A BEATEN PATH.  IT SEEKS

 Normal termination of Gaussian 09 at Wed Aug 26 08:30:22 2020.
