 Gaussian 09, Revision D.01,
 Gaussian 09:  ES64L-G09RevD.01 24-Apr-2013

 --------------------
 #p B2PLYPD3/Def2QZVP
 --------------------

 ---
 h2o
 ---
 Symbolic Z-matrix:
 Charge =  0 Multiplicity = 1

                         Standard orientation:
 ---------------------------------------------------------------------
 Center     Atomic      Atomic             Coordinates (Angstroms)
 Number     Number       Type             X           Y           Z
 ---------------------------------------------------------------------
      1          8           0        0.000000    0.127911    0.000000
      2          1           0        0.744321   -0.491399    0.000000
      3          1           0       -0.744321   -0.531886    0.000000
 ---------------------------------------------------------------------

 SCF Done:  E(RB2PLYPD3) =  -76.3322625501     A.U. after   10 cycles
 E2(B2PLYPD3) =    -0.9097198533D-01 E(B2PLYPD3) =    -0.76423234535421D+02

 The electronic state is 1-A'.
 Alpha  occ. eigenvalues --  -19.73730  -1.15066  -0.59152  -0.48297  -0.39930
 Alpha virt. eigenvalues --    0.04148   0.10082   0.27775   0.29915   0.30441
 Alpha virt. eigenvalues --    0.35763   0.43405   0.49115   0.56878   0.60302
 Alpha virt. eigenvalues --    0.66289   0.80869   0.93846   0.96345   1.01229

 Mulliken charges:
               1
     1  O   -0.446260
     2  H    0.218141
     3  H    0.228119
 Sum of Mulliken charges =   0.00000

 Dipole moment (field-independent basis, Debye):
    X=              0.0152    Y=             -2.0673    Z=              0.0000  Tot=              2.0674
 Quadrupole moment (field-independent basis, Debye-Ang):
   XX=             -4.5579   YY=             -6.1540   ZZ=             -7.6340
   XY=              0.0613   XZ=              0.0000   YZ=              0.0000

 1\1\GINC-NODE23\SP\RB2PLYPD3-FC\def2QZVP\H2O1\BOITTIER\26-Aug-2020\0\\
 #p B2PLYPD3/Def2QZVP\\h2o\\0,1\O,0,-5.326605,-0.76817,0.933577\H,0,-4.
 368927,-0.661321,0.838744\H,0,-5.609308,0.136087,0.630686\\Version=ES6
 4L-G09RevD.01\State=1-A'\HF=-76.3322626\MP2=-76.4232345\RMSD=4.685e-09
 \PG=CS [SG(H2O1)]\\@

 MICHAEL FARADAY, ASKED BY A POLITICIAN WHAT GOOD

 Normal termination of Gaussian 09 at Wed Aug 26 09:13:17 2020.
