 Gaussian 09, Revision D.01,
 Gaussian 09:  ES64L-G09RevD.01 24-Apr-2013

 --------------------
 #p B2PLYPD3/Def2QZVP
 --------------------

 ---
 h2o
 ---
 Symbolic Z-matrix:
 Charge =  0 Multiplicity = 1

                         Standard orientation:
 ---------------------------------------------------------------------
 Center     Atomic      Atomic             Coordinates (Angstroms)
 Number     Number       Type             X           Y           Z
 ---------------------------------------------------------------------
      1          8           0        0.000000    0.114986    0.000000
      2          1           0        0.787474   -0.430922    0.000000
      3          1           0       -0.787474   -0.488966    0.000000
 ---------------------------------------------------------------------

 SCF Done:  E(RB2PLYPD3) =  -76.3333380214     A.U. after   10 cycles
 E2(B2PLYPD3) =    -0.9045273720D-01 E(B2PLYPD3) =    -0.76423790758623D+02

 The electronic state is 1-A'.
 Alpha  occ. eigenvalues --  -19.73250  -1.14720  -0.61078  -0.46650  -0.39749
 Alpha virt. eigenvalues --    0.04383   0.09999   0.27553   0.30464   0.30882
 Alpha virt. eigenvalues --    0.34717   0.43529   0.50748   0.55576   0.62993
 Alpha virt. eigenvalues --    0.65965   0.80439   0.92958   0.96360   1.03110

 Mulliken charges:
               1
     1  O   -0.462217
     2  H    0.224062
     3  H    0.238155
 Sum of Mulliken charges =   0.00000

 Dipole moment (field-independent basis, Debye):
    X=              0.0161    Y=             -1.9227    Z=              0.0000  Tot=              1.9228
 Quadrupole moment (field-independent basis, Debye-Ang):
   XX=             -4.1653   YY=             -6.4252   ZZ=             -7.6371
   XY=              0.1007   XZ=              0.0000   YZ=              0.0000

 1\1\GINC-NODE24\SP\RB2PLYPD3-FC\def2QZVP\H2O1\BOITTIER\26-Aug-2020\0\\
 #p B2PLYPD3/Def2QZVP\\h2o\\0,1\O,0,-5.326605,-0.763429,0.916886\H,0,-4
 .368927,-0.780868,0.942947\H,0,-5.609308,0.179777,0.793136\\Version=ES
 64L-G09RevD.01\State=1-A'\HF=-76.333338\MP2=-76.4237908\RMSD=4.430e-09
 \PG=CS [SG(H2O1)]\\@

 THERE IS MORE TO LIFE THAN INCREASING ITS SPEED.

 Normal termination of Gaussian 09 at Wed Aug 26 08:30:14 2020.
