 Gaussian 09, Revision D.01,
 Gaussian 09:  ES64L-G09RevD.01 24-Apr-2013

 --------------------
 #p B2PLYPD3/Def2QZVP
 --------------------

 ---
 h2o
 ---
 Symbolic Z-matrix:
 Charge =  0 Multiplicity = 1

                         Standard orientation:
 ---------------------------------------------------------------------
 Center     Atomic      Atomic             Coordinates (Angstroms)
 Number     Number       Type             X           Y           Z
 ---------------------------------------------------------------------
      1          8           0        0.000000    0.120603    0.000000
      2          1           0        0.746671   -0.485015    0.000000
      3          1           0       -0.746671   -0.479806    0.000000
 ---------------------------------------------------------------------

 SCF Done:  E(RB2PLYPD3) =  -76.3348425053     A.U. after   10 cycles
 E2(B2PLYPD3) =    -0.9010886230D-01 E(B2PLYPD3) =    -0.76424951367575D+02

 The electronic state is 1-A'.
 Alpha  occ. eigenvalues --  -19.73249  -1.15811  -0.60758  -0.47927  -0.40018
 Alpha virt. eigenvalues --    0.04475   0.10243   0.27564   0.30406   0.30736
 Alpha virt. eigenvalues --    0.36255   0.43956   0.49819   0.56628   0.61447
 Alpha virt. eigenvalues --    0.65710   0.81250   0.94094   0.95915   1.03300

 Mulliken charges:
               1
     1  O   -0.438640
     2  H    0.220037
     3  H    0.218603
 Sum of Mulliken charges =   0.00000

 Dipole moment (field-independent basis, Debye):
    X=             -0.0018    Y=             -2.0001    Z=              0.0000  Tot=              2.0001
 Quadrupole moment (field-independent basis, Debye-Ang):
   XX=             -4.4431   YY=             -6.2527   ZZ=             -7.5913
   XY=             -0.0082   XZ=              0.0000   YZ=              0.0000

 1\1\GINC-NODE33\SP\RB2PLYPD3-FC\def2QZVP\H2O1\BOITTIER\26-Aug-2020\0\\
 #p B2PLYPD3/Def2QZVP\\h2o\\0,1\O,0,-5.326605,-0.766375,0.922641\H,0,-4
 .368927,-0.682244,0.914547\H,0,-5.609308,0.128284,0.728546\\Version=ES
 64L-G09RevD.01\State=1-A'\HF=-76.3348425\MP2=-76.4249514\RMSD=4.325e-0
 9\PG=CS [SG(H2O1)]\\@

 NOT WHAT WE DID SHALL BE THE TEST

 Normal termination of Gaussian 09 at Wed Aug 26 08:30:08 2020.
