 Gaussian 09, Revision D.01,
 Gaussian 09:  ES64L-G09RevD.01 24-Apr-2013

 --------------------
 #p B2PLYPD3/Def2QZVP
 --------------------

 ---
 h2o
 ---
 Symbolic Z-matrix:
 Charge =  0 Multiplicity = 1

                         Standard orientation:
 ---------------------------------------------------------------------
 Center     Atomic      Atomic             Coordinates (Angstroms)
 Number     Number       Type             X           Y           Z
 ---------------------------------------------------------------------
      1          8           0        0.000000    0.109917    0.000000
      2          1           0        0.809769   -0.409719    0.000000
      3          1           0       -0.809769   -0.469615    0.000000
 ---------------------------------------------------------------------

 SCF Done:  E(RB2PLYPD3) =  -76.3320245282     A.U. after   10 cycles
 E2(B2PLYPD3) =    -0.9048529626D-01 E(B2PLYPD3) =    -0.76422509824407D+02

 The electronic state is 1-A'.
 Alpha  occ. eigenvalues --  -19.73126  -1.14297  -0.61561  -0.45872  -0.39614
 Alpha virt. eigenvalues --    0.04383   0.09900   0.27489   0.30488   0.31220
 Alpha virt. eigenvalues --    0.33917   0.43401   0.51665   0.54961   0.64186
 Alpha virt. eigenvalues --    0.66032   0.79811   0.92635   0.96641   1.03486

 Mulliken charges:
               1
     1  O   -0.475018
     2  H    0.230562
     3  H    0.244455
 Sum of Mulliken charges =   0.00000

 Dipole moment (field-independent basis, Debye):
    X=              0.0141    Y=             -1.8597    Z=              0.0000  Tot=              1.8597
 Quadrupole moment (field-independent basis, Debye-Ang):
   XX=             -3.9825   YY=             -6.5446   ZZ=             -7.6542
   XY=              0.1100   XZ=              0.0000   YZ=              0.0000

 1\1\GINC-NODE28\SP\RB2PLYPD3-FC\def2QZVP\H2O1\BOITTIER\26-Aug-2020\0\\
 #p B2PLYPD3/Def2QZVP\\h2o\\0,1\O,0,-5.326605,-0.76015,0.913515\H,0,-4.
 368927,-0.84542,0.949973\H,0,-5.609308,0.19186,0.84045\\Version=ES64L-
 G09RevD.01\State=1-A'\HF=-76.3320245\MP2=-76.4225098\RMSD=4.488e-09\PG
 =CS [SG(H2O1)]\\@

 Sometimes the fool who rushes in gets the job done.

 Normal termination of Gaussian 09 at Wed Aug 26 08:33:54 2020.
