 Gaussian 09, Revision D.01,
 Gaussian 09:  ES64L-G09RevD.01 24-Apr-2013

 --------------------
 #p B2PLYPD3/Def2QZVP
 --------------------

 ---
 h2o
 ---
 Symbolic Z-matrix:
 Charge =  0 Multiplicity = 1

                         Standard orientation:
 ---------------------------------------------------------------------
 Center     Atomic      Atomic             Coordinates (Angstroms)
 Number     Number       Type             X           Y           Z
 ---------------------------------------------------------------------
      1          8           0        0.000000    0.113076    0.000000
      2          1           0        0.772886   -0.453653    0.000000
      3          1           0       -0.772886   -0.450954    0.000000
 ---------------------------------------------------------------------

 SCF Done:  E(RB2PLYPD3) =  -76.3350648935     A.U. after   10 cycles
 E2(B2PLYPD3) =    -0.8987702015D-01 E(B2PLYPD3) =    -0.76424941913692D+02

 The electronic state is 1-A'.
 Alpha  occ. eigenvalues --  -19.72989  -1.15519  -0.61869  -0.46916  -0.39902
 Alpha virt. eigenvalues --    0.04602   0.10167   0.27459   0.30419   0.31307
 Alpha virt. eigenvalues --    0.35445   0.43990   0.50863   0.55830   0.63090
 Alpha virt. eigenvalues --    0.65542   0.80967   0.93607   0.95996   1.04608

 Mulliken charges:
               1
     1  O   -0.448884
     2  H    0.224805
     3  H    0.224079
 Sum of Mulliken charges =   0.00000

 Dipole moment (field-independent basis, Debye):
    X=             -0.0008    Y=             -1.9134    Z=              0.0000  Tot=              1.9134
 Quadrupole moment (field-independent basis, Debye-Ang):
   XX=             -4.2123   YY=             -6.4127   ZZ=             -7.5967
   XY=             -0.0046   XZ=              0.0000   YZ=              0.0000

 1\1\GINC-NODE27\SP\RB2PLYPD3-FC\def2QZVP\H2O1\BOITTIER\26-Aug-2020\0\\
 #p B2PLYPD3/Def2QZVP\\h2o\\0,1\O,0,-5.326605,-0.762282,0.914834\H,0,-4
 .368927,-0.76592,0.951898\H,0,-5.609308,0.14647,0.816184\\Version=ES64
 L-G09RevD.01\State=1-A'\HF=-76.3350649\MP2=-76.4249419\RMSD=3.829e-09\
 PG=CS [SG(H2O1)]\\@

 IF OTHER PEOPLE ARE GOING TO TALK, CONVERSATION IS SIMPLY IMPOSSIBLE.

 Normal termination of Gaussian 09 at Wed Aug 26 08:31:47 2020.
