 Gaussian 09, Revision D.01,
 Gaussian 09:  ES64L-G09RevD.01 24-Apr-2013

 --------------------
 #p B2PLYPD3/Def2QZVP
 --------------------

 ---
 h2o
 ---
 Symbolic Z-matrix:
 Charge =  0 Multiplicity = 1

                         Standard orientation:
 ---------------------------------------------------------------------
 Center     Atomic      Atomic             Coordinates (Angstroms)
 Number     Number       Type             X           Y           Z
 ---------------------------------------------------------------------
      1          8           0        0.000000    0.111227    0.000000
      2          1           0        0.800737   -0.418483    0.000000
      3          1           0       -0.800737   -0.471333    0.000000
 ---------------------------------------------------------------------

 SCF Done:  E(RB2PLYPD3) =  -76.3329053939     A.U. after   10 cycles
 E2(B2PLYPD3) =    -0.9038510068D-01 E(B2PLYPD3) =    -0.76423290494567D+02

 The electronic state is 1-A'.
 Alpha  occ. eigenvalues --  -19.73128  -1.14542  -0.61537  -0.46151  -0.39679
 Alpha virt. eigenvalues --    0.04421   0.09956   0.27500   0.30474   0.31188
 Alpha virt. eigenvalues --    0.34257   0.43508   0.51379   0.55188   0.63828
 Alpha virt. eigenvalues --    0.65937   0.80116   0.92825   0.96489   1.03645

 Mulliken charges:
               1
     1  O   -0.469038
     2  H    0.228207
     3  H    0.240831
 Sum of Mulliken charges =   0.00000

 Dipole moment (field-independent basis, Debye):
    X=              0.0132    Y=             -1.8782    Z=              0.0000  Tot=              1.8783
 Quadrupole moment (field-independent basis, Debye-Ang):
   XX=             -4.0468   YY=             -6.5058   ZZ=             -7.6427
   XY=              0.0952   XZ=              0.0000   YZ=              0.0000

 1\1\GINC-NODE04\SP\RB2PLYPD3-FC\def2QZVP\H2O1\BOITTIER\26-Aug-2020\0\\
 #p B2PLYPD3/Def2QZVP\\h2o\\0,1\O,0,-5.326605,-0.760966,0.915256\H,0,-4
 .368927,-0.823905,0.941006\H,0,-5.609308,0.183405,0.821456\\Version=ES
 64L-G09RevD.01\State=1-A'\HF=-76.3329054\MP2=-76.4232905\RMSD=4.310e-0
 9\PG=CS [SG(H2O1)]\\@

 THERE IS MUCH PLEASURE TO BE GAINED FROM USELESS KNOWLEDGE

 Normal termination of Gaussian 09 at Wed Aug 26 09:02:37 2020.
