 Gaussian 09, Revision D.01,
 Gaussian 09:  ES64L-G09RevD.01 24-Apr-2013

 --------------------
 #p B2PLYPD3/Def2QZVP
 --------------------

 ---
 h2o
 ---
 Symbolic Z-matrix:
 Charge =  0 Multiplicity = 1

                         Standard orientation:
 ---------------------------------------------------------------------
 Center     Atomic      Atomic             Coordinates (Angstroms)
 Number     Number       Type             X           Y           Z
 ---------------------------------------------------------------------
      1          8           0        0.000000    0.120710    0.000000
      2          1           0        0.708847   -0.541344    0.000000
      3          1           0       -0.708847   -0.424332    0.000000
 ---------------------------------------------------------------------

 SCF Done:  E(RB2PLYPD3) =  -76.3299657697     A.U. after   10 cycles
 E2(B2PLYPD3) =    -0.8930040161D-01 E(B2PLYPD3) =    -0.76419266171288D+02

 The electronic state is 1-A'.
 Alpha  occ. eigenvalues --  -19.72864  -1.17540  -0.61475  -0.48813  -0.40332
 Alpha virt. eigenvalues --    0.04634   0.10562   0.27371   0.30328   0.30819
 Alpha virt. eigenvalues --    0.37861   0.45008   0.49693   0.57302   0.60950
 Alpha virt. eigenvalues --    0.64971   0.81819   0.94636   0.95475   1.04363

 Mulliken charges:
               1
     1  O   -0.405758
     2  H    0.222556
     3  H    0.183202
 Sum of Mulliken charges =   0.00000

 Dipole moment (field-independent basis, Debye):
    X=             -0.0428    Y=             -2.0210    Z=              0.0000  Tot=              2.0214
 Quadrupole moment (field-independent basis, Debye-Ang):
   XX=             -4.6185   YY=             -6.1434   ZZ=             -7.5219
   XY=             -0.1737   XZ=              0.0000   YZ=              0.0000

 1\1\GINC-NODE15\SP\RB2PLYPD3-FC\def2QZVP\H2O1\BOITTIER\26-Aug-2020\0\\
 #p B2PLYPD3/Def2QZVP\\h2o\\0,1\O,0,-5.326605,-0.765114,0.927783\H,0,-4
 .368927,-0.62468,0.865246\H,0,-5.609308,0.050547,0.694735\\Version=ES6
 4L-G09RevD.01\State=1-A'\HF=-76.3299658\MP2=-76.4192662\RMSD=6.543e-09
 \PG=CS [SG(H2O1)]\\@

 LIFE CAN ONLY BE UNDERSTOOD BACKWARD, BUT MUST

 Normal termination of Gaussian 09 at Wed Aug 26 09:25:16 2020.
