 Gaussian 09, Revision D.01,
 Gaussian 09:  ES64L-G09RevD.01 24-Apr-2013

 --------------------
 #p B2PLYPD3/Def2QZVP
 --------------------

 ---
 h2o
 ---
 Symbolic Z-matrix:
 Charge =  0 Multiplicity = 1

                         Standard orientation:
 ---------------------------------------------------------------------
 Center     Atomic      Atomic             Coordinates (Angstroms)
 Number     Number       Type             X           Y           Z
 ---------------------------------------------------------------------
      1          8           0        0.000000    0.111905    0.000000
      2          1           0        0.812394   -0.402771    0.000000
      3          1           0       -0.812394   -0.492467    0.000000
 ---------------------------------------------------------------------

 SCF Done:  E(RB2PLYPD3) =  -76.3306238042     A.U. after   10 cycles
 E2(B2PLYPD3) =    -0.9076931312D-01 E(B2PLYPD3) =    -0.76421393117320D+02

 The electronic state is 1-A'.
 Alpha  occ. eigenvalues --  -19.73272  -1.14017  -0.61070  -0.45895  -0.39567
 Alpha virt. eigenvalues --    0.04252   0.09835   0.27530   0.30505   0.30824
 Alpha virt. eigenvalues --    0.33831   0.43224   0.51420   0.54950   0.63889
 Alpha virt. eigenvalues --    0.66215   0.79649   0.92282   0.96731   1.02571

 Mulliken charges:
               1
     1  O   -0.478141
     2  H    0.229071
     3  H    0.249071
 Sum of Mulliken charges =   0.00000

 Dipole moment (field-independent basis, Debye):
    X=              0.0218    Y=             -1.8771    Z=              0.0000  Tot=              1.8773
 Quadrupole moment (field-independent basis, Debye-Ang):
   XX=             -3.9957   YY=             -6.5239   ZZ=             -7.6706
   XY=              0.1637   XZ=              0.0000   YZ=              0.0000

 1\1\GINC-NODE20\SP\RB2PLYPD3-FC\def2QZVP\H2O1\BOITTIER\26-Aug-2020\0\\
 #p B2PLYPD3/Def2QZVP\\h2o\\0,1\O,0,-5.326605,-0.76153,0.913813\H,0,-4.
 368927,-0.838575,0.956137\H,0,-5.609308,0.207101,0.829656\\Version=ES6
 4L-G09RevD.01\State=1-A'\HF=-76.3306238\MP2=-76.4213931\RMSD=5.283e-09
 \PG=CS [SG(H2O1)]\\@

 IF YOU BELIEVE CERTAIN WORDS, YOU BELIEVE THEIR HIDDEN ARGUMENTS.

 Normal termination of Gaussian 09 at Wed Aug 26 09:08:34 2020.
