 Gaussian 09, Revision D.01,
 Gaussian 09:  ES64L-G09RevD.01 24-Apr-2013

 --------------------
 #p B2PLYPD3/Def2QZVP
 --------------------

 ---
 h2o
 ---
 Symbolic Z-matrix:
 Charge =  0 Multiplicity = 1

                         Standard orientation:
 ---------------------------------------------------------------------
 Center     Atomic      Atomic             Coordinates (Angstroms)
 Number     Number       Type             X           Y           Z
 ---------------------------------------------------------------------
      1          8           0        0.000000    0.116330    0.000000
      2          1           0        0.767905   -0.459470    0.000000
      3          1           0       -0.767905   -0.471169    0.000000
 ---------------------------------------------------------------------

 SCF Done:  E(RB2PLYPD3) =  -76.3349183014     A.U. after   10 cycles
 E2(B2PLYPD3) =    -0.9011452512D-01 E(B2PLYPD3) =    -0.76425032826533D+02

 The electronic state is 1-A'.
 Alpha  occ. eigenvalues --  -19.73160  -1.15386  -0.61260  -0.47199  -0.39900
 Alpha virt. eigenvalues --    0.04504   0.10146   0.27526   0.30427   0.30999
 Alpha virt. eigenvalues --    0.35527   0.43839   0.50420   0.56043   0.62463
 Alpha virt. eigenvalues --    0.65724   0.80967   0.93592   0.96051   1.03743

 Mulliken charges:
               1
     1  O   -0.449066
     2  H    0.222992
     3  H    0.226073
 Sum of Mulliken charges =   0.00000

 Dipole moment (field-independent basis, Debye):
    X=              0.0035    Y=             -1.9476    Z=              0.0000  Tot=              1.9476
 Quadrupole moment (field-independent basis, Debye-Ang):
   XX=             -4.2811   YY=             -6.3602   ZZ=             -7.6061
   XY=              0.0196   XZ=              0.0000   YZ=              0.0000

 1\1\GINC-NODE28\SP\RB2PLYPD3-FC\def2QZVP\H2O1\BOITTIER\26-Aug-2020\0\\
 #p B2PLYPD3/Def2QZVP\\h2o\\0,1\O,0,-5.326605,-0.764564,0.914101\H,0,-4
 .368927,-0.736852,0.971615\H,0,-5.609308,0.153926,0.807856\\Version=ES
 64L-G09RevD.01\State=1-A'\HF=-76.3349183\MP2=-76.4250328\RMSD=3.952e-0
 9\PG=CS [SG(H2O1)]\\@

 Age does not diminish the extreme disappointment of

 Normal termination of Gaussian 09 at Wed Aug 26 11:23:24 2020.
