 Gaussian 09, Revision D.01,
 Gaussian 09:  ES64L-G09RevD.01 24-Apr-2013

 --------------------
 #p B2PLYPD3/Def2QZVP
 --------------------

 ---
 h2o
 ---
 Symbolic Z-matrix:
 Charge =  0 Multiplicity = 1

                         Standard orientation:
 ---------------------------------------------------------------------
 Center     Atomic      Atomic             Coordinates (Angstroms)
 Number     Number       Type             X           Y           Z
 ---------------------------------------------------------------------
      1          8           0        0.000000    0.121797    0.000000
      2          1           0        0.778062   -0.453631    0.000000
      3          1           0       -0.778062   -0.520747    0.000000
 ---------------------------------------------------------------------

 SCF Done:  E(RB2PLYPD3) =  -76.3318766608     A.U. after   10 cycles
 E2(B2PLYPD3) =    -0.9100553609D-01 E(B2PLYPD3) =    -0.76422882196940D+02

 The electronic state is 1-A'.
 Alpha  occ. eigenvalues --  -19.73614  -1.14404  -0.59831  -0.47192  -0.39743
 Alpha virt. eigenvalues --    0.04159   0.09926   0.27705   0.30174   0.30478
 Alpha virt. eigenvalues --    0.34794   0.43226   0.49848   0.55969   0.61743
 Alpha virt. eigenvalues --    0.66359   0.80418   0.92806   0.96483   1.01577

 Mulliken charges:
               1
     1  O   -0.461826
     2  H    0.223203
     3  H    0.238623
 Sum of Mulliken charges =   0.00000

 Dipole moment (field-independent basis, Debye):
    X=              0.0214    Y=             -1.9919    Z=              0.0000  Tot=              1.9921
 Quadrupole moment (field-independent basis, Debye-Ang):
   XX=             -4.3068   YY=             -6.3155   ZZ=             -7.6587
   XY=              0.1108   XZ=              0.0000   YZ=              0.0000

 1\1\GINC-NODE17\SP\RB2PLYPD3-FC\def2QZVP\H2O1\BOITTIER\26-Aug-2020\0\\
 #p B2PLYPD3/Def2QZVP\\h2o\\0,1\O,0,-5.326605,-0.768245,0.908429\H,0,-4
 .368927,-0.721314,1.039381\H,0,-5.609308,0.197278,0.830402\\Version=ES
 64L-G09RevD.01\State=1-A'\HF=-76.3318767\MP2=-76.4228822\RMSD=4.595e-0
 9\PG=CS [SG(H2O1)]\\@

      TO SUSPECT YOUR OWN MORTALITY IS TO KNOW THE BEGINNING OF TERROR.

 Normal termination of Gaussian 09 at Wed Aug 26 09:05:36 2020.
