 Gaussian 09, Revision D.01,
 Gaussian 09:  ES64L-G09RevD.01 24-Apr-2013

 --------------------
 #p B2PLYPD3/Def2QZVP
 --------------------

 ---
 h2o
 ---
 Symbolic Z-matrix:
 Charge =  0 Multiplicity = 1

                         Standard orientation:
 ---------------------------------------------------------------------
 Center     Atomic      Atomic             Coordinates (Angstroms)
 Number     Number       Type             X           Y           Z
 ---------------------------------------------------------------------
      1          8           0        0.000000    0.114264    0.000000
      2          1           0        0.767114   -0.459269    0.000000
      3          1           0       -0.767114   -0.454844    0.000000
 ---------------------------------------------------------------------

 SCF Done:  E(RB2PLYPD3) =  -76.3351781401     A.U. after   10 cycles
 E2(B2PLYPD3) =    -0.8986569023D-01 E(B2PLYPD3) =    -0.76425043830367D+02

 The electronic state is 1-A'.
 Alpha  occ. eigenvalues --  -19.73013  -1.15641  -0.61745  -0.47115  -0.39936
 Alpha virt. eigenvalues --    0.04598   0.10194   0.27468   0.30413   0.31229
 Alpha virt. eigenvalues --    0.35666   0.44027   0.50666   0.55989   0.62800
 Alpha virt. eigenvalues --    0.65534   0.81080   0.93718   0.95938   1.04463

 Mulliken charges:
               1
     1  O   -0.445743
     2  H    0.223474
     3  H    0.222268
 Sum of Mulliken charges =   0.00000

 Dipole moment (field-independent basis, Debye):
    X=             -0.0013    Y=             -1.9283    Z=              0.0000  Tot=              1.9283
 Quadrupole moment (field-independent basis, Debye-Ang):
   XX=             -4.2568   YY=             -6.3832   ZZ=             -7.5922
   XY=             -0.0075   XZ=              0.0000   YZ=              0.0000

 1\1\GINC-NODE33\SP\RB2PLYPD3-FC\def2QZVP\H2O1\BOITTIER\26-Aug-2020\0\\
 #p B2PLYPD3/Def2QZVP\\h2o\\0,1\O,0,-5.326605,-0.762789,0.91804\H,0,-4.
 368927,-0.751528,0.92947\H,0,-5.609308,0.140201,0.787519\\Version=ES64
 L-G09RevD.01\State=1-A'\HF=-76.3351781\MP2=-76.4250438\RMSD=3.913e-09\
 PG=CS [SG(H2O1)]\\@

 I LOVE MANKIND - IT'S PEOPLE I CAN'T STAND.

 Normal termination of Gaussian 09 at Wed Aug 26 08:59:06 2020.
