 Gaussian 09, Revision D.01,
 Gaussian 09:  ES64L-G09RevD.01 24-Apr-2013

 --------------------
 #p B2PLYPD3/Def2QZVP
 --------------------

 ---
 h2o
 ---
 Symbolic Z-matrix:
 Charge =  0 Multiplicity = 1

                         Standard orientation:
 ---------------------------------------------------------------------
 Center     Atomic      Atomic             Coordinates (Angstroms)
 Number     Number       Type             X           Y           Z
 ---------------------------------------------------------------------
      1          8           0        0.000000    0.116970    0.000000
      2          1           0        0.758500   -0.469696    0.000000
      3          1           0       -0.758500   -0.466065    0.000000
 ---------------------------------------------------------------------

 SCF Done:  E(RB2PLYPD3) =  -76.3351626757     A.U. after   10 cycles
 E2(B2PLYPD3) =    -0.8996163610D-01 E(B2PLYPD3) =    -0.76425124311779D+02

 The electronic state is 1-A'.
 Alpha  occ. eigenvalues --  -19.73113  -1.15716  -0.61333  -0.47461  -0.39972
 Alpha virt. eigenvalues --    0.04549   0.10216   0.27507   0.30410   0.31016
 Alpha virt. eigenvalues --    0.35934   0.43999   0.50281   0.56260   0.62215
 Alpha virt. eigenvalues --    0.65608   0.81176   0.93858   0.95914   1.03948

 Mulliken charges:
               1
     1  O   -0.442581
     2  H    0.221788
     3  H    0.220793
 Sum of Mulliken charges =   0.00000

 Dipole moment (field-independent basis, Debye):
    X=             -0.0011    Y=             -1.9592    Z=              0.0000  Tot=              1.9592
 Quadrupole moment (field-independent basis, Debye-Ang):
   XX=             -4.3358   YY=             -6.3279   ZZ=             -7.5915
   XY=             -0.0060   XZ=              0.0000   YZ=              0.0000

 1\1\GINC-NODE40\SP\RB2PLYPD3-FC\def2QZVP\H2O1\BOITTIER\26-Aug-2020\0\\
 #p B2PLYPD3/Def2QZVP\\h2o\\0,1\O,0,-5.326605,-0.763644,0.923666\H,0,-4
 .368927,-0.7288,0.889917\H,0,-5.609308,0.131152,0.737462\\Version=ES64
 L-G09RevD.01\State=1-A'\HF=-76.3351627\MP2=-76.4251243\RMSD=4.066e-09\
 PG=CS [SG(H2O1)]\\@

 THE DIFFICULTY IN SCIENCE IS OFTEN NOT SO MUCH HOW

 Normal termination of Gaussian 09 at Wed Aug 26 10:19:08 2020.
