 Gaussian 09, Revision D.01,
 Gaussian 09:  ES64L-G09RevD.01 24-Apr-2013

 --------------------
 #p B2PLYPD3/Def2QZVP
 --------------------

 ---
 h2o
 ---
 Symbolic Z-matrix:
 Charge =  0 Multiplicity = 1

                         Standard orientation:
 ---------------------------------------------------------------------
 Center     Atomic      Atomic             Coordinates (Angstroms)
 Number     Number       Type             X           Y           Z
 ---------------------------------------------------------------------
      1          8           0        0.000000    0.119821    0.000000
      2          1           0        0.737984   -0.497849    0.000000
      3          1           0       -0.737984   -0.460720    0.000000
 ---------------------------------------------------------------------

 SCF Done:  E(RB2PLYPD3) =  -76.3346423844     A.U. after   10 cycles
 E2(B2PLYPD3) =    -0.8981859685D-01 E(B2PLYPD3) =    -0.76424460981265D+02

 The electronic state is 1-A'.
 Alpha  occ. eigenvalues --  -19.73109  -1.16283  -0.61117  -0.48100  -0.40103
 Alpha virt. eigenvalues --    0.04560   0.10336   0.27502   0.30383   0.30869
 Alpha virt. eigenvalues --    0.36709   0.44236   0.49864   0.56775   0.61448
 Alpha virt. eigenvalues --    0.65478   0.81459   0.94340   0.95731   1.03862

 Mulliken charges:
               1
     1  O   -0.430560
     2  H    0.220696
     3  H    0.209863
 Sum of Mulliken charges =   0.00000

 Dipole moment (field-independent basis, Debye):
    X=             -0.0126    Y=             -1.9977    Z=              0.0000  Tot=              1.9978
 Quadrupole moment (field-independent basis, Debye-Ang):
   XX=             -4.4732   YY=             -6.2387   ZZ=             -7.5700
   XY=             -0.0582   XZ=              0.0000   YZ=              0.0000

 1\1\GINC-NODE33\SP\RB2PLYPD3-FC\def2QZVP\H2O1\BOITTIER\26-Aug-2020\0\\
 #p B2PLYPD3/Def2QZVP\\h2o\\0,1\O,0,-5.326605,-0.765486,0.92421\H,0,-4.
 368927,-0.674816,0.896472\H,0,-5.609308,0.106634,0.721392\\Version=ES6
 4L-G09RevD.01\State=1-A'\HF=-76.3346424\MP2=-76.424461\RMSD=4.726e-09\
 PG=CS [SG(H2O1)]\\@

  THE LARGE PRINT GIVETH,

 Normal termination of Gaussian 09 at Wed Aug 26 11:46:04 2020.
