 Gaussian 09, Revision D.01,
 Gaussian 09:  ES64L-G09RevD.01 24-Apr-2013

 --------------------
 #p B2PLYPD3/Def2QZVP
 --------------------

 ---
 h2o
 ---
 Symbolic Z-matrix:
 Charge =  0 Multiplicity = 1

                         Standard orientation:
 ---------------------------------------------------------------------
 Center     Atomic      Atomic             Coordinates (Angstroms)
 Number     Number       Type             X           Y           Z
 ---------------------------------------------------------------------
      1          8           0        0.000000    0.110763    0.000000
      2          1           0        0.758832   -0.475834    0.000000
      3          1           0       -0.758832   -0.410272    0.000000
 ---------------------------------------------------------------------

 SCF Done:  E(RB2PLYPD3) =  -76.3341881054     A.U. after   10 cycles
 E2(B2PLYPD3) =    -0.8930146497D-01 E(B2PLYPD3) =    -0.76423489570333D+02

 The electronic state is 1-A'.
 Alpha  occ. eigenvalues --  -19.72688  -1.16396  -0.62752  -0.47112  -0.40058
 Alpha virt. eigenvalues --    0.04785   0.10325   0.27337   0.30370   0.31561
 Alpha virt. eigenvalues --    0.36215   0.44550   0.51052   0.56003   0.63299
 Alpha virt. eigenvalues --    0.65078   0.81425   0.93981   0.95662   1.05469

 Mulliken charges:
               1
     1  O   -0.432665
     2  H    0.226135
     3  H    0.206529
 Sum of Mulliken charges =   0.00000

 Dipole moment (field-independent basis, Debye):
    X=             -0.0183    Y=             -1.8987    Z=              0.0000  Tot=              1.8988
 Quadrupole moment (field-independent basis, Debye-Ang):
   XX=             -4.2500   YY=             -6.3996   ZZ=             -7.5555
   XY=             -0.1114   XZ=              0.0000   YZ=              0.0000

 1\1\GINC-NODE37\SP\RB2PLYPD3-FC\def2QZVP\H2O1\BOITTIER\26-Aug-2020\0\\
 #p B2PLYPD3/Def2QZVP\\h2o\\0,1\O,0,-5.326605,-0.760782,0.912049\H,0,-4
 .368927,-0.756258,0.964542\H,0,-5.609308,0.112822,0.847246\\Version=ES
 64L-G09RevD.01\State=1-A'\HF=-76.3341881\MP2=-76.4234896\RMSD=5.043e-0
 9\PG=CS [SG(H2O1)]\\@

 IF YOU'RE NOT PART OF THE SOLUTION,

 Normal termination of Gaussian 09 at Wed Aug 26 08:33:26 2020.
