 Gaussian 09, Revision D.01,
 Gaussian 09:  ES64L-G09RevD.01 24-Apr-2013

 --------------------
 #p B2PLYPD3/Def2QZVP
 --------------------

 ---
 h2o
 ---
 Symbolic Z-matrix:
 Charge =  0 Multiplicity = 1

                         Standard orientation:
 ---------------------------------------------------------------------
 Center     Atomic      Atomic             Coordinates (Angstroms)
 Number     Number       Type             X           Y           Z
 ---------------------------------------------------------------------
      1          8           0        0.000000    0.116734    0.000000
      2          1           0        0.760404   -0.468647    0.000000
      3          1           0       -0.760404   -0.465228    0.000000
 ---------------------------------------------------------------------

 SCF Done:  E(RB2PLYPD3) =  -76.3351452538     A.U. after   10 cycles
 E2(B2PLYPD3) =    -0.8998010531D-01 E(B2PLYPD3) =    -0.76425125359130D+02

 The electronic state is 1-A'.
 Alpha  occ. eigenvalues --  -19.73115  -1.15660  -0.61343  -0.47402  -0.39959
 Alpha virt. eigenvalues --    0.04545   0.10204   0.27508   0.30413   0.31025
 Alpha virt. eigenvalues --    0.35858   0.43975   0.50321   0.56213   0.62283
 Alpha virt. eigenvalues --    0.65622   0.81141   0.93809   0.95936   1.03942

 Mulliken charges:
               1
     1  O   -0.443751
     2  H    0.222341
     3  H    0.221410
 Sum of Mulliken charges =   0.00000

 Dipole moment (field-independent basis, Debye):
    X=             -0.0011    Y=             -1.9559    Z=              0.0000  Tot=              1.9559
 Quadrupole moment (field-independent basis, Debye-Ang):
   XX=             -4.3233   YY=             -6.3358   ZZ=             -7.5938
   XY=             -0.0056   XZ=              0.0000   YZ=              0.0000

 1\1\GINC-NODE12\SP\RB2PLYPD3-FC\def2QZVP\H2O1\BOITTIER\26-Aug-2020\0\\
 #p B2PLYPD3/Def2QZVP\\h2o\\0,1\O,0,-5.326605,-0.762962,0.925689\H,0,-4
 .368927,-0.738319,0.869729\H,0,-5.609308,0.129763,0.725651\\Version=ES
 64L-G09RevD.01\State=1-A'\HF=-76.3351453\MP2=-76.4251254\RMSD=4.033e-0
 9\PG=CS [SG(H2O1)]\\@

 NEVER LISTEN TO CRITICISM

 Normal termination of Gaussian 09 at Wed Aug 26 12:11:43 2020.
