 Gaussian 09, Revision D.01,
 Gaussian 09:  ES64L-G09RevD.01 24-Apr-2013

 --------------------
 #p B2PLYPD3/Def2QZVP
 --------------------

 ---
 h2o
 ---
 Symbolic Z-matrix:
 Charge =  0 Multiplicity = 1

                         Standard orientation:
 ---------------------------------------------------------------------
 Center     Atomic      Atomic             Coordinates (Angstroms)
 Number     Number       Type             X           Y           Z
 ---------------------------------------------------------------------
      1          8           0        0.000000    0.113411    0.000000
      2          1           0        0.768007   -0.459003    0.000000
      3          1           0       -0.768007   -0.448285    0.000000
 ---------------------------------------------------------------------

 SCF Done:  E(RB2PLYPD3) =  -76.3351748174     A.U. after   10 cycles
 E2(B2PLYPD3) =    -0.8979463486D-01 E(B2PLYPD3) =    -0.76424969452280D+02

 The electronic state is 1-A'.
 Alpha  occ. eigenvalues --  -19.72964  -1.15694  -0.61916  -0.47050  -0.39940
 Alpha virt. eigenvalues --    0.04626   0.10203   0.27449   0.30409   0.31308
 Alpha virt. eigenvalues --    0.35663   0.44077   0.50780   0.55941   0.62959
 Alpha virt. eigenvalues --    0.65478   0.81091   0.93729   0.95917   1.04698

 Mulliken charges:
               1
     1  O   -0.445293
     2  H    0.224118
     3  H    0.221175
 Sum of Mulliken charges =   0.00000

 Dipole moment (field-independent basis, Debye):
    X=             -0.0031    Y=             -1.9195    Z=              0.0000  Tot=              1.9195
 Quadrupole moment (field-independent basis, Debye-Ang):
   XX=             -4.2409   YY=             -6.3957   ZZ=             -7.5890
   XY=             -0.0182   XZ=              0.0000   YZ=              0.0000

 1\1\GINC-NODE33\SP\RB2PLYPD3-FC\def2QZVP\H2O1\BOITTIER\26-Aug-2020\0\\
 #p B2PLYPD3/Def2QZVP\\h2o\\0,1\O,0,-5.326605,-0.762322,0.916995\H,0,-4
 .368927,-0.757276,0.934911\H,0,-5.609308,0.138469,0.798704\\Version=ES
 64L-G09RevD.01\State=1-A'\HF=-76.3351748\MP2=-76.4249695\RMSD=3.920e-0
 9\PG=CS [SG(H2O1)]\\@

 I HAVE NOT FAILED, I HAVE ONLY DISCOVERED 10,000

 Normal termination of Gaussian 09 at Wed Aug 26 11:40:58 2020.
