 Gaussian 09, Revision D.01,
 Gaussian 09:  ES64L-G09RevD.01 24-Apr-2013

 --------------------
 #p B2PLYPD3/Def2QZVP
 --------------------

 ---
 h2o
 ---
 Symbolic Z-matrix:
 Charge =  0 Multiplicity = 1

                         Standard orientation:
 ---------------------------------------------------------------------
 Center     Atomic      Atomic             Coordinates (Angstroms)
 Number     Number       Type             X           Y           Z
 ---------------------------------------------------------------------
      1          8           0        0.000000    0.113721    0.000000
      2          1           0        0.767330   -0.459477    0.000000
      3          1           0       -0.767330   -0.450291    0.000000
 ---------------------------------------------------------------------

 SCF Done:  E(RB2PLYPD3) =  -76.3351861490     A.U. after   10 cycles
 E2(B2PLYPD3) =    -0.8981178022D-01 E(B2PLYPD3) =    -0.76424997929242D+02

 The electronic state is 1-A'.
 Alpha  occ. eigenvalues --  -19.72978  -1.15690  -0.61862  -0.47082  -0.39942
 Alpha virt. eigenvalues --    0.04619   0.10203   0.27454   0.30410   0.31282
 Alpha virt. eigenvalues --    0.35681   0.44067   0.50736   0.55966   0.62896
 Alpha virt. eigenvalues --    0.65492   0.81097   0.93735   0.95918   1.04627

 Mulliken charges:
               1
     1  O   -0.445166
     2  H    0.223843
     3  H    0.221323
 Sum of Mulliken charges =   0.00000

 Dipole moment (field-independent basis, Debye):
    X=             -0.0026    Y=             -1.9229    Z=              0.0000  Tot=              1.9229
 Quadrupole moment (field-independent basis, Debye-Ang):
   XX=             -4.2484   YY=             -6.3902   ZZ=             -7.5894
   XY=             -0.0156   XZ=              0.0000   YZ=              0.0000

 1\1\GINC-NODE32\SP\RB2PLYPD3-FC\def2QZVP\H2O1\BOITTIER\26-Aug-2020\0\\
 #p B2PLYPD3/Def2QZVP\\h2o\\0,1\O,0,-5.326605,-0.762452,0.917727\H,0,-4
 .368927,-0.754943,0.929893\H,0,-5.609308,0.138214,0.79209\\Version=ES6
 4L-G09RevD.01\State=1-A'\HF=-76.3351861\MP2=-76.4249979\RMSD=3.923e-09
 \PG=CS [SG(H2O1)]\\@

      SCIENCE SANS CONSCIENCE N'EST QUE RUINE DE L'AME.

 Normal termination of Gaussian 09 at Wed Aug 26 12:17:41 2020.
